----- Optimization -----
      -----------------------------------------------------------      
     |                   =====================                   |     
     |                           x T B                           |     
     |                   =====================                   |     
     |                         S. Grimme                         |     
     |          Mulliken Center for Theoretical Chemistry        |     
     |                    University of Bonn                     |     
      -----------------------------------------------------------      

   * xtb version 6.7.1 (edcfbbe) compiled by 'conda@3ef47c1a292c' on 2024-11-25

   xtb is free software: you can redistribute it and/or modify it under
   the terms of the GNU Lesser General Public License as published by
   the Free Software Foundation, either version 3 of the License, or
   (at your option) any later version.
   
   xtb is distributed in the hope that it will be useful,
   but WITHOUT ANY WARRANTY; without even the implied warranty of
   MERCHANTABILITY or FITNESS FOR A PARTICULAR PURPOSE.  See the
   GNU Lesser General Public License for more details.
   
   Cite this work as:
   * C. Bannwarth, E. Caldeweyher, S. Ehlert, A. Hansen, P. Pracht,
     J. Seibert, S. Spicher, S. Grimme, WIREs Comput. Mol. Sci., 2020, 11,
     e01493. DOI: 10.1002/wcms.1493
   
   for GFN2-xTB:
   * C. Bannwarth, S. Ehlert and S. Grimme., J. Chem. Theory Comput., 2019,
     15, 1652-1671. DOI: 10.1021/acs.jctc.8b01176
   for GFN1-xTB:
   * S. Grimme, C. Bannwarth, P. Shushkov, J. Chem. Theory Comput., 2017,
     13, 1989-2009. DOI: 10.1021/acs.jctc.7b00118
   for GFN0-xTB:
   * P. Pracht, E. Caldeweyher, S. Ehlert, S. Grimme, ChemRxiv, 2019, preprint.
     DOI: 10.26434/chemrxiv.8326202.v1
   for GFN-FF:
   * S. Spicher and S. Grimme, Angew. Chem. Int. Ed., 2020, 59, 15665-15673.
     DOI: 10.1002/anie.202004239
   
   for ALPB and GBSA implicit solvation:
   * S. Ehlert, M. Stahn, S. Spicher, S. Grimme, J. Chem. Theory Comput.,
     2021, 17, 4250-4261. DOI: 10.1021/acs.jctc.1c00471
   
   for ddCOSMO and CPCM-X implicit solvation:
   * M. Stahn, S. Ehlert, S. Grimme, J. Phys. Chem. A,
     2023, XX, XXXX-XXXX. DOI: 10.1021/acs.jpca.3c04382
   
   for DFT-D4:
   * E. Caldeweyher, C. Bannwarth and S. Grimme, J. Chem. Phys., 2017,
     147, 034112. DOI: 10.1063/1.4993215
   * E. Caldeweyher, S. Ehlert, A. Hansen, H. Neugebauer, S. Spicher,
     C. Bannwarth and S. Grimme, J. Chem. Phys., 2019, 150, 154122.
     DOI: 10.1063/1.5090222
   * E. Caldeweyher, J.-M. Mewes, S. Ehlert and S. Grimme, Phys. Chem. Chem. Phys.
     2020, 22, 8499-8512. DOI: 10.1039/D0CP00502A
   
   for sTDA-xTB:
   * S. Grimme and C. Bannwarth, J. Chem. Phys., 2016, 145, 054103.
     DOI: 10.1063/1.4959605
   
   in the mass-spec context:
   * V. Asgeirsson, C. Bauer and S. Grimme, Chem. Sci., 2017, 8, 4879.
     DOI: 10.1039/c7sc00601b
   * J. Koopman and S. Grimme, ACS Omega 2019, 4, 12, 15120-15133.
     DOI: 10.1021/acsomega.9b02011
   
   for metadynamics refer to:
   * S. Grimme, J. Chem. Theory Comput., 2019, 155, 2847-2862
     DOI: 10.1021/acs.jctc.9b00143
   
   for SPH calculations refer to:
   * S. Spicher and S. Grimme, J. Chem. Theory Comput., 2021, 17, 1701-1714
     DOI: 10.1021/acs.jctc.0c01306
   
   for ONIOM refer to:
   * C. Plett, A. Katbashev, S. Ehlert, S. Grimme, M. Bursch,
     Phys. Chem. Chem. Phys., 2023, 25, 17860-17868. DOI: 10.1039/D3CP02178E
   
   for DIPRO refer to:
   * J. Kohn, N. Gildemeister, S. Grimme, D. Fazzi, A. Hansen,
     J. Chem. Phys., 2023, just accepted.
   
   for PTB refer to:
   * S. Grimme, M. Mueller, A. Hansen, J. Chem. Phys., 2023, 158, 124111.
     DOI: 10.1063/5.0137838
   
   with help from (in alphabetical order)
   P. Atkinson, C. Bannwarth, F. Bohle, G. Brandenburg, E. Caldeweyher
   M. Checinski, S. Dohm, S. Ehlert, S. Ehrlich, I. Gerasimov, C. Hölzer
   A. Katbashev, J. Kohn, J. Koopman, C. Lavigne, S. Lehtola, F. März, M. Müller,
   F. Musil, H. Neugebauer, J. Pisarek, C. Plett, P. Pracht, F. Pultar,
   J. Seibert, P. Shushkov, S. Spicher, M. Stahn, M. Steiner, T. Strunk,
   J. Stückrath, T. Rose, and J. Unsleber
   
 * started run on 2025/05/15 at 16:38:05.953     
   ID    Z sym.   atoms
    1    8 O      1, 14
    2    6 C      2-5, 7-12, 15-19, 21, 22, 24, 26-30
    3    7 N      6, 13, 23, 25
    4    9 F      20
    5    1 H      31-57

           -------------------------------------------------
          |                Calculation Setup                |
           -------------------------------------------------

          program call               : xtb /rds/general/user/hgt20/home/callum/QDESCP/Risperidone_rdkit_conf_22/Risperidone_rdkit_conf_22.xyz --opt normal --acc 1 --gfn 2 --chrg 0 --uhf 0 -P 1
          hostname                   : login-c
          coordinate file            : /rds/general/user/hgt20/home/callum/QDESCP/Risperidone_rdkit_conf_22/Risperidone_rdkit_conf_22.xyz
          omp threads                :                     1


           -------------------------------------------------
          |                 G F N 2 - x T B                 |
           -------------------------------------------------

        Reference                      10.1021/acs.jctc.8b01176
      * Hamiltonian:
        H0-scaling (s, p, d)           1.850000    2.230000    2.230000
        zeta-weighting                 0.500000
      * Dispersion:
        s8                             2.700000
        a1                             0.520000
        a2                             5.000000
        s9                             5.000000
      * Repulsion:
        kExp                           1.500000    1.000000
        rExp                           1.000000
      * Coulomb:
        alpha                          2.000000
        third order                    shell-resolved
        anisotropic                    true
        a3                             3.000000
        a5                             4.000000
        cn-shift                       1.200000
        cn-exp                         4.000000
        max-rad                        5.000000


          ...................................................
          :                      SETUP                      :
          :.................................................:
          :  # basis functions                 147          :
          :  # atomic orbitals                 147          :
          :  # shells                           87          :
          :  # electrons                       158          :
          :  max. iterations                   250          :
          :  Hamiltonian                  GFN2-xTB          :
          :  restarted?                      false          :
          :  GBSA solvation                  false          :
          :  PC potential                    false          :
          :  electronic temp.          300.0000000     K    :
          :  accuracy                    1.0000000          :
          :  -> integral cutoff          0.2500000E+02      :
          :  -> integral neglect         0.1000000E-07      :
          :  -> SCF convergence          0.1000000E-05 Eh   :
          :  -> wf. convergence          0.1000000E-03 e    :
          :  Broyden damping             0.4000000          :
          :  net charge                          0          :
          :  unpaired electrons                  0          :
          ...................................................

 iter      E             dE          RMSdq      gap      omega  full diag
   1    -88.5867413 -0.885867E+02  0.370E+00    2.91       0.0  T
   2    -88.7105367 -0.123795E+00  0.227E+00    2.51       1.0  T
   3    -88.7119364 -0.139973E-02  0.120E+00    2.11       1.0  T
   4    -88.7308219 -0.188855E-01  0.435E-01    1.77       1.0  T
   5    -88.7370818 -0.625989E-02  0.123E-01    1.73       1.0  T
   6    -88.7374070 -0.325207E-03  0.620E-02    1.76       1.0  T
   7    -88.7374891 -0.821334E-04  0.255E-02    1.78       1.0  T
   8    -88.7374941 -0.498314E-05  0.101E-02    1.79       1.3  T
   9    -88.7374962 -0.213602E-05  0.467E-03    1.79       2.8  T
  10    -88.7374966 -0.380270E-06  0.178E-03    1.79       7.4  T
  11    -88.7374967 -0.904841E-07  0.903E-04    1.79      14.7  T
  12    -88.7374967 -0.113849E-07  0.373E-04    1.79      35.5  T

   *** convergence criteria satisfied after 12 iterations ***

         #    Occupation            Energy/Eh            Energy/eV
      -------------------------------------------------------------
         1        2.0000           -0.8246204             -22.4391
       ...           ...                  ...                  ...
        73        2.0000           -0.4186458             -11.3919
        74        2.0000           -0.4101043             -11.1595
        75        2.0000           -0.4026313             -10.9562
        76        2.0000           -0.3959105             -10.7733
        77        2.0000           -0.3899095             -10.6100
        78        2.0000           -0.3888063             -10.5800
        79        2.0000           -0.3437796              -9.3547 (HOMO)
        80                         -0.2780010              -7.5648 (LUMO)
        81                         -0.2585801              -7.0363
        82                         -0.2351592              -6.3990
        83                         -0.2337163              -6.3597
        84                         -0.2024345              -5.5085
       ...                                ...                  ...
       147                          0.6864201              18.6784
      -------------------------------------------------------------
                  HL-Gap            0.0657787 Eh            1.7899 eV
             Fermi-level           -0.3108903 Eh           -8.4598 eV

 SCC (total)                   0 d,  0 h,  0 min,  0.101 sec
 SCC setup                      ...        0 min,  0.001 sec (  0.555%)
 Dispersion                     ...        0 min,  0.001 sec (  0.859%)
 classical contributions        ...        0 min,  0.000 sec (  0.251%)
 integral evaluation            ...        0 min,  0.012 sec ( 11.727%)
 iterations                     ...        0 min,  0.044 sec ( 43.612%)
 molecular gradient             ...        0 min,  0.043 sec ( 42.699%)
 printout                       ...        0 min,  0.000 sec (  0.291%)

         :::::::::::::::::::::::::::::::::::::::::::::::::::::
         ::                     SUMMARY                     ::
         :::::::::::::::::::::::::::::::::::::::::::::::::::::
         :: total energy             -87.629957791281 Eh    ::
         :: gradient norm              0.107351546010 Eh/a0 ::
         :: HOMO-LUMO gap              1.789928508153 eV    ::
         ::.................................................::
         :: SCC energy               -88.736937899668 Eh    ::
         :: -> isotropic ES            0.081210687115 Eh    ::
         :: -> anisotropic ES          0.007799936619 Eh    ::
         :: -> anisotropic XC          0.041104818345 Eh    ::
         :: -> dispersion             -0.063227318010 Eh    ::
         :: repulsion energy           1.106980108386 Eh    ::
         :: add. restraining           0.000000000000 Eh    ::
         :: total charge               0.000000000000 e     ::
         :::::::::::::::::::::::::::::::::::::::::::::::::::::

      ----------------------------------------------------------- 
     |                   =====================                   |
     |                        A N C O P T                        |
     |                   =====================                   |
     |               Approximate Normal Coordinate               |
     |                Rational Function Optimizer                |
      ----------------------------------------------------------- 
      ----------------------------------------------------------- 
     |                   =====================                   |
     |                        A N C O P T                        |
     |                   =====================                   |
     |               Approximate Normal Coordinate               |
     |                Rational Function Optimizer                |
      ----------------------------------------------------------- 

          ...................................................
          :                      SETUP                      :
          :.................................................:
          :   optimization level            normal          :
          :   max. optcycles                   200          :
          :   ANC micro-cycles                  20          :
          :   degrees of freedom               165          :
          :.................................................:
          :   RF solver                   davidson          :
          :   write xtbopt.log                true          :
          :   linear?                        false          :
          :   energy convergence         0.5000000E-05 Eh   :
          :   grad. convergence          0.1000000E-02 Eh/α :
          :   maxmium RF displ.          1.0000000          :
          :   Hlow (freq-cutoff)         0.1000000E-01      :
          :   Hmax (freq-cutoff)         5.0000000          :
          :   S6 in model hess.         20.0000000          :
          ...................................................

generating ANC from exact Hessian ...
Using Lindh-Hessian (1995)
 Shifting diagonal of input Hessian by    9.8552004135468475E-003
 Lowest  eigenvalues of input Hessian
    0.000000    0.000000    0.000000    0.000000    0.000000    0.000000
    0.010000    0.010063    0.010358    0.010549    0.010864    0.011150
    0.011800    0.012378    0.012930    0.014799    0.015986    0.016994
 Highest eigenvalues
    1.921917    1.941693    2.067382    2.166739    2.186248    2.327498


........................................................................
.............................. CYCLE    1 ..............................
........................................................................

 iter      E             dE          RMSdq      gap      omega  full diag
   1    -88.7374967 -0.887375E+02  0.136E-04    1.79       0.0  T
   2    -88.7374967 -0.232774E-09  0.849E-05    1.79     156.0  T
   3    -88.7374967 -0.109139E-09  0.543E-05    1.79     243.8  T
     SCC iter.                  ...        0 min,  0.012 sec
     gradient                   ...        0 min,  0.053 sec
 * total energy  :   -87.6299578 Eh     change       -0.2236092E-08 Eh
   gradient norm :     0.1073513 Eh/α   predicted     0.0000000E+00 (-100.00%)
   displ. norm   :     0.3139067 α      lambda       -0.1593890E-01
   maximum displ.:     0.0965267 α      in ANC's #58, #10, #30, ...

........................................................................
.............................. CYCLE    2 ..............................
........................................................................

 iter      E             dE          RMSdq      gap      omega  full diag
   1    -88.7744587 -0.887745E+02  0.190E-01    1.93       0.0  T
   2    -88.7745525 -0.938445E-04  0.112E-01    1.96       1.0  T
   3    -88.7744925  0.600294E-04  0.469E-02    1.97       1.0  T
   4    -88.7745669 -0.744244E-04  0.122E-02    1.97       1.1  T
   5    -88.7745740 -0.706573E-05  0.389E-03    1.97       3.4  T
   6    -88.7745743 -0.327590E-06  0.166E-03    1.97       8.0  T
   7    -88.7745743 -0.174051E-07  0.657E-04    1.97      20.2  T
   8    -88.7745743 -0.738302E-08  0.224E-04    1.97      59.0  T
     SCC iter.                  ...        0 min,  0.029 sec
     gradient                   ...        0 min,  0.042 sec
 * total energy  :   -87.6408328 Eh     change       -0.1087498E-01 Eh
   gradient norm :     0.0469546 Eh/α   predicted    -0.8760404E-02 ( -19.44%)
   displ. norm   :     0.2815832 α      lambda       -0.4758275E-02
   maximum displ.:     0.1516852 α      in ANC's #10, #30, #28, ...

........................................................................
.............................. CYCLE    3 ..............................
........................................................................

 iter      E             dE          RMSdq      gap      omega  full diag
   1    -88.7963572 -0.887964E+02  0.117E-01    2.02       0.0  T
   2    -88.7964102 -0.529661E-04  0.696E-02    2.04       1.0  T
   3    -88.7963791  0.310689E-04  0.413E-02    2.04       1.0  T
   4    -88.7964295 -0.503973E-04  0.837E-03    2.04       1.6  T
   5    -88.7964331 -0.360341E-05  0.231E-03    2.04       5.7  T
   6    -88.7964332 -0.863781E-07  0.985E-04    2.04      13.4  T
   7    -88.7964332 -0.923730E-08  0.408E-04    2.04      32.4  T
     SCC iter.                  ...        0 min,  0.025 sec
     gradient                   ...        0 min,  0.044 sec
 * total energy  :   -87.6436597 Eh     change       -0.2826946E-02 Eh
   gradient norm :     0.0159205 Eh/α   predicted    -0.2569819E-02 (  -9.10%)
   displ. norm   :     0.1964768 α      lambda       -0.8093106E-03
   maximum displ.:     0.1401349 α      in ANC's #10, #12, #20, ...

........................................................................
.............................. CYCLE    4 ..............................
........................................................................

 iter      E             dE          RMSdq      gap      omega  full diag
   1    -88.7993175 -0.887993E+02  0.484E-02    2.03       0.0  T
   2    -88.7993228 -0.524011E-05  0.280E-02    2.04       1.0  T
   3    -88.7993158  0.692829E-05  0.182E-02    2.04       1.0  T
   4    -88.7993270 -0.111033E-04  0.244E-03    2.04       5.4  T
   5    -88.7993272 -0.245764E-06  0.926E-04    2.04      14.3  T
   6    -88.7993272 -0.935546E-08  0.472E-04    2.04      28.1  T
     SCC iter.                  ...        0 min,  0.021 sec
     gradient                   ...        0 min,  0.043 sec
 * total energy  :   -87.6442510 Eh     change       -0.5912979E-03 Eh
   gradient norm :     0.0089136 Eh/α   predicted    -0.4202883E-03 ( -28.92%)
   displ. norm   :     0.2527185 α      lambda       -0.5728519E-03
   maximum displ.:     0.1731239 α      in ANC's #10, #9, #15, ...

........................................................................
.............................. CYCLE    5 ..............................
........................................................................

 iter      E             dE          RMSdq      gap      omega  full diag
   1    -88.7994967 -0.887995E+02  0.510E-02    2.02       0.0  T
   2    -88.7994994 -0.279150E-05  0.291E-02    2.02       1.0  T
   3    -88.7994917  0.778645E-05  0.154E-02    2.03       1.0  T
   4    -88.7995014 -0.976109E-05  0.191E-03    2.03       6.9  T
   5    -88.7995015 -0.126616E-06  0.861E-04    2.03      15.4  T
   6    -88.7995016 -0.332756E-08  0.383E-04    2.03      34.6  T
     SCC iter.                  ...        0 min,  0.021 sec
     gradient                   ...        0 min,  0.044 sec
 * total energy  :   -87.6446312 Eh     change       -0.3801806E-03 Eh
   gradient norm :     0.0057101 Eh/α   predicted    -0.3047204E-03 ( -19.85%)
   displ. norm   :     0.1969366 α      lambda       -0.2369057E-03
   maximum displ.:     0.1085028 α      in ANC's #10, #9, #15, ...

........................................................................
.............................. CYCLE    6 ..............................
........................................................................

 iter      E             dE          RMSdq      gap      omega  full diag
   1    -88.7990410 -0.887990E+02  0.351E-02    2.02       0.0  T
   2    -88.7990418 -0.789244E-06  0.206E-02    2.02       1.0  T
   3    -88.7990411  0.690618E-06  0.447E-03    2.02       3.0  T
   4    -88.7990420 -0.885373E-06  0.110E-03    2.02      12.0  T
   5    -88.7990420 -0.390947E-07  0.528E-04    2.02      25.1  T
   6    -88.7990420 -0.259377E-08  0.195E-04    2.02      67.9  T
     SCC iter.                  ...        0 min,  0.021 sec
     gradient                   ...        0 min,  0.043 sec
 * total energy  :   -87.6448071 Eh     change       -0.1759227E-03 Eh
   gradient norm :     0.0067449 Eh/α   predicted    -0.1230728E-03 ( -30.04%)
   displ. norm   :     0.2377754 α      lambda       -0.2258237E-03
   maximum displ.:     0.1084673 α      in ANC's #9, #10, #15, ...

........................................................................
.............................. CYCLE    7 ..............................
........................................................................

 iter      E             dE          RMSdq      gap      omega  full diag
   1    -88.7986605 -0.887987E+02  0.398E-02    2.02       0.0  T
   2    -88.7986617 -0.119137E-05  0.237E-02    2.02       1.0  T
   3    -88.7986592  0.249884E-05  0.750E-03    2.02       1.8  T
   4    -88.7986622 -0.299558E-05  0.131E-03    2.02      10.1  T
   5    -88.7986622 -0.403836E-07  0.637E-04    2.02      20.8  T
   6    -88.7986622 -0.667256E-08  0.280E-04    2.02      47.2  T
     SCC iter.                  ...        0 min,  0.021 sec
     gradient                   ...        0 min,  0.044 sec
 * total energy  :   -87.6449673 Eh     change       -0.1601706E-03 Eh
   gradient norm :     0.0067562 Eh/α   predicted    -0.1193869E-03 ( -25.46%)
   displ. norm   :     0.2019123 α      lambda       -0.1533752E-03
   maximum displ.:     0.0950262 α      in ANC's #9, #15, #12, ...

........................................................................
.............................. CYCLE    8 ..............................
........................................................................

 iter      E             dE          RMSdq      gap      omega  full diag
   1    -88.7989179 -0.887989E+02  0.328E-02    2.03       0.0  T
   2    -88.7989188 -0.915697E-06  0.194E-02    2.03       1.0  T
   3    -88.7989165  0.227782E-05  0.748E-03    2.03       1.8  T
   4    -88.7989192 -0.271269E-05  0.120E-03    2.03      11.0  T
   5    -88.7989192 -0.450174E-07  0.545E-04    2.03      24.3  T
   6    -88.7989193 -0.456083E-08  0.254E-04    2.03      52.2  T
     SCC iter.                  ...        0 min,  0.021 sec
     gradient                   ...        0 min,  0.044 sec
 * total energy  :   -87.6450774 Eh     change       -0.1100703E-03 Eh
   gradient norm :     0.0051706 Eh/α   predicted    -0.7981486E-04 ( -27.49%)
   displ. norm   :     0.1773813 α      lambda       -0.1185190E-03
   maximum displ.:     0.0733939 α      in ANC's #9, #15, #12, ...

........................................................................
.............................. CYCLE    9 ..............................
........................................................................

 iter      E             dE          RMSdq      gap      omega  full diag
   1    -88.7997424 -0.887997E+02  0.279E-02    2.03       0.0  T
   2    -88.7997433 -0.905545E-06  0.163E-02    2.03       1.0  T
   3    -88.7997423  0.997052E-06  0.552E-03    2.03       2.4  T
   4    -88.7997435 -0.116870E-05  0.135E-03    2.03       9.8  T
   5    -88.7997436 -0.868970E-07  0.440E-04    2.03      30.1  T
   6    -88.7997436 -0.984542E-09  0.192E-04    2.03      69.0  T
     SCC iter.                  ...        0 min,  0.025 sec
     gradient                   ...        0 min,  0.044 sec
 * total energy  :   -87.6451632 Eh     change       -0.8586848E-04 Eh
   gradient norm :     0.0037377 Eh/α   predicted    -0.6112658E-04 ( -28.81%)
   displ. norm   :     0.1763219 α      lambda       -0.1008910E-03
   maximum displ.:     0.0712677 α      in ANC's #12, #15, #1, ...

........................................................................
.............................. CYCLE   10 ..............................
........................................................................

 iter      E             dE          RMSdq      gap      omega  full diag
   1    -88.8003849 -0.888004E+02  0.271E-02    2.04       0.0  T
   2    -88.8003860 -0.111587E-05  0.159E-02    2.04       1.0  T
   3    -88.8003857  0.316930E-06  0.396E-03    2.04       3.3  T
   4    -88.8003861 -0.441361E-06  0.105E-03    2.04      12.6  T
   5    -88.8003861 -0.460215E-07  0.439E-04    2.04      30.2  T
   6    -88.8003861 -0.189381E-08  0.200E-04    2.04      66.4  T
     SCC iter.                  ...        0 min,  0.021 sec
     gradient                   ...        0 min,  0.045 sec
 * total energy  :   -87.6452388 Eh     change       -0.7552889E-04 Eh
   gradient norm :     0.0044239 Eh/α   predicted    -0.5201647E-04 ( -31.13%)
   displ. norm   :     0.2091466 α      lambda       -0.1093298E-03
   maximum displ.:     0.0916188 α      in ANC's #12, #1, #2, ...

........................................................................
.............................. CYCLE   11 ..............................
........................................................................

 iter      E             dE          RMSdq      gap      omega  full diag
   1    -88.8006104 -0.888006E+02  0.318E-02    2.04       0.0  T
   2    -88.8006117 -0.129622E-05  0.189E-02    2.04       1.0  T
   3    -88.8006110  0.661869E-06  0.477E-03    2.04       2.8  T
   4    -88.8006119 -0.907599E-06  0.104E-03    2.04      12.8  T
   5    -88.8006120 -0.299424E-07  0.461E-04    2.04      28.7  T
   6    -88.8006120 -0.775159E-09  0.185E-04    2.04      71.7  T
     SCC iter.                  ...        0 min,  0.021 sec
     gradient                   ...        0 min,  0.044 sec
 * total energy  :   -87.6453213 Eh     change       -0.8251738E-04 Eh
   gradient norm :     0.0058805 Eh/α   predicted    -0.5705698E-04 ( -30.85%)
   displ. norm   :     0.2411800 α      lambda       -0.1253986E-03
   maximum displ.:     0.1085520 α      in ANC's #12, #1, #2, ...

........................................................................
.............................. CYCLE   12 ..............................
........................................................................

 iter      E             dE          RMSdq      gap      omega  full diag
   1    -88.8005032 -0.888005E+02  0.369E-02    2.04       0.0  T
   2    -88.8005044 -0.115904E-05  0.219E-02    2.04       1.0  T
   3    -88.8005030  0.137846E-05  0.600E-03    2.04       2.2  T
   4    -88.8005047 -0.174002E-05  0.118E-03    2.04      11.2  T
   5    -88.8005048 -0.306226E-07  0.605E-04    2.04      21.9  T
   6    -88.8005048 -0.415083E-08  0.298E-04    2.04      44.4  T
     SCC iter.                  ...        0 min,  0.021 sec
     gradient                   ...        0 min,  0.044 sec
 * total energy  :   -87.6454164 Eh     change       -0.9515112E-04 Eh
   gradient norm :     0.0063207 Eh/α   predicted    -0.6635172E-04 ( -30.27%)
   displ. norm   :     0.2833458 α      lambda       -0.1406683E-03
   maximum displ.:     0.1319024 α      in ANC's #12, #1, #2, ...

........................................................................
.............................. CYCLE   13 ..............................
........................................................................

 iter      E             dE          RMSdq      gap      omega  full diag
   1    -88.7995221 -0.887995E+02  0.431E-02    2.04       0.0  T
   2    -88.7995230 -0.940934E-06  0.254E-02    2.04       1.0  T
   3    -88.7995211  0.193545E-05  0.666E-03    2.05       2.0  T
   4    -88.7995235 -0.235943E-05  0.125E-03    2.05      10.6  T
   5    -88.7995235 -0.258138E-07  0.684E-04    2.05      19.4  T
   6    -88.7995235 -0.683620E-08  0.266E-04    2.05      49.8  T
     SCC iter.                  ...        0 min,  0.021 sec
     gradient                   ...        0 min,  0.044 sec
 * total energy  :   -87.6455242 Eh     change       -0.1077921E-03 Eh
   gradient norm :     0.0056669 Eh/α   predicted    -0.7598272E-04 ( -29.51%)
   displ. norm   :     0.3088126 α      lambda       -0.1948492E-03
   maximum displ.:     0.1350480 α      in ANC's #1, #9, #12, ...

........................................................................
.............................. CYCLE   14 ..............................
........................................................................

 iter      E             dE          RMSdq      gap      omega  full diag
   1    -88.8006850 -0.888007E+02  0.504E-02    2.04       0.0  T
   2    -88.8006876 -0.255612E-05  0.294E-02    2.04       1.0  T
   3    -88.8006846  0.295471E-05  0.886E-03    2.04       1.5  T
   4    -88.8006882 -0.354918E-05  0.216E-03    2.04       6.1  T
   5    -88.8006884 -0.173569E-06  0.797E-04    2.04      16.6  T
   6    -88.8006884 -0.346901E-09  0.407E-04    2.04      32.6  T
     SCC iter.                  ...        0 min,  0.021 sec
     gradient                   ...        0 min,  0.044 sec
 * total energy  :   -87.6456165 Eh     change       -0.9225947E-04 Eh
   gradient norm :     0.0057855 Eh/α   predicted    -0.1067194E-03 (  15.67%)
   displ. norm   :     0.5330447 α      lambda       -0.2840286E-03
   maximum displ.:     0.2615220 α      in ANC's #12, #1, #2, ...

........................................................................
.............................. CYCLE   15 ..............................
........................................................................

 iter      E             dE          RMSdq      gap      omega  full diag
   1    -88.7929521 -0.887930E+02  0.855E-02    2.05       0.0  T
   2    -88.7929642 -0.120525E-04  0.496E-02    2.05       1.0  T
   3    -88.7929576  0.655015E-05  0.146E-02    2.05       1.0  T
   4    -88.7929657 -0.807862E-05  0.447E-03    2.05       3.0  T
   5    -88.7929665 -0.811945E-06  0.167E-03    2.05       7.9  T
   6    -88.7929665 -0.778655E-08  0.664E-04    2.05      19.9  T
   7    -88.7929665 -0.129158E-07  0.232E-04    2.05      57.1  T
     SCC iter.                  ...        0 min,  0.025 sec
     gradient                   ...        0 min,  0.044 sec
 * total energy  :   -87.6455546 Eh     change        0.6183508E-04 Eh
   gradient norm :     0.0146919 Eh/α   predicted    -0.1823663E-03 (-394.92%)
   displ. norm   :     0.2695972 α      lambda       -0.4879328E-03
   maximum displ.:     0.1352119 α      in ANC's #12, #1, #2, ...

........................................................................
.............................. CYCLE   16 ..............................
........................................................................

 iter      E             dE          RMSdq      gap      omega  full diag
   1    -88.7994591 -0.887995E+02  0.492E-02    2.05       0.0  T
   2    -88.7994653 -0.623919E-05  0.283E-02    2.05       1.0  T
   3    -88.7994633  0.202162E-05  0.934E-03    2.05       1.4  T
   4    -88.7994658 -0.249944E-05  0.316E-03    2.05       4.2  T
   5    -88.7994663 -0.436124E-06  0.111E-03    2.05      11.9  T
   6    -88.7994663 -0.708171E-08  0.544E-04    2.05      24.3  T
   7    -88.7994663 -0.754304E-08  0.143E-04    2.05      92.8  T
     SCC iter.                  ...        0 min,  0.025 sec
     gradient                   ...        0 min,  0.045 sec
 * total energy  :   -87.6457735 Eh     change       -0.2188198E-03 Eh
   gradient norm :     0.0043024 Eh/α   predicted    -0.2617044E-03 (  19.60%)
   displ. norm   :     0.1118158 α      lambda       -0.6090870E-04
   maximum displ.:     0.0587569 α      in ANC's #1, #2, #9, ...

........................................................................
.............................. CYCLE   17 ..............................
........................................................................

 iter      E             dE          RMSdq      gap      omega  full diag
   1    -88.8000573 -0.888001E+02  0.171E-02    2.05       0.0  T
   2    -88.8000575 -0.232492E-06  0.101E-02    2.05       1.3  T
   3    -88.8000571  0.417996E-06  0.306E-03    2.05       4.3  T
   4    -88.8000576 -0.502853E-06  0.555E-04    2.05      23.9  T
   5    -88.8000576 -0.684783E-08  0.239E-04    2.05      55.3  T
     SCC iter.                  ...        0 min,  0.018 sec
     gradient                   ...        0 min,  0.044 sec
 * total energy  :   -87.6458275 Eh     change       -0.5404308E-04 Eh
   gradient norm :     0.0033046 Eh/α   predicted    -0.3083693E-04 ( -42.94%)
   displ. norm   :     0.4148092 α      lambda       -0.1770005E-03
   maximum displ.:     0.2200902 α      in ANC's #1, #2, #12, ...

........................................................................
.............................. CYCLE   18 ..............................
........................................................................

 iter      E             dE          RMSdq      gap      omega  full diag
   1    -88.7994310 -0.887994E+02  0.593E-02    2.06       0.0  T
   2    -88.7994337 -0.270124E-05  0.349E-02    2.06       1.0  T
   3    -88.7994298  0.389736E-05  0.937E-03    2.06       1.4  T
   4    -88.7994345 -0.474686E-05  0.204E-03    2.06       6.5  T
   5    -88.7994347 -0.103179E-06  0.854E-04    2.06      15.5  T
   6    -88.7994347 -0.431831E-08  0.379E-04    2.06      35.0  T
     SCC iter.                  ...        0 min,  0.021 sec
     gradient                   ...        0 min,  0.044 sec
 * total energy  :   -87.6459462 Eh     change       -0.1187418E-03 Eh
   gradient norm :     0.0031427 Eh/α   predicted    -0.1037325E-03 ( -12.64%)
   displ. norm   :     0.4111307 α      lambda        0.3250764E-04
   maximum displ.:     0.2180231 α      in ANC's #1, #2, #12, ...

........................................................................
.............................. CYCLE   19 ..............................
........................................................................

 iter      E             dE          RMSdq      gap      omega  full diag
   1    -88.7962403 -0.887962E+02  0.599E-02    2.07       0.0  T
   2    -88.7962444 -0.407518E-05  0.351E-02    2.07       1.0  T
   3    -88.7962405  0.384629E-05  0.976E-03    2.07       1.4  T
   4    -88.7962452 -0.472167E-05  0.253E-03    2.07       5.2  T
   5    -88.7962455 -0.211828E-06  0.969E-04    2.07      13.7  T
   6    -88.7962455 -0.340933E-08  0.440E-04    2.07      30.1  T
     SCC iter.                  ...        0 min,  0.021 sec
     gradient                   ...        0 min,  0.044 sec
 * total energy  :   -87.6458782 Eh     change        0.6808782E-04 Eh
   gradient norm :     0.0091363 Eh/α   predicted     0.1899593E-04 ( -72.10%)
   displ. norm   :     0.1778948 α      lambda       -0.2202016E-03
   maximum displ.:     0.0776666 α      in ANC's #1, #12, #2, ...

........................................................................
.............................. CYCLE   20 ..............................
........................................................................

 iter      E             dE          RMSdq      gap      omega  full diag
   1    -88.7997384 -0.887997E+02  0.325E-02    2.06       0.0  T
   2    -88.7997410 -0.262779E-05  0.189E-02    2.07       1.0  T
   3    -88.7997396  0.140530E-05  0.709E-03    2.06       1.9  T
   4    -88.7997415 -0.185902E-05  0.188E-03    2.06       7.0  T
   5    -88.7997416 -0.118876E-06  0.686E-04    2.06      19.3  T
   6    -88.7997416 -0.299835E-08  0.344E-04    2.06      38.5  T
     SCC iter.                  ...        0 min,  0.021 sec
     gradient                   ...        0 min,  0.044 sec
 * total energy  :   -87.6459978 Eh     change       -0.1196878E-03 Eh
   gradient norm :     0.0026507 Eh/α   predicted    -0.1135859E-03 (  -5.10%)
   displ. norm   :     0.0841327 α      lambda       -0.3803912E-04
   maximum displ.:     0.0525959 α      in ANC's #1, #2, #21, ...
 * RMSD in coord.:     0.3940976 α      energy gain  -0.1604005E-01 Eh

generating ANC from exact Hessian ...
Using Lindh-Hessian (1995)
 Shifting diagonal of input Hessian by    9.8203290535121574E-003
 Lowest  eigenvalues of input Hessian
    0.000000    0.000000    0.000000    0.000000    0.000000    0.000000
    0.010000    0.010044    0.010341    0.010581    0.010846    0.011183
    0.011972    0.012535    0.013057    0.015075    0.016297    0.017334
 Highest eigenvalues
    1.979069    1.980752    2.084701    2.205775    2.226134    2.379570


........................................................................
.............................. CYCLE   21 ..............................
........................................................................

 iter      E             dE          RMSdq      gap      omega  full diag
   1    -88.8005659 -0.888006E+02  0.102E-02    2.06       0.0  T
   2    -88.8005660 -0.165700E-06  0.601E-03    2.06       2.2  T
   3    -88.8005659  0.129062E-06  0.214E-03    2.06       6.2  T
   4    -88.8005661 -0.178059E-06  0.368E-04    2.06      36.0  T
   5    -88.8005661 -0.260641E-08  0.192E-04    2.06      68.8  T
     SCC iter.                  ...        0 min,  0.018 sec
     gradient                   ...        0 min,  0.044 sec
 * total energy  :   -87.6460299 Eh     change       -0.3203896E-04 Eh
   gradient norm :     0.0013636 Eh/α   predicted     0.0000000E+00 (-100.00%)
   displ. norm   :     0.0442873 α      lambda       -0.1891294E-05
   maximum displ.:     0.0267824 α      in ANC's #2, #5, #1, ...

........................................................................
.............................. CYCLE   22 ..............................
........................................................................

 iter      E             dE          RMSdq      gap      omega  full diag
   1    -88.8008193 -0.888008E+02  0.750E-03    2.06       0.0  T
   2    -88.8008194 -0.731936E-07  0.442E-03    2.06       3.0  T
   3    -88.8008192  0.143516E-06  0.187E-03    2.06       7.1  T
   4    -88.8008194 -0.177044E-06  0.310E-04    2.06      42.8  T
   5    -88.8008194 -0.262327E-08  0.141E-04    2.06      93.9  T
     SCC iter.                  ...        0 min,  0.018 sec
     gradient                   ...        0 min,  0.044 sec
 * total energy  :   -87.6460476 Eh     change       -0.1768778E-04 Eh
   gradient norm :     0.0005343 Eh/α   predicted    -0.7176034E-05 ( -59.43%)
   displ. norm   :     0.1296414 α      lambda       -0.2835861E-04
   maximum displ.:     0.0755104 α      in ANC's #2, #5, #1, ...

........................................................................
.............................. CYCLE   23 ..............................
........................................................................

 iter      E             dE          RMSdq      gap      omega  full diag
   1    -88.8008712 -0.888009E+02  0.199E-02    2.06       0.0  T
   2    -88.8008715 -0.253904E-06  0.117E-02    2.06       1.1  T
   3    -88.8008708  0.666270E-06  0.390E-03    2.06       3.4  T
   4    -88.8008716 -0.802706E-06  0.589E-04    2.06      22.5  T
   5    -88.8008716 -0.546547E-08  0.322E-04    2.06      41.1  T
     SCC iter.                  ...        0 min,  0.018 sec
     gradient                   ...        0 min,  0.044 sec
 * total energy  :   -87.6460790 Eh     change       -0.3140876E-04 Eh
   gradient norm :     0.0013702 Eh/α   predicted    -0.1428637E-04 ( -54.51%)
   displ. norm   :     0.1522279 α      lambda       -0.2279845E-04
   maximum displ.:     0.0920718 α      in ANC's #2, #5, #1, ...

........................................................................
.............................. CYCLE   24 ..............................
........................................................................

 iter      E             dE          RMSdq      gap      omega  full diag
   1    -88.8007232 -0.888007E+02  0.224E-02    2.05       0.0  T
   2    -88.8007234 -0.204599E-06  0.131E-02    2.05       1.0  T
   3    -88.8007230  0.422869E-06  0.314E-03    2.05       4.2  T
   4    -88.8007235 -0.529203E-06  0.606E-04    2.05      21.9  T
   5    -88.8007235 -0.365947E-08  0.327E-04    2.05      40.6  T
     SCC iter.                  ...        0 min,  0.018 sec
     gradient                   ...        0 min,  0.044 sec
 * total energy  :   -87.6461065 Eh     change       -0.2747268E-04 Eh
   gradient norm :     0.0015500 Eh/α   predicted    -0.1152657E-04 ( -58.04%)
   displ. norm   :     0.1898253 α      lambda       -0.2617849E-04
   maximum displ.:     0.1160769 α      in ANC's #2, #5, #1, ...

........................................................................
.............................. CYCLE   25 ..............................
........................................................................

 iter      E             dE          RMSdq      gap      omega  full diag
   1    -88.8005839 -0.888006E+02  0.275E-02    2.05       0.0  T
   2    -88.8005841 -0.255315E-06  0.161E-02    2.05       1.0  T
   3    -88.8005840  0.153403E-06  0.223E-03    2.05       5.9  T
   4    -88.8005842 -0.252274E-06  0.720E-04    2.05      18.4  T
   5    -88.8005842 -0.729455E-08  0.345E-04    2.05      38.3  T
     SCC iter.                  ...        0 min,  0.018 sec
     gradient                   ...        0 min,  0.044 sec
 * total energy  :   -87.6461391 Eh     change       -0.3260118E-04 Eh
   gradient norm :     0.0013209 Eh/α   predicted    -0.1329950E-04 ( -59.21%)
   displ. norm   :     0.2379433 α      lambda       -0.3074835E-04
   maximum displ.:     0.1478976 α      in ANC's #2, #5, #1, ...

........................................................................
.............................. CYCLE   26 ..............................
........................................................................

 iter      E             dE          RMSdq      gap      omega  full diag
   1    -88.8003892 -0.888004E+02  0.337E-02    2.05       0.0  T
   2    -88.8003896 -0.444881E-06  0.197E-02    2.05       1.0  T
   3    -88.8003894  0.247276E-06  0.277E-03    2.05       4.8  T
   4    -88.8003898 -0.403154E-06  0.916E-04    2.05      14.5  T
   5    -88.8003898 -0.142545E-07  0.401E-04    2.05      33.0  T
     SCC iter.                  ...        0 min,  0.018 sec
     gradient                   ...        0 min,  0.044 sec
 * total energy  :   -87.6461751 Eh     change       -0.3601725E-04 Eh
   gradient norm :     0.0010086 Eh/α   predicted    -0.1576263E-04 ( -56.24%)
   displ. norm   :     0.2061631 α      lambda       -0.2241390E-04
   maximum displ.:     0.1328174 α      in ANC's #2, #5, #1, ...

........................................................................
.............................. CYCLE   27 ..............................
........................................................................

 iter      E             dE          RMSdq      gap      omega  full diag
   1    -88.8005994 -0.888006E+02  0.280E-02    2.05       0.0  T
   2    -88.8005998 -0.344312E-06  0.164E-02    2.05       1.0  T
   3    -88.8005994  0.384253E-06  0.302E-03    2.05       4.4  T
   4    -88.8005999 -0.515190E-06  0.776E-04    2.05      17.1  T
   5    -88.8005999 -0.952296E-08  0.342E-04    2.05      38.7  T
     SCC iter.                  ...        0 min,  0.018 sec
     gradient                   ...        0 min,  0.044 sec
 * total energy  :   -87.6462009 Eh     change       -0.2583232E-04 Eh
   gradient norm :     0.0008031 Eh/α   predicted    -0.1143100E-04 ( -55.75%)
   displ. norm   :     0.1519446 α      lambda       -0.1497769E-04
   maximum displ.:     0.1016909 α      in ANC's #2, #1, #5, ...

........................................................................
.............................. CYCLE   28 ..............................
........................................................................

 iter      E             dE          RMSdq      gap      omega  full diag
   1    -88.8009513 -0.888010E+02  0.197E-02    2.06       0.0  T
   2    -88.8009515 -0.184532E-06  0.116E-02    2.06       1.1  T
   3    -88.8009511  0.341914E-06  0.267E-03    2.06       5.0  T
   4    -88.8009516 -0.425477E-06  0.551E-04    2.06      24.0  T
   5    -88.8009516 -0.393528E-08  0.249E-04    2.06      53.1  T
     SCC iter.                  ...        0 min,  0.018 sec
     gradient                   ...        0 min,  0.044 sec
 * total energy  :   -87.6462194 Eh     change       -0.1850230E-04 Eh
   gradient norm :     0.0008043 Eh/α   predicted    -0.7575494E-05 ( -59.06%)
   displ. norm   :     0.1442697 α      lambda       -0.1494026E-04
   maximum displ.:     0.0971633 α      in ANC's #2, #1, #3, ...

........................................................................
.............................. CYCLE   29 ..............................
........................................................................

 iter      E             dE          RMSdq      gap      omega  full diag
   1    -88.8011862 -0.888012E+02  0.182E-02    2.06       0.0  T
   2    -88.8011864 -0.147863E-06  0.107E-02    2.06       1.2  T
   3    -88.8011861  0.318948E-06  0.248E-03    2.06       5.4  T
   4    -88.8011865 -0.392566E-06  0.497E-04    2.06      26.7  T
   5    -88.8011865 -0.283816E-08  0.226E-04    2.06      58.7  T
     SCC iter.                  ...        0 min,  0.018 sec
     gradient                   ...        0 min,  0.044 sec
 * total energy  :   -87.6462385 Eh     change       -0.1907421E-04 Eh
   gradient norm :     0.0008065 Eh/α   predicted    -0.7539802E-05 ( -60.47%)
   displ. norm   :     0.1739365 α      lambda       -0.1803503E-04
   maximum displ.:     0.1160576 α      in ANC's #2, #1, #3, ...

........................................................................
.............................. CYCLE   30 ..............................
........................................................................

 iter      E             dE          RMSdq      gap      omega  full diag
   1    -88.8012718 -0.888013E+02  0.215E-02    2.06       0.0  T
   2    -88.8012720 -0.202558E-06  0.126E-02    2.06       1.0  T
   3    -88.8012715  0.496862E-06  0.302E-03    2.06       4.4  T
   4    -88.8012721 -0.607430E-06  0.582E-04    2.06      22.8  T
   5    -88.8012721 -0.320239E-08  0.278E-04    2.06      47.6  T
     SCC iter.                  ...        0 min,  0.018 sec
     gradient                   ...        0 min,  0.050 sec
 * total energy  :   -87.6462609 Eh     change       -0.2237627E-04 Eh
   gradient norm :     0.0007791 Eh/α   predicted    -0.9139921E-05 ( -59.15%)
   displ. norm   :     0.1899118 α      lambda       -0.1742687E-04
   maximum displ.:     0.1272637 α      in ANC's #2, #1, #7, ...

........................................................................
.............................. CYCLE   31 ..............................
........................................................................

 iter      E             dE          RMSdq      gap      omega  full diag
   1    -88.8010813 -0.888011E+02  0.233E-02    2.06       0.0  T
   2    -88.8010815 -0.230503E-06  0.136E-02    2.06       1.0  T
   3    -88.8010810  0.535580E-06  0.314E-03    2.06       4.2  T
   4    -88.8010817 -0.656915E-06  0.632E-04    2.06      21.0  T
   5    -88.8010817 -0.407205E-08  0.311E-04    2.06      42.5  T
     SCC iter.                  ...        0 min,  0.018 sec
     gradient                   ...        0 min,  0.053 sec
 * total energy  :   -87.6462820 Eh     change       -0.2109373E-04 Eh
   gradient norm :     0.0006870 Eh/α   predicted    -0.8854966E-05 ( -58.02%)
   displ. norm   :     0.1703176 α      lambda       -0.1420487E-04
   maximum displ.:     0.1161656 α      in ANC's #2, #1, #3, ...

........................................................................
.............................. CYCLE   32 ..............................
........................................................................

 iter      E             dE          RMSdq      gap      omega  full diag
   1    -88.8010605 -0.888011E+02  0.203E-02    2.06       0.0  T
   2    -88.8010607 -0.188865E-06  0.118E-02    2.06       1.1  T
   3    -88.8010603  0.436783E-06  0.286E-03    2.06       4.6  T
   4    -88.8010608 -0.537311E-06  0.563E-04    2.06      23.5  T
   5    -88.8010608 -0.330314E-08  0.281E-04    2.06      47.2  T
     SCC iter.                  ...        0 min,  0.018 sec
     gradient                   ...        0 min,  0.045 sec
 * total energy  :   -87.6462993 Eh     change       -0.1732793E-04 Eh
   gradient norm :     0.0005844 Eh/α   predicted    -0.7195634E-05 ( -58.47%)
   displ. norm   :     0.1437173 α      lambda       -0.1166926E-04
   maximum displ.:     0.1006125 α      in ANC's #2, #1, #3, ...

........................................................................
.............................. CYCLE   33 ..............................
........................................................................

 iter      E             dE          RMSdq      gap      omega  full diag
   1    -88.8008766 -0.888009E+02  0.162E-02    2.06       0.0  T
   2    -88.8008767 -0.141092E-06  0.942E-03    2.06       1.4  T
   3    -88.8008765  0.256804E-06  0.227E-03    2.06       5.8  T
   4    -88.8008768 -0.319514E-06  0.482E-04    2.06      27.5  T
   5    -88.8008768 -0.393531E-08  0.233E-04    2.06      56.9  T
     SCC iter.                  ...        0 min,  0.018 sec
     gradient                   ...        0 min,  0.045 sec
 * total energy  :   -87.6463142 Eh     change       -0.1487609E-04 Eh
   gradient norm :     0.0004111 Eh/α   predicted    -0.5888503E-05 ( -60.42%)
   displ. norm   :     0.1311019 α      lambda       -0.1144184E-04
   maximum displ.:     0.0927907 α      in ANC's #2, #1, #3, ...

........................................................................
.............................. CYCLE   34 ..............................
........................................................................

 iter      E             dE          RMSdq      gap      omega  full diag
   1    -88.8008950 -0.888009E+02  0.145E-02    2.06       0.0  T
   2    -88.8008951 -0.121591E-06  0.841E-03    2.06       1.6  T
   3    -88.8008949  0.191509E-06  0.200E-03    2.06       6.6  T
   4    -88.8008951 -0.241696E-06  0.445E-04    2.06      29.8  T
   5    -88.8008952 -0.375947E-08  0.210E-04    2.06      63.2  T
     SCC iter.                  ...        0 min,  0.018 sec
     gradient                   ...        0 min,  0.045 sec
 * total energy  :   -87.6463288 Eh     change       -0.1462507E-04 Eh
   gradient norm :     0.0005307 Eh/α   predicted    -0.5767003E-05 ( -60.57%)
   displ. norm   :     0.1371248 α      lambda       -0.1153581E-04
   maximum displ.:     0.0969934 α      in ANC's #2, #1, #3, ...

........................................................................
.............................. CYCLE   35 ..............................
........................................................................

 iter      E             dE          RMSdq      gap      omega  full diag
   1    -88.8007391 -0.888007E+02  0.144E-02    2.06       0.0  T
   2    -88.8007393 -0.153566E-06  0.839E-03    2.06       1.6  T
   3    -88.8007391  0.211482E-06  0.214E-03    2.06       6.2  T
   4    -88.8007393 -0.265718E-06  0.490E-04    2.06      27.0  T
   5    -88.8007393 -0.623149E-08  0.214E-04    2.06      61.9  T
     SCC iter.                  ...        0 min,  0.018 sec
     gradient                   ...        0 min,  0.045 sec
 * total energy  :   -87.6463429 Eh     change       -0.1407773E-04 Eh
   gradient norm :     0.0005002 Eh/α   predicted    -0.5820121E-05 ( -58.66%)
   displ. norm   :     0.1245109 α      lambda       -0.8954773E-05
   maximum displ.:     0.0879898 α      in ANC's #2, #1, #5, ...

........................................................................
.............................. CYCLE   36 ..............................
........................................................................

 iter      E             dE          RMSdq      gap      omega  full diag
   1    -88.8009194 -0.888009E+02  0.135E-02    2.06       0.0  T
   2    -88.8009195 -0.133454E-06  0.787E-03    2.06       1.7  T
   3    -88.8009193  0.189950E-06  0.204E-03    2.06       6.5  T
   4    -88.8009195 -0.237768E-06  0.466E-04    2.06      28.4  T
   5    -88.8009195 -0.531614E-08  0.200E-04    2.06      66.1  T
     SCC iter.                  ...        0 min,  0.018 sec
     gradient                   ...        0 min,  0.045 sec
 * total energy  :   -87.6463532 Eh     change       -0.1029441E-04 Eh
   gradient norm :     0.0005976 Eh/α   predicted    -0.4508849E-05 ( -56.20%)
   displ. norm   :     0.0899404 α      lambda       -0.5414872E-05
   maximum displ.:     0.0651397 α      in ANC's #2, #1, #5, ...

........................................................................
.............................. CYCLE   37 ..............................
........................................................................

 iter      E             dE          RMSdq      gap      omega  full diag
   1    -88.8008695 -0.888009E+02  0.939E-03    2.06       0.0  T
   2    -88.8008695 -0.796771E-07  0.547E-03    2.06       2.4  T
   3    -88.8008694  0.125505E-06  0.165E-03    2.06       8.0  T
   4    -88.8008696 -0.155534E-06  0.343E-04    2.06      38.6  T
   5    -88.8008696 -0.289431E-08  0.147E-04    2.06      90.0  T
     SCC iter.                  ...        0 min,  0.018 sec
     gradient                   ...        0 min,  0.045 sec
 * total energy  :   -87.6463594 Eh     change       -0.6262253E-05 Eh
   gradient norm :     0.0003050 Eh/α   predicted    -0.2718082E-05 ( -56.60%)
   displ. norm   :     0.0629537 α      lambda       -0.3661206E-05
   maximum displ.:     0.0460232 α      in ANC's #2, #1, #5, ...

........................................................................
.............................. CYCLE   38 ..............................
........................................................................

 iter      E             dE          RMSdq      gap      omega  full diag
   1    -88.8010748 -0.888011E+02  0.686E-03    2.07       0.0  T
   2    -88.8010748 -0.427673E-07  0.400E-03    2.07       3.3  T
   3    -88.8010748  0.714530E-07  0.126E-03    2.07      10.5  T
   4    -88.8010748 -0.879314E-07  0.262E-04    2.07      50.5  T
   5    -88.8010748 -0.174261E-08  0.112E-04    2.07     118.5  T
     SCC iter.                  ...        0 min,  0.018 sec
     gradient                   ...        0 min,  0.044 sec
 * total energy  :   -87.6463639 Eh     change       -0.4483560E-05 Eh
   gradient norm :     0.0003248 Eh/α   predicted    -0.1835566E-05 ( -59.06%)
   displ. norm   :     0.0603373 α      lambda       -0.3596312E-05
   maximum displ.:     0.0438626 α      in ANC's #2, #1, #5, ...

   *** GEOMETRY OPTIMIZATION CONVERGED AFTER 38 ITERATIONS ***

------------------------------------------------------------------------
 total energy gain   :        -0.0164061 Eh      -10.2950 kcal/mol
 total RMSD          :         0.6228941 a0        0.3296 Å
 total power (kW/mol):        -1.1335322 (step)  -14.0145 (real)
------------------------------------------------------------------------

 ANCopt (total)                0 d,  0 h,  0 min,  3.074 sec
 optimizer setup                ...        0 min,  0.000 sec (  0.003%)
 model hessian                  ...        0 min,  0.085 sec (  2.762%)
 ANC generation                 ...        0 min,  0.006 sec (  0.180%)
 coordinate transformation      ...        0 min,  0.001 sec (  0.016%)
 single point calculation       ...        0 min,  2.968 sec ( 96.560%)
 optimization log               ...        0 min,  0.008 sec (  0.248%)
 hessian update                 ...        0 min,  0.001 sec (  0.025%)
 rational function              ...        0 min,  0.003 sec (  0.097%)

================
 final structure:
================
57
 xtb: 6.7.1 (edcfbbe)
O           -0.63232203304163       -0.85649394940566        0.50378525421184
C           -1.74215366374288       -0.44467044895486        0.19518754041098
C           -2.21600794157282        0.90938270276192        0.35524731945350
C           -1.24384425699316        1.86463238245699        0.98308899859706
C           -0.14112982075388        2.20151716249909       -0.02452286699153
N            0.83937190033206        3.15949061349386        0.46782071183764
C            1.44874422631537        2.84033388246640        1.74649621933236
C            2.33820830974525        1.59343130533669        1.70342166903156
C            3.44368895890048        1.79229210002169        0.66015662755970
C            2.84175840292468        2.20557478981217       -0.69147604162392
C            1.88571943883473        3.39375363169616       -0.51158129826312
C            4.26564787962266        0.56186729322072        0.48873145225974
N            5.55759436186045        0.60473679146536        0.60136126552470
O            6.07931815447019       -0.63819607626760        0.35852217979118
C            5.06347265485233       -1.47326214098006        0.08438230539651
C            3.84208438614963       -0.77139111886914        0.15236594479166
C            2.64219749407894       -1.44287180642232       -0.08838715084462
C            2.70243370276777       -2.78163752979609       -0.39915782122121
C            3.93196598734884       -3.43971632324467       -0.46621083901840
F            3.92936856988051       -4.75158637788433       -0.77944978888926
C            5.14002420774595       -2.82336520686551       -0.22757068413984
C           -3.47160430379492        1.24110111026264       -0.06870669231293
N           -4.31245511724406        0.32445992147414       -0.61825587244468
C           -3.90674674883583       -0.89413384784532       -0.74381249373252
N           -2.67633282920921       -1.31471819820993       -0.37277942693157
C           -2.37306219377385       -2.72439750062654       -0.49177059960616
C           -3.49581147455211       -3.52085819383075        0.16856649142884
C           -4.85584415094733       -3.19599242062542       -0.47127499866192
C           -4.78968341304085       -1.93494241733316       -1.34780603373424
C           -4.03750807030315        2.62183241083436        0.03511601099374
H           -0.80077030700488        1.35454097943310        1.84055139719516
H           -1.73525200992527        2.77522407793388        1.31980032859080
H           -0.60093377620110        2.65738306298800       -0.90905579424282
H            0.31446373822670        1.25277644176836       -0.33930398179224
H            2.05418843929838        3.70744218104556        2.03047316332401
H            0.66760317696191        2.72602920169757        2.49835941587216
H            2.78533130501041        1.42414509432943        2.68458744794443
H            1.73153302048143        0.72282515540532        1.45556578321074
H            4.11410457195778        2.58880699317120        1.00148214289280
H            2.30754128270298        1.36048051411378       -1.12891361765491
H            3.64241401388886        2.48416540494335       -1.37866591884544
H            2.45524606897697        4.26612175994902       -0.17644118702129
H            1.41866731786780        3.64088237588291       -1.46842008675848
H            1.68391953583244       -0.95359544811533       -0.02171791784002
H            1.80307902288121       -3.34429182310967       -0.59139405041943
H            6.07518313580138       -3.35368132939237       -0.27933216411989
H           -1.41539105592089       -2.88839315633691        0.00843150067802
H           -2.27329219036289       -2.99424785370471       -1.54809032534313
H           -3.27477388997142       -4.58482509456111        0.09098590923069
H           -3.51254109634841       -3.26128926391596        1.22869847609781
H           -5.19560794220957       -4.02826915016423       -1.08833321055313
H           -5.59907517358255       -3.04435043933367        0.31162876088529
H           -4.37826087828579       -2.19589745508740       -2.32721703486040
H           -5.78024884700679       -1.51010740535004       -1.49992335010108
H           -3.39137407842761        3.34055909187171       -0.46375215437655
H           -5.01919996399835        2.63430542841101       -0.42821047116094
H           -4.13374603866119        2.91688811547791        1.07841955696608

 Bond Distances (Angstroems)
 ---------------------------
O1-C2=1.2233         C2-O1=1.2233         C2-C3=1.4435         C2-N25=1.3972        C3-C2=1.4435         C3-C4=1.5006         
C3-C22=1.3661        C4-C3=1.5006         C4-C5=1.5313         C4-H31=1.0917        C4-H32=1.0881        C5-C4=1.5313         
C5-N6=1.4565         C5-H33=1.0962        C5-H34=1.0985        N6-C5=1.4565         N6-C7=1.4520         N6-C11=1.4522        
C7-N6=1.4520         C7-C8=1.5322         C7-H35=1.0950        C7-H36=1.0902        C8-C7=1.5322         C8-C9=1.5330         
C8-H37=1.0915        C8-H38=1.0897        C9-C8=1.5330         C9-C10=1.5362        C9-C12=1.4896        C9-H39=1.0956        
C10-C9=1.5362        C10-C11=1.5356       C10-H40=1.0913       C10-H41=1.0913       C11-N6=1.4522        C11-C10=1.5356       
C11-H42=1.0944       C11-H43=1.0930       C12-C9=1.4896        C12-N13=1.2976       C12-C16=1.4388       N13-C12=1.2976       
N13-O14=1.3697       O14-N13=1.3697       O14-C15=1.3433       C15-O14=1.3433       C15-C16=1.4103       C15-C21=1.3878       
C16-C12=1.4388       C16-C15=1.4103       C16-C17=1.3959       C17-C16=1.3959       C17-C18=1.3757       C17-H44=1.0780       
C18-C17=1.3757       C18-C19=1.3962       C18-H45=1.0781       C19-C18=1.3962       C19-F20=1.3488       C19-C21=1.3770       
F20-C19=1.3488       C21-C15=1.3878       C21-C19=1.3770       C21-H46=1.0763       C22-C3=1.3661        C22-N23=1.3599       
C22-C30=1.4958       N23-C22=1.3599       N23-C24=1.2905       C24-N23=1.2905       C24-N25=1.3522       C24-C29=1.4925       
N25-C2=1.3972        N25-C24=1.3522       N25-C26=1.4468       C26-N25=1.4468       C26-C27=1.5267       C26-H47=1.0928       
C26-H48=1.0948       C27-C26=1.5267       C27-C28=1.5377       C27-H49=1.0895       C27-H50=1.0916       C28-C27=1.5377       
C28-C29=1.5372       C28-H51=1.0904       C28-H52=1.0901       C29-C24=1.4925       C29-C28=1.5372       C29-H53=1.0939       
C29-H54=1.0885       C30-C22=1.4958       C30-H55=1.0876       C30-H56=1.0856       C30-H57=1.0885       H31-C4=1.0917        
H32-C4=1.0881        H33-C5=1.0962        H34-C5=1.0985        H35-C7=1.0950        H36-C7=1.0902        H37-C8=1.0915        
H38-C8=1.0897        H39-C9=1.0956        H40-C10=1.0913       H41-C10=1.0913       H42-C11=1.0944       H43-C11=1.0930       
H44-C17=1.0780       H45-C18=1.0781       H46-C21=1.0763       H47-C26=1.0928       H48-C26=1.0948       H49-C27=1.0895       
H50-C27=1.0916       H51-C28=1.0904       H52-C28=1.0901       H53-C29=1.0939       H54-C29=1.0885       H55-C30=1.0876       
H56-C30=1.0856       H57-C30=1.0885       
 C  H  Rav=1.0901 sigma=0.0053  Rmin=1.0763  Rmax=1.0985    27
 C  C  Rav=1.4686 sigma=0.0641  Rmin=1.3661  Rmax=1.5377    21
 N  C  Rav=1.3894 sigma=0.0634  Rmin=1.2905  Rmax=1.4565     9
 O  C  Rav=1.2833 sigma=0.0600  Rmin=1.2233  Rmax=1.3433     2
 O  N  Rav=1.3697 sigma=0.0000  Rmin=1.3697  Rmax=1.3697     1
 F  C  Rav=1.3488 sigma=0.0000  Rmin=1.3488  Rmax=1.3488     1

 selected bond angles (degree)
 --------------------
C3-C2-O1=125.85                N25-C2-O1=119.97               N25-C2-C3=114.19               C4-C3-C2=115.52                
C22-C3-C2=119.67               C22-C3-C4=124.80               C5-C4-C3=109.35                H31-C4-C3=107.11               
H31-C4-C5=109.11               H32-C4-C3=111.69               H32-C4-C5=110.17               H32-C4-H31=109.35              
N6-C5-C4=114.02                H33-C5-C4=108.69               H33-C5-N6=106.36               H34-C5-C4=107.29               
H34-C5-N6=112.69               H34-C5-H33=107.57              C7-N6-C5=115.83                C11-N6-C5=111.29               
C11-N6-C7=109.09               C8-C7-N6=113.44                H35-C7-N6=106.64               H35-C7-C8=109.31               
H36-C7-N6=109.25               H36-C7-C8=110.49               H36-C7-H35=107.48              C9-C8-C7=109.40                
H37-C8-C7=109.80               H37-C8-C9=109.66               H38-C8-C7=109.47               H38-C8-C9=110.51               
H38-C8-H37=107.98              C10-C9-C8=110.56               C12-C9-C8=111.66               C12-C9-C10=109.70              
H39-C9-C8=108.88               H39-C9-C10=108.56              H39-C9-C12=107.38              C11-C10-C9=110.43              
H40-C10-C9=109.64              H40-C10-C11=109.96             H41-C10-C9=109.59              H41-C10-C11=109.45             
H41-C10-H40=107.72             

 selected dihedral angles (degree)
 ---------------------------------
C4-C3-C2-O1=358.78            C4-C3-C2-N25=179.06           C22-C3-C2-O1=178.17           C22-C3-C2-N25=358.45          
C5-C4-C3-C2= 73.23            C5-C4-C3-C22=253.88           H31-C4-C3-C2=315.12           H31-C4-C3-C22=135.77          
H32-C4-C3-C2=195.43           H32-C4-C3-C22= 16.07          N6-C5-C4-C3=178.15            N6-C5-C4-H31=294.99           
N6-C5-C4-H32= 55.04           H33-C5-C4-C3= 59.71           H33-C5-C4-H31=176.56          H33-C5-C4-H32=296.60          
H34-C5-C4-C3=303.67           H34-C5-C4-H31= 60.51          H34-C5-C4-H32=180.56          C7-N6-C5-C4= 52.29            
C7-N6-C5-H33=172.05           C7-N6-C5-H34=289.67           C11-N6-C5-C4=177.63           C11-N6-C5-H33=297.39          
C11-N6-C5-H34= 55.02          C8-C7-N6-C5= 66.66            C8-C7-N6-C11=300.19           H35-C7-N6-C5=187.04           
H35-C7-N6-C11= 60.57          H36-C7-N6-C5=302.92           H36-C7-N6-C11=176.45          C9-C8-C7-N6= 58.10            
C9-C8-C7-H35=299.24           C9-C8-C7-H36=181.16           H37-C8-C7-N6=178.49           H37-C8-C7-H35= 59.64          
H37-C8-C7-H36=301.56          H38-C8-C7-N6=296.87           H38-C8-C7-H35=178.01          H38-C8-C7-H36= 59.93          
C10-C9-C8-C7=307.55           C10-C9-C8-H37=187.07          C10-C9-C8-H38= 68.15          C12-C9-C8-C7=185.12           
C12-C9-C8-H37= 64.64          C12-C9-C8-H38=305.72          H39-C9-C8-C7= 66.73           H39-C9-C8-H37=306.25          
H39-C9-C8-H38=187.33          C11-C10-C9-C8= 51.11          C11-C10-C9-C12=174.69         C11-C10-C9-H39=291.75         
H40-C10-C9-C8=289.80          H40-C10-C9-C12= 53.37         H40-C10-C9-H39=170.43         H41-C10-C9-C8=171.76          
H41-C10-C9-C12=295.33         H41-C10-C9-H39= 52.39         
           -------------------------------------------------
          |                Final Singlepoint                |
           -------------------------------------------------

          ...................................................
          :                      SETUP                      :
          :.................................................:
          :  # basis functions                 147          :
          :  # atomic orbitals                 147          :
          :  # shells                           87          :
          :  # electrons                       158          :
          :  max. iterations                   250          :
          :  Hamiltonian                  GFN2-xTB          :
          :  restarted?                      false          :
          :  GBSA solvation                  false          :
          :  PC potential                    false          :
          :  electronic temp.          300.0000000     K    :
          :  accuracy                    1.0000000          :
          :  -> integral cutoff          0.2500000E+02      :
          :  -> integral neglect         0.1000000E-07      :
          :  -> SCF convergence          0.1000000E-05 Eh   :
          :  -> wf. convergence          0.1000000E-03 e    :
          :  Broyden damping             0.4000000          :
          :  net charge                          0          :
          :  unpaired electrons                  0          :
          ...................................................

 iter      E             dE          RMSdq      gap      omega  full diag
   1    -88.8010748 -0.888011E+02  0.423E-05    2.07       0.0  T
   2    -88.8010748 -0.212736E-10  0.277E-05    2.07     478.5  T
   3    -88.8010748 -0.217568E-10  0.159E-05    2.07     834.2  T

   *** convergence criteria satisfied after 3 iterations ***

         #    Occupation            Energy/Eh            Energy/eV
      -------------------------------------------------------------
         1        2.0000           -0.8187832             -22.2802
       ...           ...                  ...                  ...
        73        2.0000           -0.4127800             -11.2323
        74        2.0000           -0.4034320             -10.9779
        75        2.0000           -0.4030419             -10.9673
        76        2.0000           -0.4000404             -10.8857
        77        2.0000           -0.3902355             -10.6188
        78        2.0000           -0.3882705             -10.5654
        79        2.0000           -0.3429997              -9.3335 (HOMO)
        80                         -0.2670852              -7.2678 (LUMO)
        81                         -0.2617573              -7.1228
        82                         -0.2317120              -6.3052
        83                         -0.2299494              -6.2572
        84                         -0.1939162              -5.2767
       ...                                ...                  ...
       147                          0.6889225              18.7465
      -------------------------------------------------------------
                  HL-Gap            0.0759145 Eh            2.0657 eV
             Fermi-level           -0.3050424 Eh           -8.3006 eV

 SCC (total)                   0 d,  0 h,  0 min,  0.069 sec
 SCC setup                      ...        0 min,  0.000 sec (  0.725%)
 Dispersion                     ...        0 min,  0.001 sec (  0.760%)
 classical contributions        ...        0 min,  0.000 sec (  0.379%)
 integral evaluation            ...        0 min,  0.012 sec ( 16.907%)
 iterations                     ...        0 min,  0.011 sec ( 15.762%)
 molecular gradient             ...        0 min,  0.045 sec ( 65.099%)
 printout                       ...        0 min,  0.000 sec (  0.360%)

         :::::::::::::::::::::::::::::::::::::::::::::::::::::
         ::                     SUMMARY                     ::
         :::::::::::::::::::::::::::::::::::::::::::::::::::::
         :: total energy             -87.646363897173 Eh    ::
         :: gradient norm              0.000324892509 Eh/a0 ::
         :: HOMO-LUMO gap              2.065738359572 eV    ::
         ::.................................................::
         :: SCC energy               -88.800418292159 Eh    ::
         :: -> isotropic ES            0.081600353478 Eh    ::
         :: -> anisotropic ES          0.005060990916 Eh    ::
         :: -> anisotropic XC          0.041085892244 Eh    ::
         :: -> dispersion             -0.064996465757 Eh    ::
         :: repulsion energy           1.154054394985 Eh    ::
         :: add. restraining           0.000000000000 Eh    ::
         :: total charge               0.000000000000 e     ::
         :::::::::::::::::::::::::::::::::::::::::::::::::::::

           -------------------------------------------------
          |                Property Printout                |
           -------------------------------------------------

    * Orbital Energies and Occupations

         #    Occupation            Energy/Eh            Energy/eV
      -------------------------------------------------------------
         1        2.0000           -0.8187832             -22.2802
       ...           ...                  ...                  ...
        67        2.0000           -0.4434948             -12.0681
        68        2.0000           -0.4412145             -12.0061
        69        2.0000           -0.4360607             -11.8658
        70        2.0000           -0.4325664             -11.7707
        71        2.0000           -0.4245810             -11.5534
        72        2.0000           -0.4220496             -11.4846
        73        2.0000           -0.4127800             -11.2323
        74        2.0000           -0.4034320             -10.9779
        75        2.0000           -0.4030419             -10.9673
        76        2.0000           -0.4000404             -10.8857
        77        2.0000           -0.3902355             -10.6188
        78        2.0000           -0.3882705             -10.5654
        79        2.0000           -0.3429997              -9.3335 (HOMO)
        80                         -0.2670852              -7.2678 (LUMO)
        81                         -0.2617573              -7.1228
        82                         -0.2317120              -6.3052
        83                         -0.2299494              -6.2572
        84                         -0.1939162              -5.2767
        85                         -0.1290553              -3.5118
        86                         -0.0984996              -2.6803
        87                         -0.0329243              -0.8959
        88                         -0.0089185              -0.2427
        89                          0.0287154               0.7814
        90                          0.0435391               1.1848
       ...                                ...                  ...
       147                          0.6889225              18.7465
      -------------------------------------------------------------
                  HL-Gap            0.0759145 Eh            2.0657 eV
             Fermi-level           -0.3050424 Eh           -8.3006 eV

     #   Z          covCN         q      C6AA      α(0)
     1   8 O        0.858    -0.476    23.257     6.466
     2   6 C        2.783     0.258    22.651     7.796
     3   6 C        2.962    -0.058    29.435     8.899
     4   6 C        3.808    -0.058    21.610     6.617
     5   6 C        3.758     0.017    20.341     6.430
     6   7 N        2.725    -0.184    24.987     7.424
     7   6 C        3.766     0.005    20.535     6.459
     8   6 C        3.806    -0.065    21.745     6.638
     9   6 C        3.861    -0.019    20.871     6.497
    10   6 C        3.807    -0.060    21.657     6.625
    11   6 C        3.774     0.006    20.512     6.453
    12   6 C        3.015     0.079    26.208     8.398
    13   7 N        1.957    -0.136    24.704     7.371
    14   8 O        1.801    -0.141    16.421     5.472
    15   6 C        3.057     0.134    25.021     8.203
    16   6 C        3.025    -0.031    28.751     8.795
    17   6 C        2.913    -0.030    28.754     8.793
    18   6 C        2.920    -0.054    29.353     8.885
    19   6 C        2.797     0.170    24.328     8.080
    20   9 F        0.787    -0.221    11.451     3.997
    21   6 C        2.905    -0.074    29.839     8.957
    22   6 C        2.947     0.094    25.902     8.347
    23   7 N        1.845    -0.278    28.050     7.849
    24   6 C        2.901     0.161    24.530     8.121
    25   7 N        2.754    -0.071    22.622     7.064
    26   6 C        3.757     0.003    20.585     6.469
    27   6 C        3.804    -0.064    21.726     6.636
    28   6 C        3.803    -0.059    21.636     6.622
    29   6 C        3.812    -0.074    21.900     6.661
    30   6 C        3.760    -0.119    22.822     6.810
    31   1 H        0.924     0.057     2.237     2.339
    32   1 H        0.925     0.045     2.388     2.416
    33   1 H        0.924     0.025     2.666     2.553
    34   1 H        0.923     0.027     2.631     2.536
    35   1 H        0.924     0.035     2.516     2.481
    36   1 H        0.925     0.038     2.478     2.462
    37   1 H        0.924     0.029     2.599     2.521
    38   1 H        0.925     0.052     2.292     2.368
    39   1 H        0.924     0.050     2.323     2.384
    40   1 H        0.924     0.035     2.520     2.483
    41   1 H        0.924     0.032     2.562     2.503
    42   1 H        0.924     0.037     2.483     2.464
    43   1 H        0.924     0.032     2.554     2.499
    44   1 H        0.926     0.080     1.984     2.202
    45   1 H        0.926     0.063     2.161     2.299
    46   1 H        0.926     0.073     2.057     2.243
    47   1 H        0.924     0.083     1.948     2.183
    48   1 H        0.924     0.051     2.308     2.376
    49   1 H        0.925     0.050     2.326     2.385
    50   1 H        0.924     0.046     2.370     2.407
    51   1 H        0.924     0.046     2.377     2.411
    52   1 H        0.925     0.046     2.366     2.406
    53   1 H        0.924     0.060     2.203     2.321
    54   1 H        0.925     0.071     2.078     2.254
    55   1 H        0.925     0.059     2.212     2.326
    56   1 H        0.925     0.068     2.105     2.269
    57   1 H        0.925     0.058     2.228     2.334

 Mol. C6AA /au·bohr⁶  :      34353.409471
 Mol. C8AA /au·bohr⁸  :     797694.227969
 Mol. α(0) /au        :        282.258244


Wiberg/Mayer (AO) data.
largest (>0.10) Wiberg bond orders for each atom

 ---------------------------------------------------------------------------
     #   Z sym  total        # sym  WBO       # sym  WBO       # sym  WBO
 ---------------------------------------------------------------------------
     1   8 O    1.969 --     2 C    1.611    25 N    0.136
     2   6 C    3.951 --     1 O    1.611     3 C    1.134    25 N    1.082
     3   6 C    3.983 --    22 C    1.548     2 C    1.134     4 C    1.012
     4   6 C    3.994 --     3 C    1.012     5 C    0.985    32 H    0.973
                            31 H    0.960
     5   6 C    3.986 --     6 N    0.998     4 C    0.985    33 H    0.973
                            34 H    0.959
     6   7 N    3.127 --     7 C    1.006    11 C    1.006     5 C    0.998
     7   6 C    3.987 --     6 N    1.006     8 C    0.993    35 H    0.971
                            36 H    0.968
     8   6 C    3.995 --     7 C    0.993     9 C    0.983    37 H    0.977
                            38 H    0.970
     9   6 C    3.993 --    12 C    1.005     8 C    0.983    10 C    0.977
                            39 H    0.963
    10   6 C    3.996 --    11 C    0.991    41 H    0.977     9 C    0.977
                            40 H    0.973
    11   6 C    3.986 --     6 N    1.006    10 C    0.991    43 H    0.972
                            42 H    0.971
    12   6 C    3.974 --    13 N    1.642    16 C    1.166     9 C    1.005
    13   7 N    2.951 --    12 C    1.642    14 O    1.055
    14   8 O    2.407 --    15 C    1.124    13 N    1.055
    15   6 C    3.936 --    21 C    1.331    16 C    1.278    14 O    1.124
    16   6 C    3.983 --    17 C    1.328    15 C    1.278    12 C    1.166
    17   6 C    3.985 --    18 C    1.508    16 C    1.328    44 H    0.956
                            21 C    0.116
    18   6 C    3.987 --    17 C    1.508    19 C    1.335    45 H    0.966
    19   6 C    3.887 --    21 C    1.448    18 C    1.335    20 F    0.963
    20   9 F    1.090 --    19 C    0.963
    21   6 C    3.984 --    19 C    1.448    15 C    1.331    46 H    0.963
                            17 C    0.116
[...]
   F. Musil, H. Neugebauer, J. Pisarek, C. Plett, P. Pracht, F. Pultar,
   J. Seibert, P. Shushkov, S. Spicher, M. Stahn, M. Steiner, T. Strunk,
   J. Stückrath, T. Rose, and J. Unsleber
   
 * started run on 2025/05/15 at 16:38:11.433     
   ID    Z sym.   atoms
    1    8 O      1, 14
    2    6 C      2-5, 7-12, 15-19, 21, 22, 24, 26-30
    3    7 N      6, 13, 23, 25
    4    9 F      20
    5    1 H      31-57

           -------------------------------------------------
          |                Calculation Setup                |
           -------------------------------------------------

          program call               : xtb /rds/general/user/hgt20/home/callum/QDESCP/Risperidone_rdkit_conf_22/Risperidone_rdkit_conf_22.xyz --acc 1 --gfn 2 --chrg 0 --uhf 2 --etemp 300 --input /rds/general/user/hgt20/home/callum/QDESCP/Risperidone_rdkit_conf_22/Risperidone_rdkit_conf_22_xtb.inp -P 1
          hostname                   : login-c
          coordinate file            : /rds/general/user/hgt20/home/callum/QDESCP/Risperidone_rdkit_conf_22/Risperidone_rdkit_conf_22.xyz
          omp threads                :                     1


           -------------------------------------------------
          |                 G F N 2 - x T B                 |
           -------------------------------------------------

        Reference                      10.1021/acs.jctc.8b01176
      * Hamiltonian:
        H0-scaling (s, p, d)           1.850000    2.230000    2.230000
        zeta-weighting                 0.500000
      * Dispersion:
        s8                             2.700000
        a1                             0.520000
        a2                             5.000000
        s9                             5.000000
      * Repulsion:
        kExp                           1.500000    1.000000
        rExp                           1.000000
      * Coulomb:
        alpha                          2.000000
        third order                    shell-resolved
        anisotropic                    true
        a3                             3.000000
        a5                             4.000000
        cn-shift                       1.200000
        cn-exp                         4.000000
        max-rad                        5.000000


          ...................................................
          :                      SETUP                      :
          :.................................................:
          :  # basis functions                 147          :
          :  # atomic orbitals                 147          :
          :  # shells                           87          :
          :  # electrons                       158          :
          :  max. iterations                   250          :
          :  Hamiltonian                  GFN2-xTB          :
          :  restarted?                      false          :
          :  GBSA solvation                  false          :
          :  PC potential                    false          :
          :  electronic temp.          300.0000000     K    :
          :  accuracy                    1.0000000          :
          :  -> integral cutoff          0.2500000E+02      :
          :  -> integral neglect         0.1000000E-07      :
          :  -> SCF convergence          0.1000000E-05 Eh   :
          :  -> wf. convergence          0.1000000E-03 e    :
          :  Broyden damping             0.4000000          :
          :  net charge                          0          :
          :  unpaired electrons                  2          :
          ...................................................

 iter      E             dE          RMSdq      gap      omega  full diag
   1    -88.3675229 -0.883675E+02  0.354E+00    0.15       0.0  T
   2    -88.3046674  0.628555E-01  0.309E+00    0.98       1.0  T
   3    -88.4057764 -0.101109E+00  0.208E+00    1.05       1.0  T
   4    -88.4563237 -0.505473E-01  0.168E+00    0.95       1.0  T
   5    -88.4817006 -0.253769E-01  0.124E+00    0.41       1.0  T
   6    -88.5450405 -0.633399E-01  0.118E+00    0.49       1.0  T
   7    -88.5702146 -0.251741E-01  0.867E-01    0.34       1.0  T
   8    -88.5594699  0.107447E-01  0.974E-01    0.29       1.0  T
   9    -88.6361621 -0.766923E-01  0.577E-01    0.09       1.0  T
  10    -88.6668845 -0.307224E-01  0.286E-01    0.00       1.0  T
  11    -88.6783778 -0.114933E-01  0.156E-01    0.03       1.0  T
  12    -88.6634081  0.149697E-01  0.353E-01    0.04       1.0  T
  13    -88.6730388 -0.963070E-02  0.206E-01    0.04       1.0  T
  14    -88.6746583 -0.161948E-02  0.182E-01    0.00       1.0  T
  15    -88.6802383 -0.558004E-02  0.227E-02    0.02       1.0  T
  16    -88.6798187  0.419650E-03  0.537E-02    0.02       1.0  T
  17    -88.6799666 -0.147852E-03  0.437E-02    0.03       1.0  T
  18    -88.6802078 -0.241271E-03  0.229E-02    0.02       1.0  T
  19    -88.6802702 -0.623754E-04  0.120E-02    0.02       1.1  T
  20    -88.6802891 -0.188631E-04  0.626E-03    0.02       2.1  T
  21    -88.6802959 -0.679497E-05  0.648E-04    0.02      20.4  T
  22    -88.6802959 -0.190153E-07  0.409E-04    0.02      32.4  T
  23    -88.6802958  0.561710E-07  0.674E-04    0.02      19.7  T

   *** convergence criteria satisfied after 23 iterations ***

         #    Occupation            Energy/Eh            Energy/eV
      -------------------------------------------------------------
         1        2.0000           -0.8026617             -21.8415
       ...           ...                  ...                  ...
        74        2.0000           -0.3957644             -10.7693
        75        1.9802           -0.3900567             -10.6140
        76        1.9729           -0.3897510             -10.6057
        77        1.9121           -0.3885730             -10.5736
        78        1.8467           -0.3879744             -10.5573
        79        1.2883           -0.3854923             -10.4898
        80        0.6019           -0.2508004              -6.8246 (HOMO)
        81        0.3981           -0.2500150              -6.8033 (LUMO)
        82                         -0.2266251              -6.1668
        83                         -0.2125683              -5.7843
        84                         -0.1786195              -4.8605
        85                         -0.1234764              -3.3600
       ...                                ...                  ...
       147                          0.7050121              19.1844
      -------------------------------------------------------------
                  HL-Gap            0.0007855 Eh            0.0214 eV
             Fermi-level           -0.3183793 Eh           -8.6635 eV

 transition dipole moment (au) for excitation:          79          80
     X       Y       Z   
   0.9370   0.3376   0.4000  total (au/Debye):    1.073   2.728
 dE (eV)             :    3.665
 oscillator strength :  0.14628E+00

 SCC (total)                   0 d,  0 h,  0 min,  0.148 sec
 SCC setup                      ...        0 min,  0.001 sec (  0.374%)
 Dispersion                     ...        0 min,  0.001 sec (  0.556%)
 classical contributions        ...        0 min,  0.000 sec (  0.175%)
 integral evaluation            ...        0 min,  0.012 sec (  8.193%)
 iterations                     ...        0 min,  0.084 sec ( 56.375%)
 molecular gradient             ...        0 min,  0.041 sec ( 27.545%)
 printout                       ...        0 min,  0.010 sec (  6.777%)

         :::::::::::::::::::::::::::::::::::::::::::::::::::::
         ::                     SUMMARY                     ::
         :::::::::::::::::::::::::::::::::::::::::::::::::::::
         :: total energy             -87.525584871123 Eh    ::
         :: gradient norm              0.111506443232 Eh/a0 ::
         :: HOMO-LUMO gap              0.021373420634 eV    ::
         ::.................................................::
         :: SCC energy               -88.679639266108 Eh    ::
         :: -> isotropic ES            0.077676467896 Eh    ::
         :: -> anisotropic ES          0.003209449981 Eh    ::
         :: -> anisotropic XC          0.035809545625 Eh    ::
         :: -> dispersion             -0.064659275964 Eh    ::
         :: repulsion energy           1.154054394985 Eh    ::
         :: add. restraining           0.000000000000 Eh    ::
         :: total charge               0.000000000157 e     ::
         :::::::::::::::::::::::::::::::::::::::::::::::::::::

           -------------------------------------------------
          |                Property Printout                |
           -------------------------------------------------

    * Orbital Energies and Occupations

         #    Occupation            Energy/Eh            Energy/eV
      -------------------------------------------------------------
         1        2.0000           -0.8026617             -21.8415
       ...           ...                  ...                  ...
        68        2.0000           -0.4388812             -11.9426
        69        2.0000           -0.4380836             -11.9209
        70        2.0000           -0.4292168             -11.6796
        71        2.0000           -0.4256598             -11.5828
        72        2.0000           -0.4222574             -11.4902
        73        2.0000           -0.4026903             -10.9578
        74        2.0000           -0.3957644             -10.7693
        75        1.9802           -0.3900567             -10.6140
        76        1.9729           -0.3897510             -10.6057
        77        1.9121           -0.3885730             -10.5736
        78        1.8467           -0.3879744             -10.5573
        79        1.2883           -0.3854923             -10.4898
        80        0.6019           -0.2508004              -6.8246 (HOMO)
        81        0.3981           -0.2500150              -6.8033 (LUMO)
        82                         -0.2266251              -6.1668
        83                         -0.2125683              -5.7843
        84                         -0.1786195              -4.8605
        85                         -0.1234764              -3.3600
        86                         -0.0812825              -2.2118
        87                         -0.0219768              -0.5980
        88                         -0.0071808              -0.1954
        89                          0.0059801               0.1627
        90                          0.0405004               1.1021
        91                          0.0506966               1.3795
       ...                                ...                  ...
       147                          0.7050121              19.1844
      -------------------------------------------------------------
                  HL-Gap            0.0007855 Eh            0.0214 eV
             Fermi-level           -0.3183793 Eh           -8.6635 eV

     #   Z          covCN         q      C6AA      α(0)
     1   8 O        0.858    -0.456    22.831     6.406
     2   6 C        2.783     0.251    22.795     7.820
     3   6 C        2.962    -0.063    29.569     8.919
     4   6 C        3.808    -0.057    21.597     6.615
     5   6 C        3.758     0.004    20.556     6.464
     6   7 N        2.725    -0.102    23.243     7.160
     7   6 C        3.766    -0.003    20.671     6.480
     8   6 C        3.806    -0.066    21.755     6.640
     9   6 C        3.861    -0.020    20.893     6.500
    10   6 C        3.807    -0.062    21.684     6.629
    11   6 C        3.774    -0.003    20.657     6.476
    12   6 C        3.015     0.062    26.594     8.459
    13   7 N        1.957    -0.160    25.232     7.449
    14   8 O        1.801    -0.148    16.524     5.489
    15   6 C        3.057     0.131    25.074     8.212
    16   6 C        3.025    -0.042    29.012     8.835
    17   6 C        2.913    -0.048    29.199     8.861
    18   6 C        2.920    -0.058    29.429     8.896
    19   6 C        2.797     0.158    24.567     8.119
    20   9 F        0.787    -0.229    11.535     4.012
    21   6 C        2.905    -0.081    30.031     8.986
    22   6 C        2.947     0.064    26.566     8.454
    23   7 N        1.845    -0.251    27.379     7.755
    24   6 C        2.901     0.136    25.036     8.204
    25   7 N        2.754    -0.090    22.990     7.121
    26   6 C        3.757     0.005    20.550     6.463
    27   6 C        3.804    -0.063    21.710     6.633
    28   6 C        3.803    -0.058    21.624     6.620
    29   6 C        3.812    -0.071    21.854     6.654
    30   6 C        3.760    -0.115    22.739     6.798
    31   1 H        0.924     0.060     2.199     2.319
    32   1 H        0.925     0.051     2.310     2.377
    33   1 H        0.924     0.044     2.392     2.419
    34   1 H        0.923     0.069     2.100     2.266
    35   1 H        0.924     0.050     2.322     2.383
    36   1 H        0.925     0.054     2.266     2.354
    37   1 H        0.924     0.046     2.371     2.408
    38   1 H        0.925     0.065     2.143     2.289
    39   1 H        0.924     0.051     2.302     2.373
    40   1 H        0.924     0.047     2.360     2.403
    41   1 H        0.924     0.048     2.341     2.393
    42   1 H        0.924     0.052     2.290     2.366
    43   1 H        0.924     0.047     2.356     2.400
    44   1 H        0.926     0.058     2.225     2.333
    45   1 H        0.926     0.053     2.283     2.363
    46   1 H        0.926     0.062     2.171     2.304
    47   1 H        0.924     0.079     1.994     2.208
    48   1 H        0.924     0.047     2.361     2.403
    49   1 H        0.925     0.046     2.372     2.409
    50   1 H        0.924     0.044     2.399     2.422
    51   1 H        0.924     0.042     2.427     2.436
    52   1 H        0.925     0.043     2.403     2.424
    53   1 H        0.924     0.053     2.277     2.360
    54   1 H        0.925     0.064     2.155     2.296
    55   1 H        0.925     0.047     2.358     2.401
    56   1 H        0.925     0.064     2.157     2.297
    57   1 H        0.925     0.048     2.342     2.393

 Mol. C6AA /au·bohr⁶  :      34268.353141
 Mol. C8AA /au·bohr⁸  :     797050.398144
 Mol. α(0) /au        :        281.929971


Wiberg/Mayer (AO) data.
largest (>0.10) Wiberg bond orders for each atom

 ---------------------------------------------------------------------------
     #   Z sym  total        # sym  WBO       # sym  WBO       # sym  WBO
 ---------------------------------------------------------------------------
     1   8 O    1.906 --     2 C    1.574
     2   6 C    3.917 --     1 O    1.574     3 C    1.182    25 N    1.050
     3   6 C    3.753 --    22 C    1.287     2 C    1.182     4 C    1.021
     4   6 C    3.984 --     3 C    1.021     5 C    0.973    32 H    0.968
                            31 H    0.957
     5   6 C    3.956 --     6 N    1.013     4 C    0.973    33 H    0.968
                            34 H    0.929
     6   7 N    3.206 --     5 C    1.013     7 C    1.009    11 C    1.005
     7   6 C    3.967 --     6 N    1.009     8 C    0.973    35 H    0.968
                            36 H    0.963
     8   6 C    3.967 --     9 C    0.987    37 H    0.973     7 C    0.973
                            38 H    0.967
     9   6 C    3.989 --    12 C    0.994     8 C    0.987    10 C    0.982
                            39 H    0.962
    10   6 C    3.963 --     9 C    0.982    11 C    0.974    41 H    0.973
                            40 H    0.969
    11   6 C    3.967 --     6 N    1.005    10 C    0.974    43 H    0.970
                            42 H    0.968
    12   6 C    3.864 --    13 N    1.516    16 C    1.208     9 C    0.994
    13   7 N    2.772 --    12 C    1.516    14 O    1.049
    14   8 O    2.358 --    15 C    1.114    13 N    1.049
    15   6 C    3.928 --    21 C    1.345    16 C    1.272    14 O    1.114
    16   6 C    3.942 --    15 C    1.272    17 C    1.266    12 C    1.208
    17   6 C    3.819 --    18 C    1.460    16 C    1.266    44 H    0.958
    18   6 C    3.972 --    17 C    1.460    19 C    1.368    45 H    0.968
    19   6 C    3.782 --    18 C    1.368    21 C    1.348    20 F    0.954
    20   9 F    1.067 --    19 C    0.954
    21   6 C    3.843 --    19 C    1.348    15 C    1.345    46 H    0.964
    22   6 C    3.771 --    23 N    1.292     3 C    1.287    30 C    1.024
    23   7 N    2.978 --    24 C    1.459    22 C    1.292
    24   6 C    3.802 --    23 N    1.459    25 N    1.171    29 C    1.012
    25   7 N    3.454 --    24 C    1.171     2 C    1.050    26 C    0.984
    26   6 C    3.962 --    27 C    0.997    25 N    0.984    47 H    0.963
                            48 H    0.962
    27   6 C    3.990 --    28 C    1.003    26 C    0.997    50 H    0.980
                            49 H    0.977
    28   6 C    3.989 --    27 C    1.003    29 C    0.989    52 H    0.981
                            51 H    0.980
    29   6 C    3.989 --    24 C    1.012    28 C    0.989    54 H    0.974
                            53 H    0.952
    30   6 C    3.989 --    22 C    1.024    56 H    0.983    55 H    0.968
                            57 H    0.966
    31   1 H    0.991 --     4 C    0.957
    32   1 H    0.993 --     4 C    0.968
    33   1 H    0.996 --     5 C    0.968
    34   1 H    0.979 --     5 C    0.929
    35   1 H    0.994 --     7 C    0.968
    36   1 H    0.994 --     7 C    0.963
    37   1 H    0.996 --     8 C    0.973
    38   1 H    0.995 --     8 C    0.967
    39   1 H    0.995 --     9 C    0.962
    40   1 H    0.997 --    10 C    0.969
    41   1 H    0.996 --    10 C    0.973
    42   1 H    0.994 --    11 C    0.968
    43   1 H    0.995 --    11 C    0.970
    44   1 H    0.996 --    17 C    0.958
    45   1 H    0.997 --    18 C    0.968
    46   1 H    0.995 --    21 C    0.964
    47   1 H    0.992 --    26 C    0.963
    48   1 H    0.992 --    26 C    0.962
    49   1 H    0.997 --    27 C    0.977
    50   1 H    0.998 --    27 C    0.980
    51   1 H    0.997 --    28 C    0.980
    52   1 H    0.997 --    28 C    0.981
    53   1 H    0.988 --    29 C    0.952
    54   1 H    0.995 --    29 C    0.974
    55   1 H    0.990 --    30 C    0.968
    56   1 H    0.995 --    30 C    0.983
    57   1 H    0.989 --    30 C    0.966
 ---------------------------------------------------------------------------

Topologies differ in total number of bonds
Writing topology from bond orders to xtbtopo.mol

molecular dipole:
                 x           y           z       tot (Debye)
 q only:       -2.507       1.855      -0.111
   full:       -2.501       1.449      -0.191       7.363
molecular quadrupole (traceless):
                xx          xy          yy          xz          yz          zz
 q only:      -20.541      25.287      12.156       1.829       2.366       8.385
  q+dip:      -27.133      23.326      13.840      -0.368       3.283      13.293
   full:      -29.090      23.610      12.755      -1.657       1.695      16.335


           -------------------------------------------------
          | TOTAL ENERGY              -87.525584871123 Eh   |
          | GRADIENT NORM               0.111506443232 Eh/α |
          | HOMO-LUMO GAP               0.021373420634 eV   |
           -------------------------------------------------

------------------------------------------------------------------------
 * finished run on 2025/05/15 at 16:38:11.599     
------------------------------------------------------------------------
 total:
 * wall-time:     0 d,  0 h,  0 min,  0.166 sec
 *  cpu-time:     0 d,  0 h,  0 min,  0.164 sec
 * ratio c/w:     0.990 speedup
 SCF:
 * wall-time:     0 d,  0 h,  0 min,  0.149 sec
 *  cpu-time:     0 d,  0 h,  0 min,  0.148 sec
 * ratio c/w:     0.996 speedup


