57
 energy: -87.646363897173 gnorm: 0.000324892509 xtb: 6.7.1 (edcfbbe)
O           -0.63232203304163       -0.85649394940566        0.50378525421184
C           -1.74215366374288       -0.44467044895486        0.19518754041098
C           -2.21600794157282        0.90938270276192        0.35524731945350
C           -1.24384425699316        1.86463238245699        0.98308899859706
C           -0.14112982075388        2.20151716249909       -0.02452286699153
N            0.83937190033206        3.15949061349386        0.46782071183764
C            1.44874422631537        2.84033388246640        1.74649621933236
C            2.33820830974525        1.59343130533669        1.70342166903156
C            3.44368895890048        1.79229210002169        0.66015662755970
C            2.84175840292468        2.20557478981217       -0.69147604162392
C            1.88571943883473        3.39375363169616       -0.51158129826312
C            4.26564787962266        0.56186729322072        0.48873145225974
N            5.55759436186045        0.60473679146536        0.60136126552470
O            6.07931815447019       -0.63819607626760        0.35852217979118
C            5.06347265485233       -1.47326214098006        0.08438230539651
C            3.84208438614963       -0.77139111886914        0.15236594479166
C            2.64219749407894       -1.44287180642232       -0.08838715084462
C            2.70243370276777       -2.78163752979609       -0.39915782122121
C            3.93196598734884       -3.43971632324467       -0.46621083901840
F            3.92936856988051       -4.75158637788433       -0.77944978888926
C            5.14002420774595       -2.82336520686551       -0.22757068413984
C           -3.47160430379492        1.24110111026264       -0.06870669231293
N           -4.31245511724406        0.32445992147414       -0.61825587244468
C           -3.90674674883583       -0.89413384784532       -0.74381249373252
N           -2.67633282920921       -1.31471819820993       -0.37277942693157
C           -2.37306219377385       -2.72439750062654       -0.49177059960616
C           -3.49581147455211       -3.52085819383075        0.16856649142884
C           -4.85584415094733       -3.19599242062542       -0.47127499866192
C           -4.78968341304085       -1.93494241733316       -1.34780603373424
C           -4.03750807030315        2.62183241083436        0.03511601099374
H           -0.80077030700488        1.35454097943310        1.84055139719516
H           -1.73525200992527        2.77522407793388        1.31980032859080
H           -0.60093377620110        2.65738306298800       -0.90905579424282
H            0.31446373822670        1.25277644176836       -0.33930398179224
H            2.05418843929838        3.70744218104556        2.03047316332401
H            0.66760317696191        2.72602920169757        2.49835941587216
H            2.78533130501041        1.42414509432943        2.68458744794443
H            1.73153302048143        0.72282515540532        1.45556578321074
H            4.11410457195778        2.58880699317120        1.00148214289280
H            2.30754128270298        1.36048051411378       -1.12891361765491
H            3.64241401388886        2.48416540494335       -1.37866591884544
H            2.45524606897697        4.26612175994902       -0.17644118702129
H            1.41866731786780        3.64088237588291       -1.46842008675848
H            1.68391953583244       -0.95359544811533       -0.02171791784002
H            1.80307902288121       -3.34429182310967       -0.59139405041943
H            6.07518313580138       -3.35368132939237       -0.27933216411989
H           -1.41539105592089       -2.88839315633691        0.00843150067802
H           -2.27329219036289       -2.99424785370471       -1.54809032534313
H           -3.27477388997142       -4.58482509456111        0.09098590923069
H           -3.51254109634841       -3.26128926391596        1.22869847609781
H           -5.19560794220957       -4.02826915016423       -1.08833321055313
H           -5.59907517358255       -3.04435043933367        0.31162876088529
H           -4.37826087828579       -2.19589745508740       -2.32721703486040
H           -5.78024884700679       -1.51010740535004       -1.49992335010108
H           -3.39137407842761        3.34055909187171       -0.46375215437655
H           -5.01919996399835        2.63430542841101       -0.42821047116094
H           -4.13374603866119        2.91688811547791        1.07841955696608
