29
 energy: -55.286223684813 gnorm: 0.000208596154 xtb: 6.7.1 (edcfbbe)
O           -2.49014231836221        2.45796791915442        0.72398402315275
C           -1.60886736577552        1.55872534785641        1.33868454716239
C           -1.99276931632334        0.10576827711199        1.03439586196316
C           -1.08348190448259       -0.92470914314190        1.73639967692309
C           -0.77573058467949       -1.95031170828801        0.62604047115244
C           -0.92122594338664       -1.09711672900577       -0.64427067304698
N            0.34221044442145       -0.47962931614857       -0.98522639944704
C            0.92255985502669       -0.30436544189149       -2.19040648132624
N            2.05155011742223        0.33890038181139       -2.05860048234601
C            2.14025316489043        0.56077177473404       -0.71915878140112
C            3.28275818018697        1.27486685397465       -0.09580420895769
N            4.20489309143969        1.63565974357092       -1.01274274930039
O            3.37123343831035        1.50096445098937        1.08979085053519
N            1.11754193241741        0.07533960874902       -0.05031165272496
O           -1.88838971209064       -0.13034213987847       -0.37362537738915
O           -1.69846350969045       -2.99473402305641        0.59279754321627
O           -1.70876985227764       -1.59010930787228        2.80456278178576
H           -2.54990535920500        2.21888563198554       -0.20916330729420
H           -0.57228747254854        1.72734898746649        1.01227653656571
H           -1.67625194773129        1.74737571950449        2.41279292356722
H           -3.04345169922042       -0.06268725877640        1.30662107680073
H           -0.14919723947614       -0.44491027615190        2.05092284550279
H            0.24649977845350       -2.34268798869544        0.71939105052759
H           -1.25299353180551       -1.69290549677053       -1.50059789839189
H            0.50191838072693       -0.65464526249699       -3.10989941225469
H            5.03143867389539        2.12891799201066       -0.72152331131757
H            4.05318625190405        1.41513378563282       -1.98225258201635
H           -2.04721842479618       -3.09489381798751        1.49082845294208
H           -1.80709712724462       -0.98267856438833        3.54369467541708
