----- Optimization -----
      -----------------------------------------------------------      
     |                   =====================                   |     
     |                           x T B                           |     
     |                   =====================                   |     
     |                         S. Grimme                         |     
     |          Mulliken Center for Theoretical Chemistry        |     
     |                    University of Bonn                     |     
      -----------------------------------------------------------      

   * xtb version 6.7.1 (edcfbbe) compiled by 'conda@3ef47c1a292c' on 2024-11-25

   xtb is free software: you can redistribute it and/or modify it under
   the terms of the GNU Lesser General Public License as published by
   the Free Software Foundation, either version 3 of the License, or
   (at your option) any later version.
   
   xtb is distributed in the hope that it will be useful,
   but WITHOUT ANY WARRANTY; without even the implied warranty of
   MERCHANTABILITY or FITNESS FOR A PARTICULAR PURPOSE.  See the
   GNU Lesser General Public License for more details.
   
   Cite this work as:
   * C. Bannwarth, E. Caldeweyher, S. Ehlert, A. Hansen, P. Pracht,
     J. Seibert, S. Spicher, S. Grimme, WIREs Comput. Mol. Sci., 2020, 11,
     e01493. DOI: 10.1002/wcms.1493
   
   for GFN2-xTB:
   * C. Bannwarth, S. Ehlert and S. Grimme., J. Chem. Theory Comput., 2019,
     15, 1652-1671. DOI: 10.1021/acs.jctc.8b01176
   for GFN1-xTB:
   * S. Grimme, C. Bannwarth, P. Shushkov, J. Chem. Theory Comput., 2017,
     13, 1989-2009. DOI: 10.1021/acs.jctc.7b00118
   for GFN0-xTB:
   * P. Pracht, E. Caldeweyher, S. Ehlert, S. Grimme, ChemRxiv, 2019, preprint.
     DOI: 10.26434/chemrxiv.8326202.v1
   for GFN-FF:
   * S. Spicher and S. Grimme, Angew. Chem. Int. Ed., 2020, 59, 15665-15673.
     DOI: 10.1002/anie.202004239
   
   for ALPB and GBSA implicit solvation:
   * S. Ehlert, M. Stahn, S. Spicher, S. Grimme, J. Chem. Theory Comput.,
     2021, 17, 4250-4261. DOI: 10.1021/acs.jctc.1c00471
   
   for ddCOSMO and CPCM-X implicit solvation:
   * M. Stahn, S. Ehlert, S. Grimme, J. Phys. Chem. A,
     2023, XX, XXXX-XXXX. DOI: 10.1021/acs.jpca.3c04382
   
   for DFT-D4:
   * E. Caldeweyher, C. Bannwarth and S. Grimme, J. Chem. Phys., 2017,
     147, 034112. DOI: 10.1063/1.4993215
   * E. Caldeweyher, S. Ehlert, A. Hansen, H. Neugebauer, S. Spicher,
     C. Bannwarth and S. Grimme, J. Chem. Phys., 2019, 150, 154122.
     DOI: 10.1063/1.5090222
   * E. Caldeweyher, J.-M. Mewes, S. Ehlert and S. Grimme, Phys. Chem. Chem. Phys.
     2020, 22, 8499-8512. DOI: 10.1039/D0CP00502A
   
   for sTDA-xTB:
   * S. Grimme and C. Bannwarth, J. Chem. Phys., 2016, 145, 054103.
     DOI: 10.1063/1.4959605
   
   in the mass-spec context:
   * V. Asgeirsson, C. Bauer and S. Grimme, Chem. Sci., 2017, 8, 4879.
     DOI: 10.1039/c7sc00601b
   * J. Koopman and S. Grimme, ACS Omega 2019, 4, 12, 15120-15133.
     DOI: 10.1021/acsomega.9b02011
   
   for metadynamics refer to:
   * S. Grimme, J. Chem. Theory Comput., 2019, 155, 2847-2862
     DOI: 10.1021/acs.jctc.9b00143
   
   for SPH calculations refer to:
   * S. Spicher and S. Grimme, J. Chem. Theory Comput., 2021, 17, 1701-1714
     DOI: 10.1021/acs.jctc.0c01306
   
   for ONIOM refer to:
   * C. Plett, A. Katbashev, S. Ehlert, S. Grimme, M. Bursch,
     Phys. Chem. Chem. Phys., 2023, 25, 17860-17868. DOI: 10.1039/D3CP02178E
   
   for DIPRO refer to:
   * J. Kohn, N. Gildemeister, S. Grimme, D. Fazzi, A. Hansen,
     J. Chem. Phys., 2023, just accepted.
   
   for PTB refer to:
   * S. Grimme, M. Mueller, A. Hansen, J. Chem. Phys., 2023, 158, 124111.
     DOI: 10.1063/5.0137838
   
   with help from (in alphabetical order)
   P. Atkinson, C. Bannwarth, F. Bohle, G. Brandenburg, E. Caldeweyher
   M. Checinski, S. Dohm, S. Ehlert, S. Ehrlich, I. Gerasimov, C. Hölzer
   A. Katbashev, J. Kohn, J. Koopman, C. Lavigne, S. Lehtola, F. März, M. Müller,
   F. Musil, H. Neugebauer, J. Pisarek, C. Plett, P. Pracht, F. Pultar,
   J. Seibert, P. Shushkov, S. Spicher, M. Stahn, M. Steiner, T. Strunk,
   J. Stückrath, T. Rose, and J. Unsleber
   
 * started run on 2025/05/15 at 16:13:36.583     
   ID    Z sym.   atoms
    1    7 N      1, 3, 5
    2    6 C      2, 4, 6, 7, 9, 11, 13, 14
    3   16 S      8
    4    8 O      10, 12, 15
    5    1 H      16-26

           -------------------------------------------------
          |                Calculation Setup                |
           -------------------------------------------------

          program call               : xtb /rds/general/user/hgt20/home/callum/QDESCP/Lamivudine_rdkit_conf_3/Lamivudine_rdkit_conf_3.xyz --opt normal --acc 1 --gfn 2 --chrg 0 --uhf 0 -P 1
          hostname                   : login-c
          coordinate file            : /rds/general/user/hgt20/home/callum/QDESCP/Lamivudine_rdkit_conf_3/Lamivudine_rdkit_conf_3.xyz
          omp threads                :                     1


           -------------------------------------------------
          |                 G F N 2 - x T B                 |
           -------------------------------------------------

        Reference                      10.1021/acs.jctc.8b01176
      * Hamiltonian:
        H0-scaling (s, p, d)           1.850000    2.230000    2.230000
        zeta-weighting                 0.500000
      * Dispersion:
        s8                             2.700000
        a1                             0.520000
        a2                             5.000000
        s9                             5.000000
      * Repulsion:
        kExp                           1.500000    1.000000
        rExp                           1.000000
      * Coulomb:
        alpha                          2.000000
        third order                    shell-resolved
        anisotropic                    true
        a3                             3.000000
        a5                             4.000000
        cn-shift                       1.200000
        cn-exp                         4.000000
        max-rad                        5.000000


          ...................................................
          :                      SETUP                      :
          :.................................................:
          :  # basis functions                  77          :
          :  # atomic orbitals                  76          :
          :  # shells                           42          :
          :  # electrons                        82          :
          :  max. iterations                   250          :
          :  Hamiltonian                  GFN2-xTB          :
          :  restarted?                      false          :
          :  GBSA solvation                  false          :
          :  PC potential                    false          :
          :  electronic temp.          300.0000000     K    :
          :  accuracy                    1.0000000          :
          :  -> integral cutoff          0.2500000E+02      :
          :  -> integral neglect         0.1000000E-07      :
          :  -> SCF convergence          0.1000000E-05 Eh   :
          :  -> wf. convergence          0.1000000E-03 e    :
          :  Broyden damping             0.4000000          :
          :  net charge                          0          :
          :  unpaired electrons                  0          :
          ...................................................

 iter      E             dE          RMSdq      gap      omega  full diag
   1    -47.3171204 -0.473171E+02  0.511E+00    3.46       0.0  T
   2    -47.4199159 -0.102795E+00  0.294E+00    3.19       1.0  T
   3    -47.4164865  0.342937E-02  0.137E+00    2.83       1.0  T
   4    -47.4280641 -0.115776E-01  0.552E-01    2.66       1.0  T
   5    -47.4330940 -0.502986E-02  0.166E-01    2.67       1.0  T
   6    -47.4331880 -0.939726E-04  0.673E-02    2.69       1.0  T
   7    -47.4332066 -0.186068E-04  0.226E-02    2.70       1.0  T
   8    -47.4332082 -0.167723E-05  0.110E-02    2.70       1.8  T
   9    -47.4332084 -0.124414E-06  0.395E-03    2.70       5.0  T
  10    -47.4332084 -0.385767E-07  0.156E-03    2.70      12.5  T
  11    -47.4332084 -0.116311E-07  0.628E-04    2.70      31.3  T
  12    -47.4332084 -0.130212E-08  0.300E-04    2.70      65.4  T

   *** convergence criteria satisfied after 12 iterations ***

         #    Occupation            Energy/Eh            Energy/eV
      -------------------------------------------------------------
         1        2.0000           -0.7500641             -20.4103
       ...           ...                  ...                  ...
        35        2.0000           -0.4513996             -12.2832
        36        2.0000           -0.4301734             -11.7056
        37        2.0000           -0.4244340             -11.5494
        38        2.0000           -0.4126552             -11.2289
        39        2.0000           -0.4090343             -11.1304
        40        2.0000           -0.3943924             -10.7320
        41        2.0000           -0.3763290             -10.2404 (HOMO)
        42                         -0.2771466              -7.5415 (LUMO)
        43                         -0.2356982              -6.4137
        44                         -0.2328925              -6.3373
        45                         -0.1536128              -4.1800
        46                         -0.1417042              -3.8560
       ...                                ...                  ...
        76                          0.6367129              17.3258
      -------------------------------------------------------------
                  HL-Gap            0.0991824 Eh            2.6989 eV
             Fermi-level           -0.3267378 Eh           -8.8910 eV

 SCC (total)                   0 d,  0 h,  0 min,  0.029 sec
 SCC setup                      ...        0 min,  0.000 sec (  0.876%)
 Dispersion                     ...        0 min,  0.000 sec (  0.642%)
 classical contributions        ...        0 min,  0.000 sec (  0.232%)
 integral evaluation            ...        0 min,  0.004 sec ( 15.014%)
 iterations                     ...        0 min,  0.013 sec ( 45.603%)
 molecular gradient             ...        0 min,  0.011 sec ( 37.251%)
 printout                       ...        0 min,  0.000 sec (  0.359%)

         :::::::::::::::::::::::::::::::::::::::::::::::::::::
         ::                     SUMMARY                     ::
         :::::::::::::::::::::::::::::::::::::::::::::::::::::
         :: total energy             -46.968881779321 Eh    ::
         :: gradient norm              0.092926128223 Eh/a0 ::
         :: HOMO-LUMO gap              2.698889759801 eV    ::
         ::.................................................::
         :: SCC energy               -47.433166556692 Eh    ::
         :: -> isotropic ES            0.105718726015 Eh    ::
         :: -> anisotropic ES          0.003171719702 Eh    ::
         :: -> anisotropic XC          0.015219720784 Eh    ::
         :: -> dispersion             -0.025813887448 Eh    ::
         :: repulsion energy           0.464284777371 Eh    ::
         :: add. restraining           0.000000000000 Eh    ::
         :: total charge               0.000000000000 e     ::
         :::::::::::::::::::::::::::::::::::::::::::::::::::::

      ----------------------------------------------------------- 
     |                   =====================                   |
     |                        A N C O P T                        |
     |                   =====================                   |
     |               Approximate Normal Coordinate               |
     |                Rational Function Optimizer                |
      ----------------------------------------------------------- 
      ----------------------------------------------------------- 
     |                   =====================                   |
     |                        A N C O P T                        |
     |                   =====================                   |
     |               Approximate Normal Coordinate               |
     |                Rational Function Optimizer                |
      ----------------------------------------------------------- 

          ...................................................
          :                      SETUP                      :
          :.................................................:
          :   optimization level            normal          :
          :   max. optcycles                   200          :
          :   ANC micro-cycles                  20          :
          :   degrees of freedom                72          :
          :.................................................:
          :   RF solver                   davidson          :
          :   write xtbopt.log                true          :
          :   linear?                        false          :
          :   energy convergence         0.5000000E-05 Eh   :
          :   grad. convergence          0.1000000E-02 Eh/α :
          :   maxmium RF displ.          1.0000000          :
          :   Hlow (freq-cutoff)         0.1000000E-01      :
          :   Hmax (freq-cutoff)         5.0000000          :
          :   S6 in model hess.         20.0000000          :
          ...................................................

generating ANC from exact Hessian ...
Using Lindh-Hessian (1995)
 Shifting diagonal of input Hessian by    8.7768133930004513E-003
 Lowest  eigenvalues of input Hessian
    0.000000    0.000000    0.000000    0.000000    0.000000    0.000000
    0.010000    0.010357    0.010730    0.013472    0.014055    0.018333
    0.019194    0.024105    0.027016    0.029521    0.029978    0.034847
 Highest eigenvalues
    1.663523    1.835180    1.971307    2.047933    2.140742    2.394209


........................................................................
.............................. CYCLE    1 ..............................
........................................................................

 iter      E             dE          RMSdq      gap      omega  full diag
   1    -47.4332084 -0.474332E+02  0.824E-05    2.70       0.0  T
   2    -47.4332084 -0.170886E-10  0.514E-05    2.70     381.6  T
   3    -47.4332084 -0.369482E-12  0.294E-05    2.70     666.9  T
     SCC iter.                  ...        0 min,  0.003 sec
     gradient                   ...        0 min,  0.011 sec
 * total energy  :   -46.9688818 Eh     change       -0.2741345E-09 Eh
   gradient norm :     0.0929262 Eh/α   predicted     0.0000000E+00 (-100.00%)
   displ. norm   :     0.2315889 α      lambda       -0.1017946E-01
   maximum displ.:     0.0894093 α      in ANC's #19, #30, #10, ...

........................................................................
.............................. CYCLE    2 ..............................
........................................................................

 iter      E             dE          RMSdq      gap      omega  full diag
   1    -47.4523150 -0.474523E+02  0.201E-01    2.70       0.0  T
   2    -47.4524591 -0.144071E-03  0.118E-01    2.70       1.0  T
   3    -47.4524577  0.138513E-05  0.705E-02    2.70       1.0  T
   4    -47.4524928 -0.350507E-04  0.201E-02    2.69       1.0  T
   5    -47.4525001 -0.727345E-05  0.509E-03    2.69       3.9  T
   6    -47.4525002 -0.186371E-06  0.249E-03    2.69       7.9  T
   7    -47.4525003 -0.189102E-07  0.107E-03    2.69      18.4  T
   8    -47.4525003 -0.365085E-08  0.355E-04    2.69      55.2  T
   9    -47.4525003 -0.394287E-09  0.164E-04    2.69     119.6  T
     SCC iter.                  ...        0 min,  0.010 sec
     gradient                   ...        0 min,  0.011 sec
 * total energy  :   -46.9760945 Eh     change       -0.7212737E-02 Eh
   gradient norm :     0.0522538 Eh/α   predicted    -0.5364145E-02 ( -25.63%)
   displ. norm   :     0.2108064 α      lambda       -0.5134372E-02
   maximum displ.:     0.0981991 α      in ANC's #10, #13, #5, ...

........................................................................
.............................. CYCLE    3 ..............................
........................................................................

 iter      E             dE          RMSdq      gap      omega  full diag
   1    -47.4662045 -0.474662E+02  0.187E-01    2.69       0.0  T
   2    -47.4663491 -0.144552E-03  0.104E-01    2.67       1.0  T
   3    -47.4663604 -0.112722E-04  0.662E-02    2.67       1.0  T
   4    -47.4663821 -0.216857E-04  0.199E-02    2.66       1.0  T
   5    -47.4663884 -0.638354E-05  0.552E-03    2.66       3.6  T
   6    -47.4663888 -0.359514E-06  0.233E-03    2.66       8.4  T
   7    -47.4663888 -0.229712E-07  0.108E-03    2.66      18.2  T
   8    -47.4663888 -0.410437E-08  0.341E-04    2.66      57.5  T
   9    -47.4663888 -0.237812E-09  0.161E-04    2.66     122.1  T
     SCC iter.                  ...        0 min,  0.009 sec
     gradient                   ...        0 min,  0.011 sec
 * total energy  :   -46.9790274 Eh     change       -0.2932923E-02 Eh
   gradient norm :     0.0211673 Eh/α   predicted    -0.2682815E-02 (  -8.53%)
   displ. norm   :     0.1174832 α      lambda       -0.8935730E-03
   maximum displ.:     0.0594719 α      in ANC's #5, #10, #13, ...

........................................................................
.............................. CYCLE    4 ..............................
........................................................................

 iter      E             dE          RMSdq      gap      omega  full diag
   1    -47.4666534 -0.474667E+02  0.802E-02    2.66       0.0  T
   2    -47.4666765 -0.230699E-04  0.441E-02    2.65       1.0  T
   3    -47.4666775 -0.971962E-06  0.219E-02    2.65       1.0  T
   4    -47.4666791 -0.156532E-05  0.495E-03    2.65       4.0  T
   5    -47.4666792 -0.192475E-06  0.213E-03    2.65       9.2  T
   6    -47.4666793 -0.267943E-07  0.997E-04    2.65      19.7  T
   7    -47.4666793 -0.987169E-08  0.410E-04    2.65      47.8  T
     SCC iter.                  ...        0 min,  0.049 sec
     gradient                   ...        0 min,  0.011 sec
 * total energy  :   -46.9796461 Eh     change       -0.6186251E-03 Eh
   gradient norm :     0.0137126 Eh/α   predicted    -0.4530311E-03 ( -26.77%)
   displ. norm   :     0.1423282 α      lambda       -0.6320059E-03
   maximum displ.:     0.0964360 α      in ANC's #5, #10, #7, ...

........................................................................
.............................. CYCLE    5 ..............................
........................................................................

 iter      E             dE          RMSdq      gap      omega  full diag
   1    -47.4660468 -0.474660E+02  0.853E-02    2.65       0.0  T
   2    -47.4660780 -0.312163E-04  0.478E-02    2.64       1.0  T
   3    -47.4660792 -0.121357E-05  0.220E-02    2.64       1.0  T
   4    -47.4660810 -0.181695E-05  0.739E-03    2.64       2.7  T
   5    -47.4660819 -0.832261E-06  0.306E-03    2.64       6.4  T
   6    -47.4660819 -0.685063E-07  0.134E-03    2.64      14.7  T
   7    -47.4660819 -0.154002E-07  0.379E-04    2.64      51.8  T
   8    -47.4660819 -0.443720E-09  0.163E-04    2.64     120.2  T
     SCC iter.                  ...        0 min,  0.008 sec
     gradient                   ...        0 min,  0.011 sec
 * total energy  :   -46.9800528 Eh     change       -0.4066958E-03 Eh
   gradient norm :     0.0096764 Eh/α   predicted    -0.3224667E-03 ( -20.71%)
   displ. norm   :     0.1073254 α      lambda       -0.2392918E-03
   maximum displ.:     0.0809154 α      in ANC's #5, #4, #8, ...

........................................................................
.............................. CYCLE    6 ..............................
........................................................................

 iter      E             dE          RMSdq      gap      omega  full diag
   1    -47.4662057 -0.474662E+02  0.592E-02    2.64       0.0  T
   2    -47.4662173 -0.116811E-04  0.325E-02    2.65       1.0  T
   3    -47.4662174 -0.403682E-07  0.133E-02    2.64       1.5  T
   4    -47.4662185 -0.113083E-05  0.568E-03    2.64       3.5  T
   5    -47.4662191 -0.547514E-06  0.214E-03    2.64       9.2  T
   6    -47.4662191 -0.991633E-08  0.683E-04    2.64      28.7  T
   7    -47.4662191 -0.532237E-08  0.230E-04    2.64      85.5  T
     SCC iter.                  ...        0 min,  0.007 sec
     gradient                   ...        0 min,  0.011 sec
 * total energy  :   -46.9802277 Eh     change       -0.1748899E-03 Eh
   gradient norm :     0.0078557 Eh/α   predicted    -0.1210314E-03 ( -30.80%)
   displ. norm   :     0.1304715 α      lambda       -0.2028655E-03
   maximum displ.:     0.1002237 α      in ANC's #5, #8, #4, ...

........................................................................
.............................. CYCLE    7 ..............................
........................................................................

 iter      E             dE          RMSdq      gap      omega  full diag
   1    -47.4668826 -0.474669E+02  0.725E-02    2.65       0.0  T
   2    -47.4668920 -0.945384E-05  0.375E-02    2.66       1.0  T
   3    -47.4668919  0.187102E-06  0.123E-02    2.66       1.6  T
   4    -47.4668932 -0.131987E-05  0.521E-03    2.66       3.8  T
   5    -47.4668935 -0.281381E-06  0.246E-03    2.66       8.0  T
   6    -47.4668935 -0.426957E-07  0.666E-04    2.66      29.5  T
   7    -47.4668935 -0.475805E-08  0.267E-04    2.66      73.5  T
     SCC iter.                  ...        0 min,  0.040 sec
     gradient                   ...        0 min,  0.011 sec
 * total energy  :   -46.9803701 Eh     change       -0.1424428E-03 Eh
   gradient norm :     0.0070041 Eh/α   predicted    -0.1031600E-03 ( -27.58%)
   displ. norm   :     0.1095871 α      lambda       -0.1301931E-03
   maximum displ.:     0.0836826 α      in ANC's #5, #4, #9, ...

........................................................................
.............................. CYCLE    8 ..............................
........................................................................

 iter      E             dE          RMSdq      gap      omega  full diag
   1    -47.4679636 -0.474680E+02  0.669E-02    2.67       0.0  T
   2    -47.4679673 -0.370081E-05  0.334E-02    2.67       1.0  T
   3    -47.4679676 -0.225135E-06  0.795E-03    2.67       2.5  T
   4    -47.4679680 -0.442073E-06  0.366E-03    2.67       5.4  T
   5    -47.4679680 -0.201407E-07  0.140E-03    2.67      14.1  T
   6    -47.4679681 -0.298268E-07  0.492E-04    2.67      39.8  T
   7    -47.4679681 -0.247660E-08  0.236E-04    2.67      83.2  T
     SCC iter.                  ...        0 min,  0.007 sec
     gradient                   ...        0 min,  0.011 sec
 * total energy  :   -46.9804641 Eh     change       -0.9400623E-04 Eh
   gradient norm :     0.0059211 Eh/α   predicted    -0.6588035E-04 ( -29.92%)
   displ. norm   :     0.1288113 α      lambda       -0.1093852E-03
   maximum displ.:     0.0892986 α      in ANC's #5, #3, #8, ...

........................................................................
.............................. CYCLE    9 ..............................
........................................................................

 iter      E             dE          RMSdq      gap      omega  full diag
   1    -47.4683842 -0.474684E+02  0.806E-02    2.69       0.0  T
   2    -47.4683889 -0.473532E-05  0.398E-02    2.69       1.0  T
   3    -47.4683893 -0.407767E-06  0.893E-03    2.69       2.2  T
   4    -47.4683899 -0.559163E-06  0.417E-03    2.69       4.7  T
   5    -47.4683899 -0.273497E-07  0.132E-03    2.69      14.9  T
   6    -47.4683899 -0.166144E-07  0.490E-04    2.69      40.1  T
   7    -47.4683899 -0.262037E-08  0.268E-04    2.69      73.1  T
     SCC iter.                  ...        0 min,  0.058 sec
     gradient                   ...        0 min,  0.011 sec
 * total energy  :   -46.9805379 Eh     change       -0.7380524E-04 Eh
   gradient norm :     0.0065299 Eh/α   predicted    -0.5560587E-04 ( -24.66%)
   displ. norm   :     0.1267806 α      lambda       -0.1200261E-03
   maximum displ.:     0.0790595 α      in ANC's #5, #2, #7, ...

........................................................................
.............................. CYCLE   10 ..............................
........................................................................

 iter      E             dE          RMSdq      gap      omega  full diag
   1    -47.4696976 -0.474697E+02  0.892E-02    2.70       0.0  T
   2    -47.4697045 -0.687032E-05  0.443E-02    2.70       1.0  T
   3    -47.4697051 -0.682909E-06  0.908E-03    2.71       2.2  T
   4    -47.4697055 -0.374229E-06  0.454E-03    2.71       4.3  T
   5    -47.4697055 -0.306211E-07  0.163E-03    2.71      12.0  T
   6    -47.4697056 -0.213831E-07  0.528E-04    2.71      37.1  T
   7    -47.4697056 -0.328890E-08  0.292E-04    2.71      67.2  T
     SCC iter.                  ...        0 min,  0.007 sec
     gradient                   ...        0 min,  0.011 sec
 * total energy  :   -46.9805958 Eh     change       -0.5791916E-04 Eh
   gradient norm :     0.0054025 Eh/α   predicted    -0.6097994E-04 (   5.28%)
   displ. norm   :     0.1076355 α      lambda       -0.6362170E-04
   maximum displ.:     0.0608953 α      in ANC's #5, #3, #2, ...

........................................................................
.............................. CYCLE   11 ..............................
........................................................................

 iter      E             dE          RMSdq      gap      omega  full diag
   1    -47.4689529 -0.474690E+02  0.684E-02    2.71       0.0  T
   2    -47.4689567 -0.381055E-05  0.338E-02    2.71       1.0  T
   3    -47.4689565  0.205320E-06  0.895E-03    2.71       2.2  T
   4    -47.4689574 -0.927099E-06  0.392E-03    2.71       5.0  T
   5    -47.4689575 -0.919289E-07  0.196E-03    2.71      10.0  T
   6    -47.4689576 -0.341175E-07  0.457E-04    2.71      42.9  T
   7    -47.4689576 -0.186017E-08  0.190E-04    2.71     103.0  T
     SCC iter.                  ...        0 min,  0.007 sec
     gradient                   ...        0 min,  0.011 sec
 * total energy  :   -46.9806292 Eh     change       -0.3340844E-04 Eh
   gradient norm :     0.0041211 Eh/α   predicted    -0.3218111E-04 (  -3.67%)
   displ. norm   :     0.0292612 α      lambda       -0.2760974E-04
   maximum displ.:     0.0161541 α      in ANC's #2, #3, #1, ...

........................................................................
.............................. CYCLE   12 ..............................
........................................................................

 iter      E             dE          RMSdq      gap      omega  full diag
   1    -47.4692096 -0.474692E+02  0.168E-02    2.71       0.0  T
   2    -47.4692100 -0.348868E-06  0.913E-03    2.71       2.1  T
   3    -47.4692098  0.197980E-06  0.447E-03    2.71       4.4  T
   4    -47.4692101 -0.286738E-06  0.128E-03    2.71      15.4  T
   5    -47.4692101 -0.156172E-07  0.439E-04    2.71      44.7  T
   6    -47.4692101 -0.126506E-08  0.156E-04    2.71     125.4  T
     SCC iter.                  ...        0 min,  0.045 sec
     gradient                   ...        0 min,  0.011 sec
 * total energy  :   -46.9806492 Eh     change       -0.2000914E-04 Eh
   gradient norm :     0.0022841 Eh/α   predicted    -0.1381895E-04 ( -30.94%)
   displ. norm   :     0.0551693 α      lambda       -0.1907430E-04
   maximum displ.:     0.0303152 α      in ANC's #2, #3, #1, ...

........................................................................
.............................. CYCLE   13 ..............................
........................................................................

 iter      E             dE          RMSdq      gap      omega  full diag
   1    -47.4690919 -0.474691E+02  0.311E-02    2.71       0.0  T
   2    -47.4690925 -0.584795E-06  0.161E-02    2.71       1.2  T
   3    -47.4690920  0.468807E-06  0.608E-03    2.71       3.2  T
   4    -47.4690927 -0.684085E-06  0.206E-03    2.71       9.5  T
   5    -47.4690927 -0.197303E-07  0.729E-04    2.71      26.9  T
   6    -47.4690927 -0.374049E-08  0.180E-04    2.71     109.2  T
     SCC iter.                  ...        0 min,  0.006 sec
     gradient                   ...        0 min,  0.011 sec
 * total energy  :   -46.9806616 Eh     change       -0.1235402E-04 Eh
   gradient norm :     0.0017151 Eh/α   predicted    -0.9566963E-05 ( -22.56%)
   displ. norm   :     0.0665377 α      lambda       -0.8618283E-05
   maximum displ.:     0.0406215 α      in ANC's #3, #2, #1, ...

........................................................................
.............................. CYCLE   14 ..............................
........................................................................

 iter      E             dE          RMSdq      gap      omega  full diag
   1    -47.4692166 -0.474692E+02  0.330E-02    2.70       0.0  T
   2    -47.4692169 -0.383087E-06  0.173E-02    2.70       1.1  T
   3    -47.4692168  0.144639E-06  0.439E-03    2.70       4.5  T
   4    -47.4692170 -0.251147E-06  0.210E-03    2.70       9.3  T
   5    -47.4692171 -0.323135E-07  0.539E-04    2.70      36.4  T
   6    -47.4692171 -0.282007E-08  0.148E-04    2.70     132.9  T
     SCC iter.                  ...        0 min,  0.006 sec
     gradient                   ...        0 min,  0.011 sec
 * total energy  :   -46.9806706 Eh     change       -0.9005476E-05 Eh
   gradient norm :     0.0017885 Eh/α   predicted    -0.4318601E-05 ( -52.04%)
   displ. norm   :     0.0827249 α      lambda       -0.9543112E-05
   maximum displ.:     0.0565326 α      in ANC's #3, #2, #1, ...

........................................................................
.............................. CYCLE   15 ..............................
........................................................................

 iter      E             dE          RMSdq      gap      omega  full diag
   1    -47.4692546 -0.474693E+02  0.386E-02    2.70       0.0  T
   2    -47.4692551 -0.502256E-06  0.205E-02    2.70       1.0  T
   3    -47.4692552 -0.108832E-06  0.348E-03    2.70       5.6  T
   4    -47.4692552 -0.155555E-07  0.168E-03    2.70      11.7  T
   5    -47.4692552 -0.712908E-08  0.389E-04    2.70      50.4  T
   6    -47.4692552 -0.264666E-08  0.162E-04    2.70     120.8  T
     SCC iter.                  ...        0 min,  0.006 sec
     gradient                   ...        0 min,  0.011 sec
 * total energy  :   -46.9806813 Eh     change       -0.1069307E-04 Eh
   gradient norm :     0.0015165 Eh/α   predicted    -0.4790538E-05 ( -55.20%)
   displ. norm   :     0.1182051 α      lambda       -0.1169629E-04
   maximum displ.:     0.0874445 α      in ANC's #3, #1, #2, ...

........................................................................
.............................. CYCLE   16 ..............................
........................................................................

 iter      E             dE          RMSdq      gap      omega  full diag
   1    -47.4696080 -0.474696E+02  0.485E-02    2.70       0.0  T
   2    -47.4696087 -0.673657E-06  0.270E-02    2.70       1.0  T
   3    -47.4696087 -0.866380E-07  0.424E-03    2.70       4.6  T
   4    -47.4696088 -0.410587E-07  0.206E-03    2.70       9.5  T
   5    -47.4696088 -0.221043E-07  0.711E-04    2.70      27.6  T
   6    -47.4696088 -0.968651E-08  0.235E-04    2.70      83.3  T
     SCC iter.                  ...        0 min,  0.006 sec
     gradient                   ...        0 min,  0.011 sec
 * total energy  :   -46.9806933 Eh     change       -0.1199839E-04 Eh
   gradient norm :     0.0018773 Eh/α   predicted    -0.5893969E-05 ( -50.88%)
   displ. norm   :     0.1435069 α      lambda       -0.1149175E-04
   maximum displ.:     0.1092649 α      in ANC's #3, #1, #2, ...

........................................................................
.............................. CYCLE   17 ..............................
........................................................................

 iter      E             dE          RMSdq      gap      omega  full diag
   1    -47.4690831 -0.474691E+02  0.619E-02    2.70       0.0  T
   2    -47.4690843 -0.119802E-05  0.340E-02    2.70       1.0  T
   3    -47.4690843 -0.319318E-07  0.642E-03    2.70       3.1  T
   4    -47.4690846 -0.223934E-06  0.324E-03    2.70       6.1  T
   5    -47.4690846 -0.513583E-07  0.125E-03    2.70      15.7  T
   6    -47.4690847 -0.289704E-07  0.322E-04    2.70      61.0  T
   7    -47.4690847 -0.260926E-09  0.170E-04    2.70     115.2  T
     SCC iter.                  ...        0 min,  0.060 sec
     gradient                   ...        0 min,  0.010 sec
 * total energy  :   -46.9807042 Eh     change       -0.1095158E-04 Eh
   gradient norm :     0.0024989 Eh/α   predicted    -0.5802821E-05 ( -47.01%)
   displ. norm   :     0.1419415 α      lambda       -0.2002855E-04
   maximum displ.:     0.1068914 α      in ANC's #3, #1, #5, ...

........................................................................
.............................. CYCLE   18 ..............................
........................................................................

 iter      E             dE          RMSdq      gap      omega  full diag
   1    -47.4691336 -0.474691E+02  0.566E-02    2.70       0.0  T
   2    -47.4691344 -0.838846E-06  0.322E-02    2.70       1.0  T
   3    -47.4691345 -0.471480E-07  0.505E-03    2.70       3.9  T
   4    -47.4691345 -0.888339E-07  0.241E-03    2.70       8.1  T
   5    -47.4691346 -0.336862E-07  0.935E-04    2.70      21.0  T
   6    -47.4691346 -0.165903E-07  0.304E-04    2.70      64.5  T
     SCC iter.                  ...        0 min,  0.006 sec
     gradient                   ...        0 min,  0.011 sec
 * total energy  :   -46.9807190 Eh     change       -0.1476664E-04 Eh
   gradient norm :     0.0019745 Eh/α   predicted    -0.1022276E-04 ( -30.77%)
   displ. norm   :     0.3290751 α      lambda       -0.2500402E-04
   maximum displ.:     0.2536253 α      in ANC's #3, #1, #5, ...

........................................................................
.............................. CYCLE   19 ..............................
........................................................................

 iter      E             dE          RMSdq      gap      omega  full diag
   1    -47.4683580 -0.474684E+02  0.133E-01    2.69       0.0  T
   2    -47.4683623 -0.432420E-05  0.754E-02    2.70       1.0  T
   3    -47.4683610  0.128065E-05  0.147E-02    2.69       1.3  T
   4    -47.4683631 -0.208274E-05  0.695E-03    2.70       2.8  T
   5    -47.4683635 -0.426586E-06  0.240E-03    2.70       8.2  T
   6    -47.4683636 -0.865297E-07  0.715E-04    2.70      27.4  T
   7    -47.4683636 -0.754135E-09  0.355E-04    2.70      55.3  T
     SCC iter.                  ...        0 min,  0.007 sec
     gradient                   ...        0 min,  0.011 sec
 * total energy  :   -46.9807378 Eh     change       -0.1876786E-04 Eh
   gradient norm :     0.0033828 Eh/α   predicted    -0.1310602E-04 ( -30.17%)
   displ. norm   :     0.0662203 α      lambda       -0.2218901E-04
   maximum displ.:     0.0363582 α      in ANC's #3, #5, #2, ...

........................................................................
.............................. CYCLE   20 ..............................
........................................................................

 iter      E             dE          RMSdq      gap      omega  full diag
   1    -47.4694079 -0.474694E+02  0.282E-02    2.70       0.0  T
   2    -47.4694083 -0.343429E-06  0.152E-02    2.70       1.3  T
   3    -47.4694083 -0.229574E-07  0.304E-03    2.70       6.5  T
   4    -47.4694083 -0.368269E-07  0.160E-03    2.70      12.3  T
   5    -47.4694083 -0.160440E-07  0.598E-04    2.70      32.8  T
   6    -47.4694083 -0.588962E-08  0.193E-04    2.70     101.4  T
     SCC iter.                  ...        0 min,  0.006 sec
     gradient                   ...        0 min,  0.011 sec
 * total energy  :   -46.9807531 Eh     change       -0.1531278E-04 Eh
   gradient norm :     0.0024167 Eh/α   predicted    -0.1114486E-04 ( -27.22%)
   displ. norm   :     0.1956703 α      lambda       -0.2830929E-04
   maximum displ.:     0.1527047 α      in ANC's #3, #1, #4, ...
 * RMSD in coord.:     0.3271095 α      energy gain  -0.1187131E-01 Eh

generating ANC from exact Hessian ...
Using Lindh-Hessian (1995)
 Shifting diagonal of input Hessian by    8.6642359756813961E-003
 Lowest  eigenvalues of input Hessian
    0.000000    0.000000    0.000000    0.000000    0.000000    0.000000
    0.010000    0.010247    0.010801    0.013605    0.014945    0.018675
    0.020109    0.025536    0.026615    0.030208    0.031629    0.036471
 Highest eigenvalues
    1.726638    1.944973    2.057846    2.118272    2.216741    2.509331


........................................................................
.............................. CYCLE   21 ..............................
........................................................................

 iter      E             dE          RMSdq      gap      omega  full diag
   1    -47.4693422 -0.474693E+02  0.790E-02    2.70       0.0  T
   2    -47.4693436 -0.143654E-05  0.448E-02    2.70       1.0  T
   3    -47.4693426  0.986959E-06  0.994E-03    2.70       2.0  T
   4    -47.4693440 -0.134722E-05  0.425E-03    2.70       4.6  T
   5    -47.4693441 -0.158293E-06  0.123E-03    2.70      16.0  T
   6    -47.4693442 -0.180220E-07  0.405E-04    2.70      48.4  T
   7    -47.4693442 -0.169230E-09  0.173E-04    2.70     113.5  T
     SCC iter.                  ...        0 min,  0.007 sec
     gradient                   ...        0 min,  0.011 sec
 * total energy  :   -46.9807770 Eh     change       -0.2393873E-04 Eh
   gradient norm :     0.0021939 Eh/α   predicted     0.0000000E+00 (-100.00%)
   displ. norm   :     0.0248431 α      lambda       -0.1258400E-04
   maximum displ.:     0.0151753 α      in ANC's #1, #2, #3, ...

........................................................................
.............................. CYCLE   22 ..............................
........................................................................

 iter      E             dE          RMSdq      gap      omega  full diag
   1    -47.4695199 -0.474695E+02  0.944E-03    2.70       0.0  T
   2    -47.4695200 -0.849430E-07  0.532E-03    2.70       3.7  T
   3    -47.4695200  0.710637E-08  0.144E-03    2.70      13.7  T
   4    -47.4695200 -0.165616E-07  0.625E-04    2.70      31.4  T
   5    -47.4695200 -0.265417E-08  0.331E-04    2.70      59.3  T
     SCC iter.                  ...        0 min,  0.005 sec
     gradient                   ...        0 min,  0.050 sec
 * total energy  :   -46.9807880 Eh     change       -0.1095503E-04 Eh
   gradient norm :     0.0013207 Eh/α   predicted    -0.6403753E-05 ( -41.55%)
   displ. norm   :     0.1083853 α      lambda       -0.2502076E-04
   maximum displ.:     0.0664022 α      in ANC's #1, #2, #3, ...

........................................................................
.............................. CYCLE   23 ..............................
........................................................................

 iter      E             dE          RMSdq      gap      omega  full diag
   1    -47.4697931 -0.474698E+02  0.412E-02    2.70       0.0  T
   2    -47.4697940 -0.913384E-06  0.225E-02    2.70       1.0  T
   3    -47.4697941 -0.375950E-07  0.464E-03    2.70       4.2  T
   4    -47.4697942 -0.101894E-06  0.233E-03    2.70       8.4  T
   5    -47.4697942 -0.167611E-07  0.113E-03    2.70      17.3  T
   6    -47.4697942 -0.202386E-07  0.337E-04    2.70      58.2  T
   7    -47.4697942 -0.406210E-09  0.194E-04    2.70     101.0  T
     SCC iter.                  ...        0 min,  0.008 sec
     gradient                   ...        0 min,  0.011 sec
 * total energy  :   -46.9808088 Eh     change       -0.2085280E-04 Eh
   gradient norm :     0.0018923 Eh/α   predicted    -0.1257593E-04 ( -39.69%)
   displ. norm   :     0.0561015 α      lambda       -0.8059600E-05
   maximum displ.:     0.0382053 α      in ANC's #1, #2, #3, ...

........................................................................
.............................. CYCLE   24 ..............................
........................................................................

 iter      E             dE          RMSdq      gap      omega  full diag
   1    -47.4697085 -0.474697E+02  0.208E-02    2.70       0.0  T
   2    -47.4697087 -0.173921E-06  0.112E-02    2.70       1.7  T
   3    -47.4697087  0.711843E-08  0.246E-03    2.70       8.0  T
   4    -47.4697087 -0.429796E-07  0.112E-03    2.70      17.5  T
   5    -47.4697087 -0.267118E-08  0.503E-04    2.70      39.0  T
   6    -47.4697088 -0.445028E-08  0.112E-04    2.70     174.6  T
     SCC iter.                  ...        0 min,  0.006 sec
     gradient                   ...        0 min,  0.062 sec
 * total energy  :   -46.9808199 Eh     change       -0.1107837E-04 Eh
   gradient norm :     0.0016916 Eh/α   predicted    -0.4035928E-05 ( -63.57%)
   displ. norm   :     0.1214312 α      lambda       -0.1889457E-04
   maximum displ.:     0.0803916 α      in ANC's #1, #2, #3, ...

........................................................................
.............................. CYCLE   25 ..............................
........................................................................

 iter      E             dE          RMSdq      gap      omega  full diag
   1    -47.4695098 -0.474695E+02  0.477E-02    2.70       0.0  T
   2    -47.4695109 -0.113712E-05  0.258E-02    2.70       1.0  T
   3    -47.4695108  0.143879E-06  0.633E-03    2.70       3.1  T
   4    -47.4695111 -0.344345E-06  0.274E-03    2.70       7.2  T
   5    -47.4695111 -0.188543E-07  0.132E-03    2.70      14.9  T
   6    -47.4695112 -0.271392E-07  0.246E-04    2.70      79.8  T
   7    -47.4695112 -0.344379E-09  0.140E-04    2.70     140.1  T
     SCC iter.                  ...        0 min,  0.007 sec
     gradient                   ...        0 min,  0.011 sec
 * total energy  :   -46.9808428 Eh     change       -0.2289071E-04 Eh
   gradient norm :     0.0010223 Eh/α   predicted    -0.9514986E-05 ( -58.43%)
   displ. norm   :     0.1645792 α      lambda       -0.1717329E-04
   maximum displ.:     0.1095870 α      in ANC's #1, #3, #2, ...

........................................................................
.............................. CYCLE   26 ..............................
........................................................................

 iter      E             dE          RMSdq      gap      omega  full diag
   1    -47.4692525 -0.474693E+02  0.636E-02    2.70       0.0  T
   2    -47.4692541 -0.159935E-05  0.345E-02    2.70       1.0  T
   3    -47.4692540  0.844522E-07  0.740E-03    2.70       2.6  T
   4    -47.4692544 -0.371870E-06  0.345E-03    2.70       5.7  T
   5    -47.4692544 -0.337975E-07  0.152E-03    2.70      12.9  T
   6    -47.4692545 -0.404253E-07  0.308E-04    2.70      63.6  T
   7    -47.4692545 -0.436216E-09  0.171E-04    2.70     114.6  T
     SCC iter.                  ...        0 min,  0.007 sec
     gradient                   ...        0 min,  0.011 sec
 * total energy  :   -46.9808632 Eh     change       -0.2040361E-04 Eh
   gradient norm :     0.0014242 Eh/α   predicted    -0.8690931E-05 ( -57.40%)
   displ. norm   :     0.1372349 α      lambda       -0.1210917E-04
   maximum displ.:     0.0932074 α      in ANC's #1, #3, #2, ...

........................................................................
.............................. CYCLE   27 ..............................
........................................................................

 iter      E             dE          RMSdq      gap      omega  full diag
   1    -47.4693178 -0.474693E+02  0.535E-02    2.70       0.0  T
   2    -47.4693187 -0.958113E-06  0.292E-02    2.71       1.0  T
   3    -47.4693187 -0.195761E-07  0.556E-03    2.70       3.5  T
   4    -47.4693189 -0.150091E-06  0.273E-03    2.70       7.2  T
   5    -47.4693189 -0.256877E-07  0.111E-03    2.70      17.7  T
   6    -47.4693189 -0.231976E-07  0.250E-04    2.70      78.3  T
   7    -47.4693189 -0.266326E-09  0.133E-04    2.70     147.0  T
     SCC iter.                  ...        0 min,  0.050 sec
     gradient                   ...        0 min,  0.010 sec
 * total energy  :   -46.9808791 Eh     change       -0.1593829E-04 Eh
   gradient norm :     0.0014286 Eh/α   predicted    -0.6106191E-05 ( -61.69%)
   displ. norm   :     0.1475162 α      lambda       -0.1473073E-04
   maximum displ.:     0.1025187 α      in ANC's #1, #3, #4, ...

........................................................................
.............................. CYCLE   28 ..............................
........................................................................

 iter      E             dE          RMSdq      gap      omega  full diag
   1    -47.4694917 -0.474695E+02  0.574E-02    2.70       0.0  T
   2    -47.4694926 -0.895321E-06  0.320E-02    2.71       1.0  T
   3    -47.4694927 -0.511228E-07  0.537E-03    2.70       3.7  T
   4    -47.4694928 -0.114938E-06  0.264E-03    2.71       7.4  T
   5    -47.4694928 -0.334482E-07  0.101E-03    2.71      19.5  T
   6    -47.4694928 -0.195435E-07  0.262E-04    2.71      74.9  T
   7    -47.4694928 -0.281005E-09  0.132E-04    2.71     148.1  T
     SCC iter.                  ...        0 min,  0.008 sec
     gradient                   ...        0 min,  0.011 sec
 * total energy  :   -46.9808996 Eh     change       -0.2047672E-04 Eh
   gradient norm :     0.0011370 Eh/α   predicted    -0.7436805E-05 ( -63.68%)
   displ. norm   :     0.2279074 α      lambda       -0.2543192E-04
   maximum displ.:     0.1587571 α      in ANC's #1, #3, #4, ...

........................................................................
.............................. CYCLE   29 ..............................
........................................................................

 iter      E             dE          RMSdq      gap      omega  full diag
   1    -47.4695113 -0.474695E+02  0.887E-02    2.70       0.0  T
   2    -47.4695133 -0.204678E-05  0.500E-02    2.70       1.0  T
   3    -47.4695132  0.118792E-06  0.846E-03    2.70       2.3  T
   4    -47.4695136 -0.457946E-06  0.425E-03    2.70       4.6  T
   5    -47.4695138 -0.141180E-06  0.157E-03    2.70      12.5  T
   6    -47.4695138 -0.408385E-07  0.396E-04    2.70      49.5  T
   7    -47.4695138 -0.398181E-09  0.201E-04    2.70      97.7  T
     SCC iter.                  ...        0 min,  0.007 sec
     gradient                   ...        0 min,  0.011 sec
 * total energy  :   -46.9809360 Eh     change       -0.3640993E-04 Eh
   gradient norm :     0.0011024 Eh/α   predicted    -0.1301045E-04 ( -64.27%)
   displ. norm   :     0.4475174 α      lambda       -0.5364773E-04
   maximum displ.:     0.3106453 α      in ANC's #1, #3, #4, ...

........................................................................
.............................. CYCLE   30 ..............................
........................................................................

 iter      E             dE          RMSdq      gap      omega  full diag
   1    -47.4681915 -0.474682E+02  0.176E-01    2.70       0.0  T
   2    -47.4682002 -0.866093E-05  0.998E-02    2.70       1.0  T
   3    -47.4681963  0.389142E-05  0.206E-02    2.69       1.0  T
   4    -47.4682018 -0.554264E-05  0.905E-03    2.69       2.2  T
   5    -47.4682025 -0.723403E-06  0.324E-03    2.69       6.1  T
   6    -47.4682027 -0.124468E-06  0.763E-04    2.69      25.7  T
   7    -47.4682027 -0.114257E-08  0.394E-04    2.69      49.8  T
     SCC iter.                  ...        0 min,  0.041 sec
     gradient                   ...        0 min,  0.011 sec
 * total energy  :   -46.9810052 Eh     change       -0.6915050E-04 Eh
   gradient norm :     0.0034050 Eh/α   predicted    -0.2921225E-04 ( -57.76%)
   displ. norm   :     0.4947670 α      lambda       -0.8708765E-04
   maximum displ.:     0.3436171 α      in ANC's #1, #3, #4, ...

........................................................................
.............................. CYCLE   31 ..............................
........................................................................

 iter      E             dE          RMSdq      gap      omega  full diag
   1    -47.4661015 -0.474661E+02  0.193E-01    2.68       0.0  T
   2    -47.4661143 -0.128483E-04  0.111E-01    2.69       1.0  T
   3    -47.4661053  0.906702E-05  0.265E-02    2.68       1.0  T
   4    -47.4661169 -0.116517E-04  0.101E-02    2.68       1.9  T
   5    -47.4661179 -0.988753E-06  0.376E-03    2.68       5.2  T
   6    -47.4661180 -0.123069E-06  0.858E-04    2.68      22.9  T
   7    -47.4661180 -0.198239E-08  0.463E-04    2.68      42.4  T
     SCC iter.                  ...        0 min,  0.008 sec
     gradient                   ...        0 min,  0.011 sec
 * total energy  :   -46.9810444 Eh     change       -0.3926345E-04 Eh
   gradient norm :     0.0069119 Eh/α   predicted    -0.5420687E-04 (  38.06%)
   displ. norm   :     0.0426811 α      lambda       -0.8279624E-04
   maximum displ.:     0.0305019 α      in ANC's #2, #5, #7, ...

........................................................................
.............................. CYCLE   32 ..............................
........................................................................

 iter      E             dE          RMSdq      gap      omega  full diag
   1    -47.4687884 -0.474688E+02  0.231E-02    2.69       0.0  T
   2    -47.4687898 -0.146901E-05  0.128E-02    2.69       1.5  T
   3    -47.4687897  0.135543E-06  0.697E-03    2.69       2.8  T
   4    -47.4687903 -0.565266E-06  0.206E-03    2.69       9.5  T
   5    -47.4687903 -0.594263E-07  0.810E-04    2.69      24.2  T
   6    -47.4687903 -0.149504E-08  0.202E-04    2.69      97.0  T
     SCC iter.                  ...        0 min,  0.006 sec
     gradient                   ...        0 min,  0.056 sec
 * total energy  :   -46.9811049 Eh     change       -0.6041612E-04 Eh
   gradient norm :     0.0036815 Eh/α   predicted    -0.4147403E-04 ( -31.35%)
   displ. norm   :     0.3248244 α      lambda       -0.9811964E-04
   maximum displ.:     0.2160166 α      in ANC's #1, #3, #4, ...

........................................................................
.............................. CYCLE   33 ..............................
........................................................................

 iter      E             dE          RMSdq      gap      omega  full diag
   1    -47.4699055 -0.474699E+02  0.124E-01    2.69       0.0  T
   2    -47.4699083 -0.272059E-05  0.710E-02    2.69       1.0  T
   3    -47.4699087 -0.435828E-06  0.907E-03    2.68       2.2  T
   4    -47.4699090 -0.342513E-06  0.385E-03    2.68       5.1  T
   5    -47.4699091 -0.476969E-07  0.101E-03    2.69      19.5  T
   6    -47.4699091 -0.104661E-07  0.541E-04    2.69      36.3  T
   7    -47.4699091 -0.188197E-08  0.239E-04    2.69      82.0  T
     SCC iter.                  ...        0 min,  0.007 sec
     gradient                   ...        0 min,  0.011 sec
 * total energy  :   -46.9811774 Eh     change       -0.7256391E-04 Eh
   gradient norm :     0.0031200 Eh/α   predicted    -0.5423687E-04 ( -25.26%)
   displ. norm   :     0.3749238 α      lambda       -0.6726904E-04
   maximum displ.:     0.2511666 α      in ANC's #1, #3, #4, ...

........................................................................
.............................. CYCLE   34 ..............................
........................................................................

 iter      E             dE          RMSdq      gap      omega  full diag
   1    -47.4685458 -0.474685E+02  0.144E-01    2.68       0.0  T
   2    -47.4685501 -0.428662E-05  0.829E-02    2.68       1.0  T
   3    -47.4685484  0.160703E-05  0.145E-02    2.68       1.4  T
   4    -47.4685511 -0.265220E-05  0.608E-03    2.68       3.2  T
   5    -47.4685514 -0.305568E-06  0.223E-03    2.68       8.8  T
   6    -47.4685515 -0.686540E-07  0.634E-04    2.68      31.0  T
   7    -47.4685515 -0.664272E-09  0.299E-04    2.68      65.5  T
     SCC iter.                  ...        0 min,  0.008 sec
     gradient                   ...        0 min,  0.011 sec
 * total energy  :   -46.9812185 Eh     change       -0.4102121E-04 Eh
   gradient norm :     0.0039058 Eh/α   predicted    -0.3836302E-04 (  -6.48%)
   displ. norm   :     0.1225691 α      lambda       -0.5235247E-04
   maximum displ.:     0.0695103 α      in ANC's #3, #1, #2, ...

........................................................................
.............................. CYCLE   35 ..............................
........................................................................

 iter      E             dE          RMSdq      gap      omega  full diag
   1    -47.4701053 -0.474701E+02  0.488E-02    2.69       0.0  T
   2    -47.4701076 -0.238438E-05  0.281E-02    2.68       1.0  T
   3    -47.4701065  0.109972E-05  0.968E-03    2.69       2.0  T
   4    -47.4701080 -0.144451E-05  0.319E-03    2.68       6.2  T
   5    -47.4701082 -0.169907E-06  0.110E-03    2.68      17.8  T
   6    -47.4701082 -0.461618E-08  0.335E-04    2.68      58.6  T
   7    -47.4701082 -0.803439E-09  0.142E-04    2.68     138.5  T
     SCC iter.                  ...        0 min,  0.007 sec
     gradient                   ...        0 min,  0.011 sec
 * total energy  :   -46.9812464 Eh     change       -0.2794239E-04 Eh
   gradient norm :     0.0023574 Eh/α   predicted    -0.2657151E-04 (  -4.91%)
   displ. norm   :     0.1690657 α      lambda       -0.1901276E-04
   maximum displ.:     0.1108126 α      in ANC's #1, #3, #4, ...

........................................................................
.............................. CYCLE   36 ..............................
........................................................................

 iter      E             dE          RMSdq      gap      omega  full diag
   1    -47.4694891 -0.474695E+02  0.660E-02    2.68       0.0  T
   2    -47.4694904 -0.128837E-05  0.382E-02    2.68       1.0  T
   3    -47.4694881  0.232980E-05  0.117E-02    2.68       1.7  T
   4    -47.4694910 -0.289581E-05  0.297E-03    2.68       6.6  T
   5    -47.4694910 -0.562949E-07  0.115E-03    2.68      17.0  T
   6    -47.4694910 -0.883953E-08  0.314E-04    2.68      62.4  T
   7    -47.4694910 -0.136282E-09  0.151E-04    2.68     129.7  T
     SCC iter.                  ...        0 min,  0.007 sec
     gradient                   ...        0 min,  0.010 sec
 * total energy  :   -46.9812581 Eh     change       -0.1169713E-04 Eh
   gradient norm :     0.0019113 Eh/α   predicted    -0.9779980E-05 ( -16.39%)
   displ. norm   :     0.0673608 α      lambda       -0.1311928E-04
   maximum displ.:     0.0438549 α      in ANC's #3, #1, #6, ...

........................................................................
.............................. CYCLE   37 ..............................
........................................................................

 iter      E             dE          RMSdq      gap      omega  full diag
   1    -47.4703934 -0.474704E+02  0.313E-02    2.69       0.0  T
   2    -47.4703939 -0.491952E-06  0.176E-02    2.68       1.1  T
   3    -47.4703931  0.792449E-06  0.724E-03    2.68       2.7  T
   4    -47.4703942 -0.104726E-05  0.184E-03    2.68      10.6  T
   5    -47.4703942 -0.155290E-07  0.800E-04    2.68      24.5  T
   6    -47.4703942 -0.408208E-08  0.210E-04    2.68      93.4  T
     SCC iter.                  ...        0 min,  0.006 sec
     gradient                   ...        0 min,  0.011 sec
 * total energy  :   -46.9812686 Eh     change       -0.1053959E-04 Eh
   gradient norm :     0.0013106 Eh/α   predicted    -0.6576962E-05 ( -37.60%)
   displ. norm   :     0.0607327 α      lambda       -0.7093651E-05
   maximum displ.:     0.0432341 α      in ANC's #3, #1, #6, ...

........................................................................
.............................. CYCLE   38 ..............................
........................................................................

 iter      E             dE          RMSdq      gap      omega  full diag
   1    -47.4699361 -0.474699E+02  0.312E-02    2.69       0.0  T
   2    -47.4699365 -0.368013E-06  0.168E-02    2.69       1.2  T
   3    -47.4699364  0.864752E-07  0.391E-03    2.69       5.0  T
   4    -47.4699366 -0.165913E-06  0.195E-03    2.69      10.0  T
   5    -47.4699366 -0.289047E-07  0.685E-04    2.69      28.6  T
   6    -47.4699366 -0.501841E-08  0.178E-04    2.69     110.1  T
     SCC iter.                  ...        0 min,  0.006 sec
     gradient                   ...        0 min,  0.011 sec
 * total energy  :   -46.9812736 Eh     change       -0.4954281E-05 Eh
   gradient norm :     0.0016686 Eh/α   predicted    -0.3556434E-05 ( -28.21%)
   displ. norm   :     0.0606404 α      lambda       -0.8555713E-05
   maximum displ.:     0.0374986 α      in ANC's #1, #5, #6, ...

........................................................................
.............................. CYCLE   39 ..............................
........................................................................

 iter      E             dE          RMSdq      gap      omega  full diag
   1    -47.4698335 -0.474698E+02  0.341E-02    2.69       0.0  T
   2    -47.4698340 -0.476122E-06  0.171E-02    2.69       1.1  T
   3    -47.4698340  0.117119E-07  0.350E-03    2.69       5.6  T
   4    -47.4698341 -0.101758E-06  0.201E-03    2.69       9.8  T
   5    -47.4698341 -0.322316E-07  0.543E-04    2.69      36.1  T
   6    -47.4698341 -0.271019E-08  0.131E-04    2.69     149.5  T
     SCC iter.                  ...        0 min,  0.006 sec
     gradient                   ...        0 min,  0.011 sec
 * total energy  :   -46.9812789 Eh     change       -0.5274804E-05 Eh
   gradient norm :     0.0018524 Eh/α   predicted    -0.4285922E-05 ( -18.75%)
   displ. norm   :     0.0256235 α      lambda       -0.4112581E-05
   maximum displ.:     0.0128845 α      in ANC's #5, #1, #7, ...

........................................................................
.............................. CYCLE   40 ..............................
........................................................................

 iter      E             dE          RMSdq      gap      omega  full diag
   1    -47.4697417 -0.474697E+02  0.183E-02    2.69       0.0  T
   2    -47.4697420 -0.266404E-06  0.892E-03    2.69       2.2  T
   3    -47.4697420 -0.174060E-07  0.171E-03    2.69      11.5  T
   4    -47.4697420 -0.169931E-07  0.852E-04    2.69      23.0  T
   5    -47.4697420 -0.232681E-08  0.319E-04    2.69      61.6  T
     SCC iter.                  ...        0 min,  0.005 sec
     gradient                   ...        0 min,  0.054 sec
 * total energy  :   -46.9812820 Eh     change       -0.3155707E-05 Eh
   gradient norm :     0.0009732 Eh/α   predicted    -0.2059383E-05 ( -34.74%)
   displ. norm   :     0.0355390 α      lambda       -0.3008711E-05
   maximum displ.:     0.0294088 α      in ANC's #3, #5, #1, ...

   *** GEOMETRY OPTIMIZATION CONVERGED AFTER 40 ITERATIONS ***

------------------------------------------------------------------------
 total energy gain   :        -0.0124002 Eh       -7.7813 kcal/mol
 total RMSD          :         0.7948594 a0        0.4206 Å
 total power (kW/mol):        -0.8139203 (step)  -20.7736 (real)
------------------------------------------------------------------------

 ANCopt (total)                0 d,  0 h,  0 min,  1.567 sec
 optimizer setup                ...        0 min,  0.000 sec (  0.005%)
 model hessian                  ...        0 min,  0.013 sec (  0.800%)
 ANC generation                 ...        0 min,  0.001 sec (  0.081%)
 coordinate transformation      ...        0 min,  0.000 sec (  0.010%)
 single point calculation       ...        0 min,  1.545 sec ( 98.564%)
 optimization log               ...        0 min,  0.004 sec (  0.264%)
 hessian update                 ...        0 min,  0.000 sec (  0.018%)
 rational function              ...        0 min,  0.002 sec (  0.155%)

================
 final structure:
================
26
 xtb: 6.7.1 (edcfbbe)
N            4.36289599823635        1.56728876317498       -0.65812005898454
C            3.18759909899262        0.98808128286190       -0.36441968566891
N            3.10867821168671        0.33809200355871        0.77217236586301
C            1.99153352142027       -0.27837188723665        1.17243828815302
N            0.84831430315264       -0.17102301771693        0.29131976595709
C           -0.38421686164640       -0.77230692975696        0.71080494262347
C           -0.72580354529225       -2.04427947937619       -0.08443400294028
S           -2.53211369948892       -2.18170834154342        0.03068954105141
C           -2.64879527230205       -0.49119684828717        0.79506403907035
O           -1.44145324391609        0.14166604807979        0.52325092717674
C           -3.79484056540569        0.33537994870262        0.21240081433070
O           -3.57397429626618        0.67437781022116       -1.12316415281021
C            0.93153974986513        0.48909012057673       -0.88124461606293
C            2.08349364941330        1.08635642970525       -1.26667137362887
O            1.86826044433498       -0.91321700200727        2.19095991677633
H            4.49438635224241        2.09112962441998       -1.50319207518777
H            5.10835745968361        1.48715550865884        0.01089455393278
H           -0.26966309431507       -1.02076178702494        1.77845523532878
H           -0.44488600568735       -1.94008454911757       -1.13408077769001
H           -0.25383847150284       -2.92537713188688        0.34270053911947
H           -2.79003095915653       -0.64906381780590        1.87391823865809
H           -4.71707245158610       -0.24736050501326        0.24668981511313
H           -3.91309680893128        1.23684914872685        0.83371195948577
H           -2.69081357345023        1.06075256357119       -1.18248545174005
H            0.03222693571381        0.52102829236396       -1.48185902594629
H            2.16311312420455        1.61750375215278       -2.19929972197960

 Bond Distances (Angstroems)
 ---------------------------
N1-C2=1.3428         N1-H16=1.0029        N1-H17=1.0048        C2-N1=1.3428         C2-N3=1.3117         C2-C14=1.4293        
N3-C2=1.3117         N3-C4=1.3373         C4-N3=1.3373         C4-N5=1.4474         C4-O15=1.2065        N5-C4=1.4474         
N5-C6=1.4341         N5-C13=1.3482        C6-N5=1.4341         C6-C7=1.5385         C6-O10=1.4101        C6-H18=1.1021        
C7-C6=1.5385         C7-S8=1.8152         C7-H19=1.0916        C7-H20=1.0870        S8-C7=1.8152         S8-C9=1.8590         
C9-S8=1.8590         C9-O10=1.3900        C9-C11=1.5284        C9-H21=1.0995        O10-C6=1.4101        O10-C9=1.3900        
C11-C9=1.5284        C11-O12=1.3955       C11-H22=1.0915       C11-H23=1.1012       O12-C11=1.3955       O12-H24=0.9658       
C13-N5=1.3482        C13-C14=1.3536       C13-H25=1.0819       C14-C2=1.4293        C14-C13=1.3536       C14-H26=1.0762       
O15-C4=1.2065        H16-N1=1.0029        H17-N1=1.0048        H18-C6=1.1021        H19-C7=1.0916        H20-C7=1.0870        
H21-C9=1.0995        H22-C11=1.0915       H23-C11=1.1012       H24-O12=0.9658       H25-C13=1.0819       H26-C14=1.0762       
 C  H  Rav=1.0914 sigma=0.0088  Rmin=1.0762  Rmax=1.1021     8
 C  C  Rav=1.4625 sigma=0.0760  Rmin=1.3536  Rmax=1.5385     4
 N  H  Rav=1.0039 sigma=0.0010  Rmin=1.0029  Rmax=1.0048     2
 N  C  Rav=1.3702 sigma=0.0513  Rmin=1.3117  Rmax=1.4474     6
 O  H  Rav=0.9658 sigma=0.0000  Rmin=0.9658  Rmax=0.9658     1
 O  C  Rav=1.3505 sigma=0.0835  Rmin=1.2065  Rmax=1.4101     4
 S  C  Rav=1.8371 sigma=0.0219  Rmin=1.8152  Rmax=1.8590     2

 selected bond angles (degree)
 --------------------
H16-N1-C2=121.62               H17-N1-C2=117.99               H17-N1-H16=120.36              N3-C2-N1=117.13                
C14-C2-N1=120.56               C14-C2-N3=122.32               C4-N3-C2=122.55                N5-C4-N3=116.32                
O15-C4-N3=125.49               O15-C4-N5=118.18               C6-N5-C4=118.01                C13-N5-C4=121.13               
C13-N5-C6=120.85               C7-C6-N5=112.72                O10-C6-N5=109.49               O10-C6-C7=107.50               
H18-C6-N5=106.77               H18-C6-C7=109.72               H18-C6-O10=110.66              S8-C7-C6=104.52                
H19-C7-C6=111.16               H19-C7-S8=108.92               H20-C7-C6=111.76               H20-C7-S8=110.23               
H20-C7-H19=110.09              C9-S8-C7= 91.13                O10-C9-S8=106.21               C11-C9-S8=112.46               
C11-C9-O10=109.30              H21-C9-S8=106.32               H21-C9-O10=111.64              H21-C9-C11=110.82              
C9-O10-C6=109.28               

 selected dihedral angles (degree)
 ---------------------------------
N3-C2-N1-H16=180.82           N3-C2-N1-H17=358.89           C14-C2-N1-H16=  0.91          C14-C2-N1-H17=178.98          
C4-N3-C2-N1=179.99            C4-N3-C2-C14=359.90           N5-C4-N3-C2=358.82            O15-C4-N3-C2=178.35           
C6-N5-C4-N3=182.49            C6-N5-C4-O15=  2.92           C13-N5-C4-N3=  1.63           C13-N5-C4-O15=182.05          
C7-C6-N5-C4=252.32            C7-C6-N5-C13= 73.18           O10-C6-N5-C4=132.71           O10-C6-N5-C13=313.58          
H18-C6-N5-C4= 12.87           H18-C6-N5-C13=193.73          S8-C7-C6-N5=205.09            S8-C7-C6-O10=325.84           
S8-C7-C6-H18= 86.24           H19-C7-C6-N5=322.44           H19-C7-C6-O10= 83.20          H19-C7-C6-H18=203.60          
H20-C7-C6-N5= 85.88           H20-C7-C6-O10=206.64          H20-C7-C6-H18=327.04          C9-S8-C7-C6=  9.21            
C9-S8-C7-H19=250.33           C9-S8-C7-H20=129.44           O10-C9-S8-C7= 17.28           C11-C9-S8-C7=136.80           
H21-C9-S8-C7=258.25           C9-O10-C6-N5=173.69           C9-O10-C6-C7= 50.93           C9-O10-C6-H18=291.12          
C6-O10-C9-S8=318.03           C6-O10-C9-C11=196.47          C6-O10-C9-H21= 73.51          
           -------------------------------------------------
          |                Final Singlepoint                |
           -------------------------------------------------

          ...................................................
          :                      SETUP                      :
          :.................................................:
          :  # basis functions                  77          :
          :  # atomic orbitals                  76          :
          :  # shells                           42          :
          :  # electrons                        82          :
          :  max. iterations                   250          :
          :  Hamiltonian                  GFN2-xTB          :
          :  restarted?                      false          :
          :  GBSA solvation                  false          :
          :  PC potential                    false          :
          :  electronic temp.          300.0000000     K    :
          :  accuracy                    1.0000000          :
          :  -> integral cutoff          0.2500000E+02      :
          :  -> integral neglect         0.1000000E-07      :
          :  -> SCF convergence          0.1000000E-05 Eh   :
          :  -> wf. convergence          0.1000000E-03 e    :
          :  Broyden damping             0.4000000          :
          :  net charge                          0          :
          :  unpaired electrons                  0          :
          ...................................................

 iter      E             dE          RMSdq      gap      omega  full diag
   1    -47.4697420 -0.474697E+02  0.854E-05    2.69       0.0  T
   2    -47.4697420 -0.561613E-10  0.648E-05    2.69     302.6  T
   3    -47.4697420 -0.941185E-10  0.206E-05    2.69     953.5  T

   *** convergence criteria satisfied after 3 iterations ***

         #    Occupation            Energy/Eh            Energy/eV
      -------------------------------------------------------------
         1        2.0000           -0.7526042             -20.4794
       ...           ...                  ...                  ...
        35        2.0000           -0.4427801             -12.0487
        36        2.0000           -0.4292544             -11.6806
        37        2.0000           -0.4181545             -11.3786
        38        2.0000           -0.4128059             -11.2330
        39        2.0000           -0.4040328             -10.9943
        40        2.0000           -0.3880641             -10.5598
        41        2.0000           -0.3720950             -10.1252 (HOMO)
        42                         -0.2732837              -7.4364 (LUMO)
        43                         -0.2318469              -6.3089
        44                         -0.2236795              -6.0866
        45                         -0.1540901              -4.1930
        46                         -0.1268938              -3.4530
       ...                                ...                  ...
        76                          0.6766692              18.4131
      -------------------------------------------------------------
                  HL-Gap            0.0988113 Eh            2.6888 eV
             Fermi-level           -0.3226894 Eh           -8.7808 eV

 SCC (total)                   0 d,  0 h,  0 min,  0.019 sec
 SCC setup                      ...        0 min,  0.000 sec (  0.826%)
 Dispersion                     ...        0 min,  0.000 sec (  0.642%)
 classical contributions        ...        0 min,  0.000 sec (  0.296%)
 integral evaluation            ...        0 min,  0.004 sec ( 22.058%)
 iterations                     ...        0 min,  0.004 sec ( 18.842%)
 molecular gradient             ...        0 min,  0.011 sec ( 56.799%)
 printout                       ...        0 min,  0.000 sec (  0.501%)

         :::::::::::::::::::::::::::::::::::::::::::::::::::::
         ::                     SUMMARY                     ::
         :::::::::::::::::::::::::::::::::::::::::::::::::::::
         :: total energy             -46.981282014633 Eh    ::
         :: gradient norm              0.000972900626 Eh/a0 ::
         :: HOMO-LUMO gap              2.688792196970 eV    ::
         ::.................................................::
         :: SCC energy               -47.469670435542 Eh    ::
         :: -> isotropic ES            0.102768500507 Eh    ::
         :: -> anisotropic ES          0.002282991354 Eh    ::
         :: -> anisotropic XC          0.013463915693 Eh    ::
         :: -> dispersion             -0.025858844047 Eh    ::
         :: repulsion energy           0.488388420909 Eh    ::
         :: add. restraining           0.000000000000 Eh    ::
         :: total charge              -0.000000000000 e     ::
         :::::::::::::::::::::::::::::::::::::::::::::::::::::

           -------------------------------------------------
          |                Property Printout                |
           -------------------------------------------------

    * Orbital Energies and Occupations

         #    Occupation            Energy/Eh            Energy/eV
      -------------------------------------------------------------
         1        2.0000           -0.7526042             -20.4794
       ...           ...                  ...                  ...
        29        2.0000           -0.5041593             -13.7189
        30        2.0000           -0.4986864             -13.5699
        31        2.0000           -0.4948489             -13.4655
        32        2.0000           -0.4863851             -13.2352
        33        2.0000           -0.4756361             -12.9427
        34        2.0000           -0.4714587             -12.8290
        35        2.0000           -0.4427801             -12.0487
        36        2.0000           -0.4292544             -11.6806
        37        2.0000           -0.4181545             -11.3786
        38        2.0000           -0.4128059             -11.2330
        39        2.0000           -0.4040328             -10.9943
        40        2.0000           -0.3880641             -10.5598
        41        2.0000           -0.3720950             -10.1252 (HOMO)
        42                         -0.2732837              -7.4364 (LUMO)
        43                         -0.2318469              -6.3089
        44                         -0.2236795              -6.0866
        45                         -0.1540901              -4.1930
        46                         -0.1268938              -3.4530
        47                         -0.0399446              -1.0869
        48                         -0.0361889              -0.9847
        49                         -0.0103583              -0.2819
        50                         -0.0055925              -0.1522
        51                         -0.0008506              -0.0231
        52                          0.0230258               0.6266
       ...                                ...                  ...
        76                          0.6766692              18.4131
      -------------------------------------------------------------
                  HL-Gap            0.0988113 Eh            2.6888 eV
             Fermi-level           -0.3226894 Eh           -8.7808 eV

     #   Z          covCN         q      C6AA      α(0)
     1   7 N        2.655    -0.234    26.131     7.592
     2   6 C        2.868     0.187    24.005     8.031
     3   7 N        1.851    -0.308    28.840     7.959
     4   6 C        2.732     0.338    21.262     7.549
     5   7 N        2.746    -0.102    23.234     7.159
     6   6 C        3.827     0.191    17.560     5.963
     7   6 C        3.796    -0.022    20.972     6.521
     8  16 S        2.061    -0.189   149.097    20.551
     9   6 C        3.780     0.149    18.200     6.078
    10   8 O        1.724    -0.314    19.235     5.922
    11   6 C        3.693     0.078    19.444     6.309
    12   8 O        1.656    -0.418    21.194     6.215
    13   6 C        2.864     0.053    26.815     8.488
    14   6 C        2.910    -0.097    30.451     9.049
    15   8 O        0.859    -0.436    22.419     6.348
    16   1 H        0.861     0.187     1.173     1.697
    17   1 H        0.860     0.205     1.079     1.627
    18   1 H        0.923     0.068     2.109     2.271
    19   1 H        0.924     0.055     2.258     2.350
    20   1 H        0.925     0.065     2.145     2.290
    21   1 H        0.923     0.028     2.617     2.530
    22   1 H        0.924     0.068     2.107     2.270
    23   1 H        0.923     0.037     2.496     2.471
    24   1 H        0.805     0.303     0.713     1.327
    25   1 H        0.925     0.060     2.200     2.319
    26   1 H        0.926     0.050     2.325     2.384

 Mol. C6AA /au·bohr⁶  :       8770.211222
 Mol. C8AA /au·bohr⁸  :     223089.175175
 Mol. α(0) /au        :        143.269796


Wiberg/Mayer (AO) data.
largest (>0.10) Wiberg bond orders for each atom

 ---------------------------------------------------------------------------
     #   Z sym  total        # sym  WBO       # sym  WBO       # sym  WBO
 ---------------------------------------------------------------------------
     1   7 N    3.393 --     2 C    1.276    16 H    0.947    17 H    0.939
                             3 N    0.107
     2   6 C    3.966 --     3 N    1.422     1 N    1.276    14 C    1.166
     3   7 N    3.053 --     2 C    1.422     4 C    1.241    15 O    0.119
                             1 N    0.107
     4   6 C    3.950 --    15 O    1.664     3 N    1.241     5 N    0.958
     5   7 N    3.569 --    13 C    1.257     6 C    0.989     4 C    0.958
                            15 O    0.123
     6   6 C    3.933 --     5 N    0.989     7 C    0.965    10 O    0.960
                            18 H    0.944
     7   6 C    3.980 --     8 S    1.006    20 H    0.975    19 H    0.975
                             6 C    0.965
     8  16 S    2.059 --     7 C    1.006     9 C    0.922
     9   6 C    3.934 --    10 O    1.006    11 C    0.983    21 H    0.959
                             8 S    0.922
    10   8 O    2.126 --     9 C    1.006     6 C    0.960
    11   6 C    3.965 --    12 O    1.022     9 C    0.983    22 H    0.968
                            23 H    0.959
    12   8 O    1.977 --    11 C    1.022    24 H    0.889
    13   6 C    3.968 --    14 C    1.610     5 N    1.257    25 H    0.958
    14   6 C    3.973 --    13 C    1.610     2 C    1.166    26 H    0.967
    15   8 O    2.020 --     4 C    1.664     5 N    0.123     3 N    0.119
    16   1 H    0.964 --     1 N    0.947
    17   1 H    0.957 --     1 N    0.939
    18   1 H    0.995 --     6 C    0.944
    19   1 H    0.997 --     7 C    0.975
    20   1 H    0.996 --     7 C    0.975
    21   1 H    0.999 --     9 C    0.959
    22   1 H    0.995 --    11 C    0.968
    23   1 H    0.998 --    11 C    0.959
    24   1 H    0.908 --    12 O    0.889
    25   1 H    0.996 --    13 C    0.958
    26   1 H    0.997 --    14 C    0.967
 ---------------------------------------------------------------------------

Topologies differ in total number of bonds
Writing topology from bond orders to xtbtopo.mol

molecular dipole:
                 x           y           z       tot (Debye)
 q only:        0.932       1.261      -1.413
   full:        1.120       1.645      -1.522       6.368
molecular quadrupole (traceless):
                xx          xy          yy          xz          yz          zz
 q only:        9.710      10.083      -0.687     -20.542      -0.738      -9.023
  q+dip:        3.693       8.586       1.090     -26.657      -1.511      -4.783
   full:        4.133       7.997       2.186     -27.512      -0.113      -6.319

           -------------------------------------------------
          |                Geometry Summary                 |
           -------------------------------------------------

      molecular mass/u    :      229.2563472
   center of mass at/Å    :       -0.0463440      -0.2365513       0.1448792
  moments of inertia/u·Å² :        0.4286274E+03   0.1702677E+04   0.1909494E+04
rotational constants/cm⁻¹ :        0.3932934E-01   0.9900665E-02   0.8828324E-02

 * 24 selected distances

     #   Z          #   Z                                           value/Å
     1   7 N        2   6 C                                       1.3427823
     2   6 C        3   7 N                                       1.3116998
     3   7 N        4   6 C                                       1.3372558
     5   7 N        6   6 C                                       1.4341003
[...]
     |                           x T B                           |     
     |                   =====================                   |     
     |                         S. Grimme                         |     
     |          Mulliken Center for Theoretical Chemistry        |     
     |                    University of Bonn                     |     
      -----------------------------------------------------------      

   * xtb version 6.7.1 (edcfbbe) compiled by 'conda@3ef47c1a292c' on 2024-11-25

   xtb is free software: you can redistribute it and/or modify it under
   the terms of the GNU Lesser General Public License as published by
   the Free Software Foundation, either version 3 of the License, or
   (at your option) any later version.
   
   xtb is distributed in the hope that it will be useful,
   but WITHOUT ANY WARRANTY; without even the implied warranty of
   MERCHANTABILITY or FITNESS FOR A PARTICULAR PURPOSE.  See the
   GNU Lesser General Public License for more details.
   
   Cite this work as:
   * C. Bannwarth, E. Caldeweyher, S. Ehlert, A. Hansen, P. Pracht,
     J. Seibert, S. Spicher, S. Grimme, WIREs Comput. Mol. Sci., 2020, 11,
     e01493. DOI: 10.1002/wcms.1493
   
   for GFN2-xTB:
   * C. Bannwarth, S. Ehlert and S. Grimme., J. Chem. Theory Comput., 2019,
     15, 1652-1671. DOI: 10.1021/acs.jctc.8b01176
   for GFN1-xTB:
   * S. Grimme, C. Bannwarth, P. Shushkov, J. Chem. Theory Comput., 2017,
     13, 1989-2009. DOI: 10.1021/acs.jctc.7b00118
   for GFN0-xTB:
   * P. Pracht, E. Caldeweyher, S. Ehlert, S. Grimme, ChemRxiv, 2019, preprint.
     DOI: 10.26434/chemrxiv.8326202.v1
   for GFN-FF:
   * S. Spicher and S. Grimme, Angew. Chem. Int. Ed., 2020, 59, 15665-15673.
     DOI: 10.1002/anie.202004239
   
   for ALPB and GBSA implicit solvation:
   * S. Ehlert, M. Stahn, S. Spicher, S. Grimme, J. Chem. Theory Comput.,
     2021, 17, 4250-4261. DOI: 10.1021/acs.jctc.1c00471
   
   for ddCOSMO and CPCM-X implicit solvation:
   * M. Stahn, S. Ehlert, S. Grimme, J. Phys. Chem. A,
     2023, XX, XXXX-XXXX. DOI: 10.1021/acs.jpca.3c04382
   
   for DFT-D4:
   * E. Caldeweyher, C. Bannwarth and S. Grimme, J. Chem. Phys., 2017,
     147, 034112. DOI: 10.1063/1.4993215
   * E. Caldeweyher, S. Ehlert, A. Hansen, H. Neugebauer, S. Spicher,
     C. Bannwarth and S. Grimme, J. Chem. Phys., 2019, 150, 154122.
     DOI: 10.1063/1.5090222
   * E. Caldeweyher, J.-M. Mewes, S. Ehlert and S. Grimme, Phys. Chem. Chem. Phys.
     2020, 22, 8499-8512. DOI: 10.1039/D0CP00502A
   
   for sTDA-xTB:
   * S. Grimme and C. Bannwarth, J. Chem. Phys., 2016, 145, 054103.
     DOI: 10.1063/1.4959605
   
   in the mass-spec context:
   * V. Asgeirsson, C. Bauer and S. Grimme, Chem. Sci., 2017, 8, 4879.
     DOI: 10.1039/c7sc00601b
   * J. Koopman and S. Grimme, ACS Omega 2019, 4, 12, 15120-15133.
     DOI: 10.1021/acsomega.9b02011
   
   for metadynamics refer to:
   * S. Grimme, J. Chem. Theory Comput., 2019, 155, 2847-2862
     DOI: 10.1021/acs.jctc.9b00143
   
   for SPH calculations refer to:
   * S. Spicher and S. Grimme, J. Chem. Theory Comput., 2021, 17, 1701-1714
     DOI: 10.1021/acs.jctc.0c01306
   
   for ONIOM refer to:
   * C. Plett, A. Katbashev, S. Ehlert, S. Grimme, M. Bursch,
     Phys. Chem. Chem. Phys., 2023, 25, 17860-17868. DOI: 10.1039/D3CP02178E
   
   for DIPRO refer to:
   * J. Kohn, N. Gildemeister, S. Grimme, D. Fazzi, A. Hansen,
     J. Chem. Phys., 2023, just accepted.
   
   for PTB refer to:
   * S. Grimme, M. Mueller, A. Hansen, J. Chem. Phys., 2023, 158, 124111.
     DOI: 10.1063/5.0137838
   
   with help from (in alphabetical order)
   P. Atkinson, C. Bannwarth, F. Bohle, G. Brandenburg, E. Caldeweyher
   M. Checinski, S. Dohm, S. Ehlert, S. Ehrlich, I. Gerasimov, C. Hölzer
   A. Katbashev, J. Kohn, J. Koopman, C. Lavigne, S. Lehtola, F. März, M. Müller,
   F. Musil, H. Neugebauer, J. Pisarek, C. Plett, P. Pracht, F. Pultar,
   J. Seibert, P. Shushkov, S. Spicher, M. Stahn, M. Steiner, T. Strunk,
   J. Stückrath, T. Rose, and J. Unsleber
   
 * started run on 2025/05/15 at 16:13:39.783     
   ID    Z sym.   atoms
    1    7 N      1, 3, 5
    2    6 C      2, 4, 6, 7, 9, 11, 13, 14
    3   16 S      8
    4    8 O      10, 12, 15
    5    1 H      16-26

           -------------------------------------------------
          |                Calculation Setup                |
           -------------------------------------------------

          program call               : xtb /rds/general/user/hgt20/home/callum/QDESCP/Lamivudine_rdkit_conf_3/Lamivudine_rdkit_conf_3.xyz --acc 1 --gfn 2 --chrg 0 --uhf 2 --etemp 300 --input /rds/general/user/hgt20/home/callum/QDESCP/Lamivudine_rdkit_conf_3/Lamivudine_rdkit_conf_3_xtb.inp -P 1
          hostname                   : login-c
          coordinate file            : /rds/general/user/hgt20/home/callum/QDESCP/Lamivudine_rdkit_conf_3/Lamivudine_rdkit_conf_3.xyz
          omp threads                :                     1


           -------------------------------------------------
          |                 G F N 2 - x T B                 |
           -------------------------------------------------

        Reference                      10.1021/acs.jctc.8b01176
      * Hamiltonian:
        H0-scaling (s, p, d)           1.850000    2.230000    2.230000
        zeta-weighting                 0.500000
      * Dispersion:
        s8                             2.700000
        a1                             0.520000
        a2                             5.000000
        s9                             5.000000
      * Repulsion:
        kExp                           1.500000    1.000000
        rExp                           1.000000
      * Coulomb:
        alpha                          2.000000
        third order                    shell-resolved
        anisotropic                    true
        a3                             3.000000
        a5                             4.000000
        cn-shift                       1.200000
        cn-exp                         4.000000
        max-rad                        5.000000


          ...................................................
          :                      SETUP                      :
          :.................................................:
          :  # basis functions                  77          :
          :  # atomic orbitals                  76          :
          :  # shells                           42          :
          :  # electrons                        82          :
          :  max. iterations                   250          :
          :  Hamiltonian                  GFN2-xTB          :
          :  restarted?                      false          :
          :  GBSA solvation                  false          :
          :  PC potential                    false          :
          :  electronic temp.          300.0000000     K    :
          :  accuracy                    1.0000000          :
          :  -> integral cutoff          0.2500000E+02      :
          :  -> integral neglect         0.1000000E-07      :
          :  -> SCF convergence          0.1000000E-05 Eh   :
          :  -> wf. convergence          0.1000000E-03 e    :
          :  Broyden damping             0.4000000          :
          :  net charge                          0          :
          :  unpaired electrons                  2          :
          ...................................................

 iter      E             dE          RMSdq      gap      omega  full diag
   1    -47.1046166 -0.471046E+02  0.512E+00    0.38       0.0  T
   2    -47.1545099 -0.498933E-01  0.372E+00    1.26       1.0  T
   3    -46.9847071  0.169803E+00  0.357E+00    1.18       1.0  T
   4    -47.2014137 -0.216707E+00  0.220E+00    0.94       1.0  T
   5    -47.1152154  0.861983E-01  0.263E+00    0.46       1.0  T
   6    -47.2835132 -0.168298E+00  0.217E+00    0.38       1.0  T
   7    -47.2746105  0.890277E-02  0.165E+00    0.32       1.0  T
   8    -47.2284360  0.461744E-01  0.202E+00    0.61       1.0  T
   9    -47.3260563 -0.976202E-01  0.146E+00    0.42       1.0  T
  10    -47.3174451  0.861117E-02  0.137E+00    0.37       1.0  T
  11    -47.3387257 -0.212806E-01  0.624E-01    0.42       1.0  T
  12    -47.3403660 -0.164027E-02  0.284E-01    0.42       1.0  T
  13    -47.3387685  0.159743E-02  0.489E-01    0.40       1.0  T
  14    -47.3405598 -0.179125E-02  0.956E-02    0.40       1.0  T
  15    -47.3405272  0.325836E-04  0.166E-01    0.39       1.0  T
  16    -47.3408134 -0.286244E-03  0.592E-02    0.40       1.0  T
  17    -47.3408803 -0.668114E-04  0.439E-02    0.39       1.0  T
  18    -47.3409087 -0.284748E-04  0.837E-03    0.39       2.3  T
  19    -47.3409093 -0.540929E-06  0.171E-03    0.39      11.5  T
  20    -47.3409091  0.162883E-06  0.301E-03    0.39       6.5  T
  21    -47.3409093 -0.161161E-06  0.122E-03    0.39      16.1  T
  22    -47.3409093 -0.232987E-07  0.794E-04    0.39      24.7  T
  23    -47.3409093 -0.116663E-07  0.283E-05    0.39     692.3  T

   *** convergence criteria satisfied after 23 iterations ***

         #    Occupation            Energy/Eh            Energy/eV
      -------------------------------------------------------------
         1        2.0000           -0.7538655             -20.5137
       ...           ...                  ...                  ...
        36        2.0000           -0.4339085             -11.8073
        37        2.0000           -0.4184388             -11.3863
        38        2.0000           -0.4073863             -11.0855
        39        1.9151           -0.3963489             -10.7852
        40        1.6585           -0.3947143             -10.7407
        41        1.4265           -0.3938092             -10.7161
        42        0.9995           -0.2527834              -6.8786 (HOMO)
        43        0.0005           -0.2382932              -6.4843 (LUMO)
        44                         -0.2155421              -5.8652
        45                         -0.1701048              -4.6288
        46                         -0.1149801              -3.1288
        47                         -0.0453895              -1.2351
       ...                                ...                  ...
        76                          0.6787789              18.4705
      -------------------------------------------------------------
                  HL-Gap            0.0144902 Eh            0.3943 eV
             Fermi-level           -0.3198145 Eh           -8.7026 eV

 transition dipole moment (au) for excitation:          41          42
     X       Y       Z   
   0.9909   0.3690  -0.0061  total (au/Debye):    1.057   2.688
 dE (eV)             :    3.838
 oscillator strength :  0.14867E+00

 SCC (total)                   0 d,  0 h,  0 min,  0.099 sec
 SCC setup                      ...        0 min,  0.000 sec (  0.219%)
 Dispersion                     ...        0 min,  0.000 sec (  0.182%)
 classical contributions        ...        0 min,  0.000 sec (  0.064%)
 integral evaluation            ...        0 min,  0.004 sec (  4.293%)
 iterations                     ...        0 min,  0.025 sec ( 24.868%)
 molecular gradient             ...        0 min,  0.065 sec ( 65.822%)
 printout                       ...        0 min,  0.005 sec (  4.544%)

         :::::::::::::::::::::::::::::::::::::::::::::::::::::
         ::                     SUMMARY                     ::
         :::::::::::::::::::::::::::::::::::::::::::::::::::::
         :: total energy             -46.852449322244 Eh    ::
         :: gradient norm              0.106896649411 Eh/a0 ::
         :: HOMO-LUMO gap              0.394297782789 eV    ::
         ::.................................................::
         :: SCC energy               -47.340837743153 Eh    ::
         :: -> isotropic ES            0.093872981286 Eh    ::
         :: -> anisotropic ES          0.002163016567 Eh    ::
         :: -> anisotropic XC          0.006520494007 Eh    ::
         :: -> dispersion             -0.025893532645 Eh    ::
         :: repulsion energy           0.488388420909 Eh    ::
         :: add. restraining           0.000000000000 Eh    ::
         :: total charge               0.000000000000 e     ::
         :::::::::::::::::::::::::::::::::::::::::::::::::::::

           -------------------------------------------------
          |                Property Printout                |
           -------------------------------------------------

    * Orbital Energies and Occupations

         #    Occupation            Energy/Eh            Energy/eV
      -------------------------------------------------------------
         1        2.0000           -0.7538655             -20.5137
       ...           ...                  ...                  ...
        30        2.0000           -0.4921423             -13.3919
        31        2.0000           -0.4870634             -13.2537
        32        2.0000           -0.4828724             -13.1396
        33        2.0000           -0.4798008             -13.0560
        34        2.0000           -0.4698341             -12.7848
        35        2.0000           -0.4461856             -12.1413
        36        2.0000           -0.4339085             -11.8073
        37        2.0000           -0.4184388             -11.3863
        38        2.0000           -0.4073863             -11.0855
        39        1.9151           -0.3963489             -10.7852
        40        1.6585           -0.3947143             -10.7407
        41        1.4265           -0.3938092             -10.7161
        42        0.9995           -0.2527834              -6.8786 (HOMO)
        43        0.0005           -0.2382932              -6.4843 (LUMO)
        44                         -0.2155421              -5.8652
        45                         -0.1701048              -4.6288
        46                         -0.1149801              -3.1288
        47                         -0.0453895              -1.2351
        48                         -0.0408293              -1.1110
        49                         -0.0200209              -0.5448
        50                         -0.0142699              -0.3883
        51                          0.0067992               0.1850
        52                          0.0242564               0.6600
        53                          0.0502332               1.3669
       ...                                ...                  ...
        76                          0.6787789              18.4705
      -------------------------------------------------------------
                  HL-Gap            0.0144902 Eh            0.3943 eV
             Fermi-level           -0.3198145 Eh           -8.7026 eV

     #   Z          covCN         q      C6AA      α(0)
     1   7 N        2.655    -0.248    26.451     7.638
     2   6 C        2.868     0.139    24.967     8.191
     3   7 N        1.851    -0.257    27.531     7.777
     4   6 C        2.732     0.332    21.362     7.567
     5   7 N        2.746    -0.101    23.221     7.157
     6   6 C        3.827     0.191    17.565     5.964
     7   6 C        3.796    -0.037    21.245     6.563
     8  16 S        2.061    -0.101   145.269    20.286
     9   6 C        3.780     0.135    18.416     6.114
    10   8 O        1.724    -0.313    19.210     5.918
    11   6 C        3.693     0.078    19.445     6.309
    12   8 O        1.656    -0.418    21.208     6.217
    13   6 C        2.864    -0.009    28.246     8.712
    14   6 C        2.910    -0.077    29.923     8.970
    15   8 O        0.859    -0.424    22.161     6.312
    16   1 H        0.861     0.177     1.232     1.739
    17   1 H        0.860     0.191     1.151     1.680
    18   1 H        0.923     0.062     2.171     2.304
    19   1 H        0.924     0.068     2.103     2.268
    20   1 H        0.925     0.070     2.083     2.257
    21   1 H        0.923     0.033     2.549     2.497
    22   1 H        0.924     0.068     2.105     2.269
    23   1 H        0.923     0.041     2.437     2.441
    24   1 H        0.805     0.307     0.702     1.316
    25   1 H        0.925     0.044     2.400     2.423
    26   1 H        0.926     0.049     2.337     2.390

 Mol. C6AA /au·bohr⁶  :       8770.874011
 Mol. C8AA /au·bohr⁸  :     222895.726368
 Mol. α(0) /au        :        143.276383


Wiberg/Mayer (AO) data.
largest (>0.10) Wiberg bond orders for each atom

 ---------------------------------------------------------------------------
     #   Z sym  total        # sym  WBO       # sym  WBO       # sym  WBO
 ---------------------------------------------------------------------------
     1   7 N    3.267 --     2 C    1.201    16 H    0.952    17 H    0.945
     2   6 C    3.841 --     3 N    1.269    14 C    1.217     1 N    1.201
     3   7 N    2.917 --     4 C    1.287     2 C    1.269    15 O    0.160
     4   6 C    3.942 --    15 O    1.621     3 N    1.287     5 N    0.933
     5   7 N    3.404 --    13 C    1.170     6 C    1.008     4 C    0.933
     6   6 C    3.931 --     5 N    1.008     7 C    0.953    10 O    0.950
                            18 H    0.945
     7   6 C    3.960 --     8 S    0.972    20 H    0.971    19 H    0.965
                             6 C    0.953
     8  16 S    2.100 --     7 C    0.972     9 C    0.868
     9   6 C    3.907 --    10 O    1.013    11 C    0.978    21 H    0.952
                             8 S    0.868
    10   8 O    2.126 --     9 C    1.013     6 C    0.950
    11   6 C    3.958 --    12 O    1.024     9 C    0.978    22 H    0.967
                            23 H    0.958
    12   8 O    1.977 --    11 C    1.024    24 H    0.887
    13   6 C    3.822 --    14 C    1.412     5 N    1.170    25 H    0.948
    14   6 C    3.769 --    13 C    1.412     2 C    1.217    26 H    0.963
    15   8 O    1.969 --     4 C    1.621     3 N    0.160
    16   1 H    0.968 --     1 N    0.952
    17   1 H    0.961 --     1 N    0.945
    18   1 H    0.994 --     6 C    0.945
    19   1 H    0.986 --     7 C    0.965
    20   1 H    0.990 --     7 C    0.971
    21   1 H    0.990 --     9 C    0.952
    22   1 H    0.994 --    11 C    0.967
    23   1 H    0.997 --    11 C    0.958
    24   1 H    0.906 --    12 O    0.887
    25   1 H    0.983 --    13 C    0.948
    26   1 H    0.991 --    14 C    0.963
 ---------------------------------------------------------------------------

Topologies differ in total number of bonds
Writing topology from bond orders to xtbtopo.mol

molecular dipole:
                 x           y           z       tot (Debye)
 q only:        0.180       0.681      -1.156
   full:        0.527       1.086      -1.141       4.222
molecular quadrupole (traceless):
                xx          xy          yy          xz          yz          zz
 q only:        8.476      10.305       0.769     -18.780      -0.234      -9.245
  q+dip:        3.341       7.813       1.534     -23.906      -0.832      -4.875
   full:        3.796       7.532       2.224     -24.536      -0.010      -6.019


           -------------------------------------------------
          | TOTAL ENERGY              -46.852449322244 Eh   |
          | GRADIENT NORM               0.106896649411 Eh/α |
          | HOMO-LUMO GAP               0.394297782789 eV   |
           -------------------------------------------------

------------------------------------------------------------------------
 * finished run on 2025/05/15 at 16:13:39.892     
------------------------------------------------------------------------
 total:
 * wall-time:     0 d,  0 h,  0 min,  0.109 sec
 *  cpu-time:     0 d,  0 h,  0 min,  0.054 sec
 * ratio c/w:     0.492 speedup
 SCF:
 * wall-time:     0 d,  0 h,  0 min,  0.099 sec
 *  cpu-time:     0 d,  0 h,  0 min,  0.045 sec
 * ratio c/w:     0.453 speedup


