26
 energy: -46.981282014633 gnorm: 0.000972900626 xtb: 6.7.1 (edcfbbe)
N            4.36289599823635        1.56728876317498       -0.65812005898454
C            3.18759909899262        0.98808128286190       -0.36441968566891
N            3.10867821168671        0.33809200355871        0.77217236586301
C            1.99153352142027       -0.27837188723665        1.17243828815302
N            0.84831430315264       -0.17102301771693        0.29131976595709
C           -0.38421686164640       -0.77230692975696        0.71080494262347
C           -0.72580354529225       -2.04427947937619       -0.08443400294028
S           -2.53211369948892       -2.18170834154342        0.03068954105141
C           -2.64879527230205       -0.49119684828717        0.79506403907035
O           -1.44145324391609        0.14166604807979        0.52325092717674
C           -3.79484056540569        0.33537994870262        0.21240081433070
O           -3.57397429626618        0.67437781022116       -1.12316415281021
C            0.93153974986513        0.48909012057673       -0.88124461606293
C            2.08349364941330        1.08635642970525       -1.26667137362887
O            1.86826044433498       -0.91321700200727        2.19095991677633
H            4.49438635224241        2.09112962441998       -1.50319207518777
H            5.10835745968361        1.48715550865884        0.01089455393278
H           -0.26966309431507       -1.02076178702494        1.77845523532878
H           -0.44488600568735       -1.94008454911757       -1.13408077769001
H           -0.25383847150284       -2.92537713188688        0.34270053911947
H           -2.79003095915653       -0.64906381780590        1.87391823865809
H           -4.71707245158610       -0.24736050501326        0.24668981511313
H           -3.91309680893128        1.23684914872685        0.83371195948577
H           -2.69081357345023        1.06075256357119       -1.18248545174005
H            0.03222693571381        0.52102829236396       -1.48185902594629
H            2.16311312420455        1.61750375215278       -2.19929972197960
