----- Optimization -----
      -----------------------------------------------------------      
     |                   =====================                   |     
     |                           x T B                           |     
     |                   =====================                   |     
     |                         S. Grimme                         |     
     |          Mulliken Center for Theoretical Chemistry        |     
     |                    University of Bonn                     |     
      -----------------------------------------------------------      

   * xtb version 6.7.1 (edcfbbe) compiled by 'conda@3ef47c1a292c' on 2024-11-25

   xtb is free software: you can redistribute it and/or modify it under
   the terms of the GNU Lesser General Public License as published by
   the Free Software Foundation, either version 3 of the License, or
   (at your option) any later version.
   
   xtb is distributed in the hope that it will be useful,
   but WITHOUT ANY WARRANTY; without even the implied warranty of
   MERCHANTABILITY or FITNESS FOR A PARTICULAR PURPOSE.  See the
   GNU Lesser General Public License for more details.
   
   Cite this work as:
   * C. Bannwarth, E. Caldeweyher, S. Ehlert, A. Hansen, P. Pracht,
     J. Seibert, S. Spicher, S. Grimme, WIREs Comput. Mol. Sci., 2020, 11,
     e01493. DOI: 10.1002/wcms.1493
   
   for GFN2-xTB:
   * C. Bannwarth, S. Ehlert and S. Grimme., J. Chem. Theory Comput., 2019,
     15, 1652-1671. DOI: 10.1021/acs.jctc.8b01176
   for GFN1-xTB:
   * S. Grimme, C. Bannwarth, P. Shushkov, J. Chem. Theory Comput., 2017,
     13, 1989-2009. DOI: 10.1021/acs.jctc.7b00118
   for GFN0-xTB:
   * P. Pracht, E. Caldeweyher, S. Ehlert, S. Grimme, ChemRxiv, 2019, preprint.
     DOI: 10.26434/chemrxiv.8326202.v1
   for GFN-FF:
   * S. Spicher and S. Grimme, Angew. Chem. Int. Ed., 2020, 59, 15665-15673.
     DOI: 10.1002/anie.202004239
   
   for ALPB and GBSA implicit solvation:
   * S. Ehlert, M. Stahn, S. Spicher, S. Grimme, J. Chem. Theory Comput.,
     2021, 17, 4250-4261. DOI: 10.1021/acs.jctc.1c00471
   
   for ddCOSMO and CPCM-X implicit solvation:
   * M. Stahn, S. Ehlert, S. Grimme, J. Phys. Chem. A,
     2023, XX, XXXX-XXXX. DOI: 10.1021/acs.jpca.3c04382
   
   for DFT-D4:
   * E. Caldeweyher, C. Bannwarth and S. Grimme, J. Chem. Phys., 2017,
     147, 034112. DOI: 10.1063/1.4993215
   * E. Caldeweyher, S. Ehlert, A. Hansen, H. Neugebauer, S. Spicher,
     C. Bannwarth and S. Grimme, J. Chem. Phys., 2019, 150, 154122.
     DOI: 10.1063/1.5090222
   * E. Caldeweyher, J.-M. Mewes, S. Ehlert and S. Grimme, Phys. Chem. Chem. Phys.
     2020, 22, 8499-8512. DOI: 10.1039/D0CP00502A
   
   for sTDA-xTB:
   * S. Grimme and C. Bannwarth, J. Chem. Phys., 2016, 145, 054103.
     DOI: 10.1063/1.4959605
   
   in the mass-spec context:
   * V. Asgeirsson, C. Bauer and S. Grimme, Chem. Sci., 2017, 8, 4879.
     DOI: 10.1039/c7sc00601b
   * J. Koopman and S. Grimme, ACS Omega 2019, 4, 12, 15120-15133.
     DOI: 10.1021/acsomega.9b02011
   
   for metadynamics refer to:
   * S. Grimme, J. Chem. Theory Comput., 2019, 155, 2847-2862
     DOI: 10.1021/acs.jctc.9b00143
   
   for SPH calculations refer to:
   * S. Spicher and S. Grimme, J. Chem. Theory Comput., 2021, 17, 1701-1714
     DOI: 10.1021/acs.jctc.0c01306
   
   for ONIOM refer to:
   * C. Plett, A. Katbashev, S. Ehlert, S. Grimme, M. Bursch,
     Phys. Chem. Chem. Phys., 2023, 25, 17860-17868. DOI: 10.1039/D3CP02178E
   
   for DIPRO refer to:
   * J. Kohn, N. Gildemeister, S. Grimme, D. Fazzi, A. Hansen,
     J. Chem. Phys., 2023, just accepted.
   
   for PTB refer to:
   * S. Grimme, M. Mueller, A. Hansen, J. Chem. Phys., 2023, 158, 124111.
     DOI: 10.1063/5.0137838
   
   with help from (in alphabetical order)
   P. Atkinson, C. Bannwarth, F. Bohle, G. Brandenburg, E. Caldeweyher
   M. Checinski, S. Dohm, S. Ehlert, S. Ehrlich, I. Gerasimov, C. Hölzer
   A. Katbashev, J. Kohn, J. Koopman, C. Lavigne, S. Lehtola, F. März, M. Müller,
   F. Musil, H. Neugebauer, J. Pisarek, C. Plett, P. Pracht, F. Pultar,
   J. Seibert, P. Shushkov, S. Spicher, M. Stahn, M. Steiner, T. Strunk,
   J. Stückrath, T. Rose, and J. Unsleber
   
 * started run on 2025/05/15 at 16:10:50.185     
   ID    Z sym.   atoms
    1    6 C      1-7, 9, 11, 13-16, 18, 19, 21, 22, 24, 26-31
    2    7 N      8, 10, 12, 17, 20, 23, 25
    3    8 O      32, 33
    4    1 H      34-62

           -------------------------------------------------
          |                Calculation Setup                |
           -------------------------------------------------

          program call               : xtb /rds/general/user/hgt20/home/callum/QDESCP/Palbociclib_rdkit_conf_19/Palbociclib_rdkit_conf_19.xyz --opt normal --acc 1 --gfn 2 --chrg 0 --uhf 0 -P 1
          hostname                   : login-c
          coordinate file            : /rds/general/user/hgt20/home/callum/QDESCP/Palbociclib_rdkit_conf_19/Palbociclib_rdkit_conf_19.xyz
          omp threads                :                     1


           -------------------------------------------------
          |                 G F N 2 - x T B                 |
           -------------------------------------------------

        Reference                      10.1021/acs.jctc.8b01176
      * Hamiltonian:
        H0-scaling (s, p, d)           1.850000    2.230000    2.230000
        zeta-weighting                 0.500000
      * Dispersion:
        s8                             2.700000
        a1                             0.520000
        a2                             5.000000
        s9                             5.000000
      * Repulsion:
        kExp                           1.500000    1.000000
        rExp                           1.000000
      * Coulomb:
        alpha                          2.000000
        third order                    shell-resolved
        anisotropic                    true
        a3                             3.000000
        a5                             4.000000
        cn-shift                       1.200000
        cn-exp                         4.000000
        max-rad                        5.000000


          ...................................................
          :                      SETUP                      :
          :.................................................:
          :  # basis functions                 161          :
          :  # atomic orbitals                 161          :
          :  # shells                           95          :
          :  # electrons                       172          :
          :  max. iterations                   250          :
          :  Hamiltonian                  GFN2-xTB          :
          :  restarted?                      false          :
          :  GBSA solvation                  false          :
          :  PC potential                    false          :
          :  electronic temp.          300.0000000     K    :
          :  accuracy                    1.0000000          :
          :  -> integral cutoff          0.2500000E+02      :
          :  -> integral neglect         0.1000000E-07      :
          :  -> SCF convergence          0.1000000E-05 Eh   :
          :  -> wf. convergence          0.1000000E-03 e    :
          :  Broyden damping             0.4000000          :
          :  net charge                          0          :
          :  unpaired electrons                  0          :
          ...................................................

 iter      E             dE          RMSdq      gap      omega  full diag
   1    -95.9158366 -0.959158E+02  0.371E+00    1.65       0.0  T
   2    -96.0693024 -0.153466E+00  0.218E+00    1.85       1.0  T
   3    -96.0798342 -0.105318E-01  0.120E+00    1.72       1.0  T
   4    -96.0870035 -0.716924E-02  0.328E-01    1.55       1.0  T
   5    -96.0916071 -0.460367E-02  0.132E-01    1.65       1.0  T
   6    -96.0923542 -0.747081E-03  0.544E-02    1.63       1.0  T
   7    -96.0924295 -0.752807E-04  0.212E-02    1.64       1.0  T
   8    -96.0924330 -0.353107E-05  0.904E-03    1.65       1.4  T
   9    -96.0924343 -0.128203E-05  0.373E-03    1.65       3.4  T
  10    -96.0924347 -0.373885E-06  0.148E-03    1.64       8.6  T
  11    -96.0924347 -0.705926E-07  0.654E-04    1.64      19.4  T
  12    -96.0924347 -0.539404E-08  0.269E-04    1.64      47.3  T

   *** convergence criteria satisfied after 12 iterations ***

         #    Occupation            Energy/Eh            Energy/eV
      -------------------------------------------------------------
         1        2.0000           -0.6999307             -19.0461
       ...           ...                  ...                  ...
        80        2.0000           -0.4012993             -10.9199
        81        2.0000           -0.3946024             -10.7377
        82        2.0000           -0.3886832             -10.5766
        83        2.0000           -0.3761306             -10.2350
        84        2.0000           -0.3739082             -10.1746
        85        2.0000           -0.3701815             -10.0732
        86        2.0000           -0.3515899              -9.5672 (HOMO)
        87                         -0.2911637              -7.9230 (LUMO)
        88                         -0.2696939              -7.3387
        89                         -0.2502445              -6.8095
        90                         -0.2425641              -6.6005
        91                         -0.2327607              -6.3337
       ...                                ...                  ...
       161                          0.6860430              18.6682
      -------------------------------------------------------------
                  HL-Gap            0.0604262 Eh            1.6443 eV
             Fermi-level           -0.3213768 Eh           -8.7451 eV

 SCC (total)                   0 d,  0 h,  0 min,  0.198 sec
 SCC setup                      ...        0 min,  0.001 sec (  0.344%)
 Dispersion                     ...        0 min,  0.001 sec (  0.519%)
 classical contributions        ...        0 min,  0.000 sec (  0.154%)
 integral evaluation            ...        0 min,  0.013 sec (  6.758%)
 iterations                     ...        0 min,  0.096 sec ( 48.415%)
 molecular gradient             ...        0 min,  0.086 sec ( 43.616%)
 printout                       ...        0 min,  0.000 sec (  0.190%)

         :::::::::::::::::::::::::::::::::::::::::::::::::::::
         ::                     SUMMARY                     ::
         :::::::::::::::::::::::::::::::::::::::::::::::::::::
         :: total energy             -94.850015398449 Eh    ::
         :: gradient norm              0.129008279133 Eh/a0 ::
         :: HOMO-LUMO gap              1.644280399917 eV    ::
         ::.................................................::
         :: SCC energy               -96.092426255301 Eh    ::
         :: -> isotropic ES            0.110965975478 Eh    ::
         :: -> anisotropic ES          0.011325704311 Eh    ::
         :: -> anisotropic XC          0.054608738042 Eh    ::
         :: -> dispersion             -0.069810938252 Eh    ::
         :: repulsion energy           1.242410856852 Eh    ::
         :: add. restraining           0.000000000000 Eh    ::
         :: total charge               0.000000000000 e     ::
         :::::::::::::::::::::::::::::::::::::::::::::::::::::

      ----------------------------------------------------------- 
     |                   =====================                   |
     |                        A N C O P T                        |
     |                   =====================                   |
     |               Approximate Normal Coordinate               |
     |                Rational Function Optimizer                |
      ----------------------------------------------------------- 
      ----------------------------------------------------------- 
     |                   =====================                   |
     |                        A N C O P T                        |
     |                   =====================                   |
     |               Approximate Normal Coordinate               |
     |                Rational Function Optimizer                |
      ----------------------------------------------------------- 

          ...................................................
          :                      SETUP                      :
          :.................................................:
          :   optimization level            normal          :
          :   max. optcycles                   200          :
          :   ANC micro-cycles                  20          :
          :   degrees of freedom               180          :
          :.................................................:
          :   RF solver                   davidson          :
          :   write xtbopt.log                true          :
          :   linear?                        false          :
          :   energy convergence         0.5000000E-05 Eh   :
          :   grad. convergence          0.1000000E-02 Eh/α :
          :   maxmium RF displ.          1.0000000          :
          :   Hlow (freq-cutoff)         0.1000000E-01      :
          :   Hmax (freq-cutoff)         5.0000000          :
          :   S6 in model hess.         20.0000000          :
          ...................................................

generating ANC from exact Hessian ...
Using Lindh-Hessian (1995)
 Shifting diagonal of input Hessian by    9.8788074573493995E-003
 Lowest  eigenvalues of input Hessian
    0.000000    0.000000    0.000000    0.000000    0.000000    0.000000
    0.010000    0.010122    0.010363    0.010439    0.010901    0.011083
    0.011265    0.011621    0.012035    0.012373    0.013270    0.013921
 Highest eigenvalues
    2.055614    2.067171    2.130889    2.218316    2.269633    2.297087


........................................................................
.............................. CYCLE    1 ..............................
........................................................................

 iter      E             dE          RMSdq      gap      omega  full diag
   1    -96.0924347 -0.960924E+02  0.896E-05    1.64       0.0  T
   2    -96.0924347 -0.163269E-09  0.576E-05    1.64     220.3  T
   3    -96.0924347 -0.124942E-09  0.341E-05    1.64     372.5  T
     SCC iter.                  ...        0 min,  0.054 sec
     gradient                   ...        0 min,  0.047 sec
 * total energy  :   -94.8500154 Eh     change       -0.1286466E-08 Eh
   gradient norm :     0.1290094 Eh/α   predicted     0.0000000E+00 (-100.00%)
   displ. norm   :     0.4038034 α      lambda       -0.2159836E-01
   maximum displ.:     0.1285148 α      in ANC's #24, #19, #37, ...

........................................................................
.............................. CYCLE    2 ..............................
........................................................................

 iter      E             dE          RMSdq      gap      omega  full diag
   1    -96.1360465 -0.961360E+02  0.180E-01    1.65       0.0  T
   2    -96.1363419 -0.295366E-03  0.111E-01    1.73       1.0  T
   3    -96.1363690 -0.271008E-04  0.611E-02    1.71       1.0  T
   4    -96.1364257 -0.566789E-04  0.163E-02    1.72       1.0  T
   5    -96.1364412 -0.155226E-04  0.506E-03    1.72       2.5  T
   6    -96.1364422 -0.998326E-06  0.240E-03    1.72       5.3  T
   7    -96.1364422 -0.568514E-07  0.103E-03    1.72      12.4  T
   8    -96.1364423 -0.311554E-07  0.320E-04    1.72      39.7  T
   9    -96.1364423 -0.236916E-08  0.163E-04    1.72      77.9  T
     SCC iter.                  ...        0 min,  0.038 sec
     gradient                   ...        0 min,  0.092 sec
 * total energy  :   -94.8656573 Eh     change       -0.1564193E-01 Eh
   gradient norm :     0.0589433 Eh/α   predicted    -0.1259406E-01 ( -19.49%)
   displ. norm   :     0.4492192 α      lambda       -0.9546732E-02
   maximum displ.:     0.1782394 α      in ANC's #24, #19, #13, ...

........................................................................
.............................. CYCLE    3 ..............................
........................................................................

 iter      E             dE          RMSdq      gap      omega  full diag
   1    -96.1681881 -0.961682E+02  0.140E-01    1.69       0.0  T
   2    -96.1684242 -0.236122E-03  0.861E-02    1.77       1.0  T
   3    -96.1684816 -0.573826E-04  0.500E-02    1.76       1.0  T
   4    -96.1685046 -0.229944E-04  0.151E-02    1.77       1.0  T
   5    -96.1685175 -0.128954E-04  0.423E-03    1.77       3.0  T
   6    -96.1685184 -0.885251E-06  0.171E-03    1.77       7.4  T
   7    -96.1685184 -0.291839E-07  0.724E-04    1.77      17.6  T
   8    -96.1685184 -0.120168E-07  0.222E-04    1.77      57.3  T
     SCC iter.                  ...        0 min,  0.075 sec
     gradient                   ...        0 min,  0.087 sec
 * total energy  :   -94.8716707 Eh     change       -0.6013324E-02 Eh
   gradient norm :     0.0193306 Eh/α   predicted    -0.5740806E-02 (  -4.53%)
   displ. norm   :     0.3536758 α      lambda       -0.2338318E-02
   maximum displ.:     0.1464955 α      in ANC's #19, #13, #24, ...

........................................................................
.............................. CYCLE    4 ..............................
........................................................................

 iter      E             dE          RMSdq      gap      omega  full diag
   1    -96.1784284 -0.961784E+02  0.671E-02    1.74       0.0  T
   2    -96.1784657 -0.372381E-04  0.407E-02    1.77       1.0  T
   3    -96.1784662 -0.530952E-06  0.243E-02    1.76       1.0  T
   4    -96.1784768 -0.106446E-04  0.683E-03    1.77       1.9  T
   5    -96.1784796 -0.275863E-05  0.187E-03    1.77       6.8  T
   6    -96.1784798 -0.152665E-06  0.783E-04    1.77      16.2  T
   7    -96.1784798 -0.661211E-08  0.266E-04    1.77      47.8  T
     SCC iter.                  ...        0 min,  0.069 sec
     gradient                   ...        0 min,  0.047 sec
 * total energy  :   -94.8733470 Eh     change       -0.1676330E-02 Eh
   gradient norm :     0.0140616 Eh/α   predicted    -0.1315446E-02 ( -21.53%)
   displ. norm   :     0.3654435 α      lambda       -0.1309352E-02
   maximum displ.:     0.1481904 α      in ANC's #13, #19, #9, ...

........................................................................
.............................. CYCLE    5 ..............................
........................................................................

 iter      E             dE          RMSdq      gap      omega  full diag
   1    -96.1835323 -0.961835E+02  0.586E-02    1.74       0.0  T
   2    -96.1835473 -0.150058E-04  0.350E-02    1.76       1.0  T
   3    -96.1835405  0.685665E-05  0.169E-02    1.76       1.0  T
   4    -96.1835505 -0.100117E-04  0.422E-03    1.76       3.0  T
   5    -96.1835515 -0.102946E-05  0.148E-03    1.76       8.6  T
   6    -96.1835516 -0.642296E-07  0.686E-04    1.76      18.5  T
   7    -96.1835516 -0.427801E-08  0.214E-04    1.76      59.4  T
     SCC iter.                  ...        0 min,  0.031 sec
     gradient                   ...        0 min,  0.088 sec
 * total energy  :   -94.8742293 Eh     change       -0.8822910E-03 Eh
   gradient norm :     0.0086312 Eh/α   predicted    -0.7421161E-03 ( -15.89%)
   displ. norm   :     0.2765693 α      lambda       -0.5238664E-03
   maximum displ.:     0.1211390 α      in ANC's #9, #13, #19, ...

........................................................................
.............................. CYCLE    6 ..............................
........................................................................

 iter      E             dE          RMSdq      gap      omega  full diag
   1    -96.1851481 -0.961851E+02  0.421E-02    1.75       0.0  T
   2    -96.1851509 -0.274302E-05  0.246E-02    1.75       1.0  T
   3    -96.1851480  0.289481E-05  0.778E-03    1.75       1.6  T
   4    -96.1851515 -0.355406E-05  0.190E-03    1.75       6.7  T
   5    -96.1851517 -0.163762E-06  0.846E-04    1.75      15.0  T
   6    -96.1851517 -0.113033E-07  0.392E-04    1.75      32.4  T
     SCC iter.                  ...        0 min,  0.071 sec
     gradient                   ...        0 min,  0.048 sec
 * total energy  :   -94.8746075 Eh     change       -0.3782172E-03 Eh
   gradient norm :     0.0066167 Eh/α   predicted    -0.2820178E-03 ( -25.43%)
   displ. norm   :     0.2920269 α      lambda       -0.4009187E-03
   maximum displ.:     0.1460350 α      in ANC's #9, #5, #7, ...

........................................................................
.............................. CYCLE    7 ..............................
........................................................................

 iter      E             dE          RMSdq      gap      omega  full diag
   1    -96.1853185 -0.961853E+02  0.459E-02    1.75       0.0  T
   2    -96.1853202 -0.163673E-05  0.268E-02    1.74       1.0  T
   3    -96.1853195  0.608140E-06  0.416E-03    1.75       3.1  T
   4    -96.1853205 -0.925383E-06  0.162E-03    1.74       7.8  T
   5    -96.1853206 -0.982127E-07  0.778E-04    1.75      16.3  T
   6    -96.1853206 -0.804927E-08  0.343E-04    1.75      37.0  T
     SCC iter.                  ...        0 min,  0.025 sec
     gradient                   ...        0 min,  0.087 sec
 * total energy  :   -94.8749030 Eh     change       -0.2955227E-03 Eh
   gradient norm :     0.0068594 Eh/α   predicted    -0.2175615E-03 ( -26.38%)
   displ. norm   :     0.3094450 α      lambda       -0.3554259E-03
   maximum displ.:     0.1564193 α      in ANC's #9, #5, #7, ...

........................................................................
.............................. CYCLE    8 ..............................
........................................................................

 iter      E             dE          RMSdq      gap      omega  full diag
   1    -96.1846418 -0.961846E+02  0.541E-02    1.75       0.0  T
   2    -96.1846437 -0.188209E-05  0.318E-02    1.74       1.0  T
   3    -96.1846421  0.153704E-05  0.593E-03    1.74       2.1  T
   4    -96.1846441 -0.200056E-05  0.188E-03    1.74       6.8  T
   5    -96.1846442 -0.119635E-06  0.901E-04    1.74      14.1  T
   6    -96.1846442 -0.122185E-07  0.397E-04    1.74      32.0  T
     SCC iter.                  ...        0 min,  0.026 sec
     gradient                   ...        0 min,  0.080 sec
 * total energy  :   -94.8751688 Eh     change       -0.2658313E-03 Eh
   gradient norm :     0.0076067 Eh/α   predicted    -0.1947351E-03 ( -26.74%)
   displ. norm   :     0.3252872 α      lambda       -0.3439804E-03
   maximum displ.:     0.1523393 α      in ANC's #9, #5, #7, ...

........................................................................
.............................. CYCLE    9 ..............................
........................................................................

 iter      E             dE          RMSdq      gap      omega  full diag
   1    -96.1838624 -0.961839E+02  0.606E-02    1.74       0.0  T
   2    -96.1838646 -0.217043E-05  0.356E-02    1.74       1.0  T
   3    -96.1838607  0.386281E-05  0.889E-03    1.74       1.4  T
   4    -96.1838654 -0.470877E-05  0.201E-03    1.74       6.3  T
   5    -96.1838656 -0.109040E-06  0.104E-03    1.74      12.2  T
   6    -96.1838656 -0.183829E-07  0.444E-04    1.74      28.6  T
   7    -96.1838656 -0.390011E-08  0.169E-04    1.74      75.3  T
     SCC iter.                  ...        0 min,  0.031 sec
     gradient                   ...        0 min,  0.093 sec
 * total energy  :   -94.8754297 Eh     change       -0.2608122E-03 Eh
   gradient norm :     0.0074307 Eh/α   predicted    -0.1901913E-03 ( -27.08%)
   displ. norm   :     0.3280418 α      lambda       -0.3437185E-03
   maximum displ.:     0.1336593 α      in ANC's #5, #9, #2, ...

........................................................................
.............................. CYCLE   10 ..............................
........................................................................

 iter      E             dE          RMSdq      gap      omega  full diag
   1    -96.1837497 -0.961837E+02  0.641E-02    1.73       0.0  T
   2    -96.1837525 -0.281756E-05  0.374E-02    1.74       1.0  T
   3    -96.1837455  0.708770E-05  0.120E-02    1.74       1.1  T
   4    -96.1837538 -0.835359E-05  0.218E-03    1.74       5.8  T
   5    -96.1837539 -0.142951E-06  0.108E-03    1.74      11.8  T
   6    -96.1837540 -0.186643E-07  0.464E-04    1.74      27.4  T
   7    -96.1837540 -0.457244E-08  0.179E-04    1.74      71.0  T
     SCC iter.                  ...        0 min,  0.082 sec
     gradient                   ...        0 min,  0.086 sec
 * total energy  :   -94.8756821 Eh     change       -0.2524819E-03 Eh
   gradient norm :     0.0063011 Eh/α   predicted    -0.1903561E-03 ( -24.61%)
   displ. norm   :     0.3032101 α      lambda       -0.2553177E-03
   maximum displ.:     0.1194728 α      in ANC's #2, #5, #7, ...

........................................................................
.............................. CYCLE   11 ..............................
........................................................................

 iter      E             dE          RMSdq      gap      omega  full diag
   1    -96.1837297 -0.961837E+02  0.554E-02    1.73       0.0  T
   2    -96.1837318 -0.210656E-05  0.322E-02    1.73       1.0  T
   3    -96.1837259  0.592253E-05  0.110E-02    1.73       1.2  T
   4    -96.1837328 -0.695438E-05  0.195E-03    1.73       6.5  T
   5    -96.1837330 -0.112559E-06  0.941E-04    1.73      13.5  T
   6    -96.1837330 -0.919434E-08  0.381E-04    1.73      33.3  T
     SCC iter.                  ...        0 min,  0.026 sec
     gradient                   ...        0 min,  0.087 sec
 * total energy  :   -94.8758573 Eh     change       -0.1751544E-03 Eh
   gradient norm :     0.0062284 Eh/α   predicted    -0.1393998E-03 ( -20.41%)
   displ. norm   :     0.1998523 α      lambda       -0.1813179E-03
   maximum displ.:     0.0875767 α      in ANC's #2, #5, #17, ...

........................................................................
.............................. CYCLE   12 ..............................
........................................................................

 iter      E             dE          RMSdq      gap      omega  full diag
   1    -96.1861400 -0.961861E+02  0.398E-02    1.72       0.0  T
   2    -96.1861424 -0.240449E-05  0.228E-02    1.72       1.0  T
   3    -96.1861390  0.336366E-05  0.884E-03    1.72       1.4  T
   4    -96.1861430 -0.397267E-05  0.200E-03    1.72       6.4  T
   5    -96.1861431 -0.175429E-06  0.750E-04    1.72      16.9  T
   6    -96.1861431 -0.486837E-08  0.336E-04    1.72      37.8  T
     SCC iter.                  ...        0 min,  0.062 sec
     gradient                   ...        0 min,  0.087 sec
 * total energy  :   -94.8759294 Eh     change       -0.7213164E-04 Eh
   gradient norm :     0.0052528 Eh/α   predicted    -0.9428306E-04 (  30.71%)
   displ. norm   :     0.2079131 α      lambda       -0.1209184E-03
   maximum displ.:     0.0886627 α      in ANC's #2, #5, #7, ...

........................................................................
.............................. CYCLE   13 ..............................
........................................................................

 iter      E             dE          RMSdq      gap      omega  full diag
   1    -96.1839771 -0.961840E+02  0.339E-02    1.71       0.0  T
   2    -96.1839785 -0.137817E-05  0.199E-02    1.71       1.0  T
   3    -96.1839766  0.183849E-05  0.634E-03    1.72       2.0  T
   4    -96.1839789 -0.221887E-05  0.164E-03    1.71       7.7  T
   5    -96.1839790 -0.976121E-07  0.741E-04    1.72      17.1  T
   6    -96.1839790 -0.398187E-08  0.331E-04    1.72      38.4  T
     SCC iter.                  ...        0 min,  0.026 sec
     gradient                   ...        0 min,  0.081 sec
 * total energy  :   -94.8759755 Eh     change       -0.4603431E-04 Eh
   gradient norm :     0.0047643 Eh/α   predicted    -0.6307957E-04 (  37.03%)
   displ. norm   :     0.0831829 α      lambda       -0.5492925E-04
   maximum displ.:     0.0481425 α      in ANC's #9, #5, #7, ...

........................................................................
.............................. CYCLE   14 ..............................
........................................................................

 iter      E             dE          RMSdq      gap      omega  full diag
   1    -96.1859200 -0.961859E+02  0.210E-02    1.72       0.0  T
   2    -96.1859213 -0.131162E-05  0.122E-02    1.72       1.0  T
   3    -96.1859201  0.118665E-05  0.558E-03    1.72       2.3  T
   4    -96.1859215 -0.142342E-05  0.135E-03    1.72       9.4  T
   5    -96.1859216 -0.893569E-07  0.420E-04    1.72      30.2  T
   6    -96.1859216 -0.422996E-08  0.215E-04    1.72      59.1  T
     SCC iter.                  ...        0 min,  0.026 sec
     gradient                   ...        0 min,  0.075 sec
 * total energy  :   -94.8760090 Eh     change       -0.3358579E-04 Eh
   gradient norm :     0.0038640 Eh/α   predicted    -0.2765531E-04 ( -17.66%)
   displ. norm   :     0.0656189 α      lambda       -0.4713923E-04
   maximum displ.:     0.0350433 α      in ANC's #9, #2, #3, ...

........................................................................
.............................. CYCLE   15 ..............................
........................................................................

 iter      E             dE          RMSdq      gap      omega  full diag
   1    -96.1861305 -0.961861E+02  0.149E-02    1.72       0.0  T
   2    -96.1861308 -0.371081E-06  0.865E-03    1.72       1.5  T
   3    -96.1861305  0.313796E-06  0.290E-03    1.72       4.4  T
   4    -96.1861309 -0.381981E-06  0.718E-04    1.72      17.7  T
   5    -96.1861309 -0.221008E-07  0.291E-04    1.72      43.7  T
     SCC iter.                  ...        0 min,  0.060 sec
     gradient                   ...        0 min,  0.086 sec
 * total energy  :   -94.8760412 Eh     change       -0.3213544E-04 Eh
   gradient norm :     0.0018075 Eh/α   predicted    -0.2368041E-04 ( -26.31%)
   displ. norm   :     0.2088606 α      lambda       -0.4748497E-04
   maximum displ.:     0.1088602 α      in ANC's #2, #14, #9, ...

........................................................................
.............................. CYCLE   16 ..............................
........................................................................

 iter      E             dE          RMSdq      gap      omega  full diag
   1    -96.1858346 -0.961858E+02  0.334E-02    1.72       0.0  T
   2    -96.1858355 -0.866184E-06  0.196E-02    1.72       1.0  T
   3    -96.1858341  0.135037E-05  0.529E-03    1.72       2.4  T
   4    -96.1858357 -0.156700E-05  0.123E-03    1.72      10.3  T
   5    -96.1858357 -0.626849E-07  0.510E-04    1.72      24.9  T
   6    -96.1858357 -0.422402E-08  0.237E-04    1.72      53.5  T
     SCC iter.                  ...        0 min,  0.026 sec
     gradient                   ...        0 min,  0.081 sec
 * total energy  :   -94.8760848 Eh     change       -0.4363398E-04 Eh
   gradient norm :     0.0043091 Eh/α   predicted    -0.2420365E-04 ( -44.53%)
   displ. norm   :     0.0958535 α      lambda       -0.3208064E-04
   maximum displ.:     0.0534168 α      in ANC's #2, #9, #3, ...

........................................................................
.............................. CYCLE   17 ..............................
........................................................................

 iter      E             dE          RMSdq      gap      omega  full diag
   1    -96.1855361 -0.961855E+02  0.146E-02    1.72       0.0  T
   2    -96.1855362 -0.144190E-06  0.856E-03    1.72       1.5  T
   3    -96.1855362  0.916722E-07  0.155E-03    1.72       8.2  T
   4    -96.1855363 -0.124769E-06  0.435E-04    1.72      29.2  T
   5    -96.1855363 -0.572560E-08  0.226E-04    1.72      56.2  T
     SCC iter.                  ...        0 min,  0.021 sec
     gradient                   ...        0 min,  0.081 sec
 * total energy  :   -94.8761112 Eh     change       -0.2637293E-04 Eh
   gradient norm :     0.0030646 Eh/α   predicted    -0.1618899E-04 ( -38.62%)
   displ. norm   :     0.1877237 α      lambda       -0.5477237E-04
   maximum displ.:     0.1030374 α      in ANC's #2, #9, #14, ...

........................................................................
.............................. CYCLE   18 ..............................
........................................................................

 iter      E             dE          RMSdq      gap      omega  full diag
   1    -96.1850981 -0.961851E+02  0.302E-02    1.72       0.0  T
   2    -96.1850989 -0.784026E-06  0.176E-02    1.72       1.0  T
   3    -96.1850982  0.692260E-06  0.392E-03    1.72       3.2  T
   4    -96.1850990 -0.830801E-06  0.117E-03    1.72      10.8  T
   5    -96.1850991 -0.675362E-07  0.491E-04    1.72      25.9  T
   6    -96.1850991 -0.266769E-08  0.234E-04    1.72      54.4  T
     SCC iter.                  ...        0 min,  0.054 sec
     gradient                   ...        0 min,  0.048 sec
 * total energy  :   -94.8761467 Eh     change       -0.3554331E-04 Eh
   gradient norm :     0.0021964 Eh/α   predicted    -0.2835438E-04 ( -20.23%)
   displ. norm   :     0.1013852 α      lambda       -0.2647432E-04
   maximum displ.:     0.0514231 α      in ANC's #2, #9, #3, ...

........................................................................
.............................. CYCLE   19 ..............................
........................................................................

 iter      E             dE          RMSdq      gap      omega  full diag
   1    -96.1854244 -0.961854E+02  0.190E-02    1.72       0.0  T
   2    -96.1854248 -0.364232E-06  0.111E-02    1.72       1.1  T
   3    -96.1854242  0.584973E-06  0.349E-03    1.72       3.6  T
   4    -96.1854249 -0.674256E-06  0.850E-04    1.72      14.9  T
   5    -96.1854249 -0.369300E-07  0.316E-04    1.72      40.2  T
     SCC iter.                  ...        0 min,  0.021 sec
     gradient                   ...        0 min,  0.081 sec
 * total energy  :   -94.8761674 Eh     change       -0.2067269E-04 Eh
   gradient norm :     0.0023414 Eh/α   predicted    -0.1337433E-04 ( -35.30%)
   displ. norm   :     0.1876191 α      lambda       -0.4545612E-04
   maximum displ.:     0.0995438 α      in ANC's #2, #3, #14, ...

........................................................................
.............................. CYCLE   20 ..............................
........................................................................

 iter      E             dE          RMSdq      gap      omega  full diag
   1    -96.1855571 -0.961856E+02  0.347E-02    1.73       0.0  T
   2    -96.1855579 -0.809209E-06  0.204E-02    1.73       1.0  T
   3    -96.1855555  0.235690E-05  0.666E-03    1.73       1.9  T
   4    -96.1855583 -0.271659E-05  0.120E-03    1.73      10.5  T
   5    -96.1855583 -0.563053E-07  0.538E-04    1.73      23.6  T
   6    -96.1855583 -0.236176E-08  0.258E-04    1.73      49.2  T
     SCC iter.                  ...        0 min,  0.026 sec
     gradient                   ...        0 min,  0.079 sec
 * total energy  :   -94.8762024 Eh     change       -0.3502489E-04 Eh
   gradient norm :     0.0035252 Eh/α   predicted    -0.2353135E-04 ( -32.82%)
   displ. norm   :     0.2301680 α      lambda       -0.6260118E-04
   maximum displ.:     0.1146125 α      in ANC's #2, #3, #13, ...
 * RMSD in coord.:     0.3952212 α      energy gain  -0.2618703E-01 Eh

generating ANC from exact Hessian ...
Using Lindh-Hessian (1995)
 Shifting diagonal of input Hessian by    9.8690892483904065E-003
 Lowest  eigenvalues of input Hessian
    0.000000    0.000000    0.000000    0.000000    0.000000    0.000000
    0.010000    0.010107    0.010368    0.010487    0.010961    0.011180
    0.011402    0.011691    0.012150    0.012526    0.013479    0.014262
 Highest eigenvalues
    2.119189    2.169700    2.226006    2.299145    2.356796    2.388683


........................................................................
.............................. CYCLE   21 ..............................
........................................................................

 iter      E             dE          RMSdq      gap      omega  full diag
   1    -96.1860046 -0.961860E+02  0.472E-02    1.73       0.0  T
   2    -96.1860058 -0.119435E-05  0.276E-02    1.73       1.0  T
   3    -96.1860008  0.500490E-05  0.959E-03    1.73       1.3  T
   4    -96.1860066 -0.577271E-05  0.140E-03    1.73       9.1  T
   5    -96.1860067 -0.554521E-07  0.690E-04    1.73      18.4  T
   6    -96.1860067 -0.262348E-08  0.282E-04    1.73      45.1  T
     SCC iter.                  ...        0 min,  0.027 sec
     gradient                   ...        0 min,  0.091 sec
 * total energy  :   -94.8762474 Eh     change       -0.4492594E-04 Eh
   gradient norm :     0.0039290 Eh/α   predicted     0.0000000E+00 (-100.00%)
   displ. norm   :     0.0258767 α      lambda       -0.9875997E-05
   maximum displ.:     0.0121036 α      in ANC's #15, #14, #5, ...

........................................................................
.............................. CYCLE   22 ..............................
........................................................................

 iter      E             dE          RMSdq      gap      omega  full diag
   1    -96.1863455 -0.961863E+02  0.723E-03    1.73       0.0  T
   2    -96.1863457 -0.256527E-06  0.418E-03    1.73       3.0  T
   3    -96.1863457  0.595631E-07  0.178E-03    1.73       7.1  T
   4    -96.1863458 -0.826095E-07  0.548E-04    1.73      23.2  T
   5    -96.1863458 -0.161480E-07  0.169E-04    1.73      75.3  T
     SCC iter.                  ...        0 min,  0.061 sec
     gradient                   ...        0 min,  0.048 sec
 * total energy  :   -94.8762661 Eh     change       -0.1877690E-04 Eh
   gradient norm :     0.0020869 Eh/α   predicted    -0.1146148E-04 ( -38.96%)
   displ. norm   :     0.0733927 α      lambda       -0.3783216E-04
   maximum displ.:     0.0320745 α      in ANC's #15, #5, #14, ...

........................................................................
.............................. CYCLE   23 ..............................
........................................................................

 iter      E             dE          RMSdq      gap      omega  full diag
   1    -96.1865215 -0.961865E+02  0.179E-02    1.74       0.0  T
   2    -96.1865223 -0.781477E-06  0.103E-02    1.73       1.2  T
   3    -96.1865220  0.305510E-06  0.323E-03    1.73       3.9  T
   4    -96.1865223 -0.388929E-06  0.892E-04    1.73      14.2  T
   5    -96.1865224 -0.443883E-07  0.313E-04    1.73      40.5  T
     SCC iter.                  ...        0 min,  0.022 sec
     gradient                   ...        0 min,  0.081 sec
 * total energy  :   -94.8762895 Eh     change       -0.2331864E-04 Eh
   gradient norm :     0.0016352 Eh/α   predicted    -0.1901818E-04 ( -18.44%)
   displ. norm   :     0.0725231 α      lambda       -0.1105727E-04
   maximum displ.:     0.0336283 α      in ANC's #5, #15, #14, ...

........................................................................
.............................. CYCLE   24 ..............................
........................................................................

 iter      E             dE          RMSdq      gap      omega  full diag
   1    -96.1863838 -0.961864E+02  0.156E-02    1.73       0.0  T
   2    -96.1863839 -0.113708E-06  0.911E-03    1.73       1.4  T
   3    -96.1863838  0.136360E-06  0.159E-03    1.73       8.0  T
   4    -96.1863839 -0.173195E-06  0.443E-04    1.73      28.7  T
   5    -96.1863840 -0.581258E-08  0.218E-04    1.73      58.3  T
     SCC iter.                  ...        0 min,  0.022 sec
     gradient                   ...        0 min,  0.082 sec
 * total energy  :   -94.8763021 Eh     change       -0.1261428E-04 Eh
   gradient norm :     0.0024463 Eh/α   predicted    -0.5685712E-05 ( -54.93%)
   displ. norm   :     0.0786614 α      lambda       -0.1821490E-04
   maximum displ.:     0.0373432 α      in ANC's #5, #3, #14, ...

........................................................................
.............................. CYCLE   25 ..............................
........................................................................

 iter      E             dE          RMSdq      gap      omega  full diag
   1    -96.1862489 -0.961862E+02  0.164E-02    1.73       0.0  T
   2    -96.1862490 -0.126494E-06  0.962E-03    1.73       1.3  T
   3    -96.1862489  0.138790E-06  0.171E-03    1.73       7.4  T
   4    -96.1862491 -0.172218E-06  0.501E-04    1.73      25.4  T
   5    -96.1862491 -0.826783E-08  0.216E-04    1.73      58.8  T
     SCC iter.                  ...        0 min,  0.022 sec
     gradient                   ...        0 min,  0.080 sec
 * total energy  :   -94.8763170 Eh     change       -0.1492892E-04 Eh
   gradient norm :     0.0019608 Eh/α   predicted    -0.9164497E-05 ( -38.61%)
   displ. norm   :     0.2110279 α      lambda       -0.2530517E-04
   maximum displ.:     0.1009582 α      in ANC's #5, #3, #13, ...

........................................................................
.............................. CYCLE   26 ..............................
........................................................................

 iter      E             dE          RMSdq      gap      omega  full diag
   1    -96.1856477 -0.961856E+02  0.433E-02    1.73       0.0  T
   2    -96.1856486 -0.905054E-06  0.254E-02    1.73       1.0  T
   3    -96.1856481  0.532861E-06  0.377E-03    1.73       3.4  T
   4    -96.1856488 -0.720416E-06  0.134E-03    1.73       9.5  T
   5    -96.1856488 -0.609929E-07  0.580E-04    1.73      21.9  T
   6    -96.1856489 -0.335069E-08  0.240E-04    1.73      52.8  T
     SCC iter.                  ...        0 min,  0.065 sec
     gradient                   ...        0 min,  0.048 sec
 * total energy  :   -94.8763331 Eh     change       -0.1607781E-04 Eh
   gradient norm :     0.0021816 Eh/α   predicted    -0.1290441E-04 ( -19.74%)
   displ. norm   :     0.0152780 α      lambda       -0.8994974E-05
   maximum displ.:     0.0075569 α      in ANC's #15, #9, #12, ...

........................................................................
.............................. CYCLE   27 ..............................
........................................................................

 iter      E             dE          RMSdq      gap      omega  full diag
   1    -96.1861351 -0.961861E+02  0.448E-03    1.73       0.0  T
   2    -96.1861351 -0.362458E-07  0.257E-03    1.73       4.9  T
   3    -96.1861351  0.210665E-07  0.772E-04    1.73      16.4  T
   4    -96.1861351 -0.244113E-07  0.273E-04    1.73      46.4  T
     SCC iter.                  ...        0 min,  0.018 sec
     gradient                   ...        0 min,  0.070 sec
 * total energy  :   -94.8763403 Eh     change       -0.7228846E-05 Eh
   gradient norm :     0.0013193 Eh/α   predicted    -0.4546155E-05 ( -37.11%)
   displ. norm   :     0.0839952 α      lambda       -0.1581854E-04
   maximum displ.:     0.0423853 α      in ANC's #3, #13, #5, ...

........................................................................
.............................. CYCLE   28 ..............................
........................................................................

 iter      E             dE          RMSdq      gap      omega  full diag
   1    -96.1869776 -0.961870E+02  0.196E-02    1.73       0.0  T
   2    -96.1869780 -0.398442E-06  0.114E-02    1.73       1.1  T
   3    -96.1869771  0.930045E-06  0.427E-03    1.73       3.0  T
   4    -96.1869781 -0.106351E-05  0.814E-04    1.73      15.6  T
   5    -96.1869781 -0.301078E-07  0.293E-04    1.73      43.4  T
   6    -96.1869781 -0.209326E-09  0.135E-04    1.73      94.2  T
     SCC iter.                  ...        0 min,  0.026 sec
     gradient                   ...        0 min,  0.091 sec
 * total energy  :   -94.8763539 Eh     change       -0.1358469E-04 Eh
   gradient norm :     0.0015250 Eh/α   predicted    -0.7971186E-05 ( -41.32%)
   displ. norm   :     0.1072862 α      lambda       -0.9219997E-05
   maximum displ.:     0.0516116 α      in ANC's #3, #5, #13, ...

........................................................................
.............................. CYCLE   29 ..............................
........................................................................

 iter      E             dE          RMSdq      gap      omega  full diag
   1    -96.1865489 -0.961865E+02  0.215E-02    1.74       0.0  T
   2    -96.1865491 -0.188571E-06  0.126E-02    1.74       1.0  T
   3    -96.1865485  0.625821E-06  0.337E-03    1.73       3.8  T
   4    -96.1865492 -0.727096E-06  0.596E-04    1.74      21.3  T
   5    -96.1865492 -0.809283E-08  0.291E-04    1.74      43.7  T
     SCC iter.                  ...        0 min,  0.055 sec
     gradient                   ...        0 min,  0.048 sec
 * total energy  :   -94.8763657 Eh     change       -0.1177270E-04 Eh
   gradient norm :     0.0012992 Eh/α   predicted    -0.4634482E-05 ( -60.63%)
   displ. norm   :     0.2301796 α      lambda       -0.1630572E-04
   maximum displ.:     0.1126888 α      in ANC's #3, #5, #13, ...

........................................................................
.............................. CYCLE   30 ..............................
........................................................................

 iter      E             dE          RMSdq      gap      omega  full diag
   1    -96.1852362 -0.961852E+02  0.465E-02    1.74       0.0  T
   2    -96.1852370 -0.754939E-06  0.273E-02    1.74       1.0  T
   3    -96.1852343  0.263971E-05  0.698E-03    1.74       1.8  T
   4    -96.1852374 -0.309649E-05  0.124E-03    1.74      10.3  T
   5    -96.1852374 -0.253747E-07  0.617E-04    1.74      20.6  T
   6    -96.1852374 -0.491194E-08  0.226E-04    1.74      56.3  T
     SCC iter.                  ...        0 min,  0.046 sec
     gradient                   ...        0 min,  0.048 sec
 * total energy  :   -94.8763767 Eh     change       -0.1105598E-04 Eh
   gradient norm :     0.0023330 Eh/α   predicted    -0.8349972E-05 ( -24.48%)
   displ. norm   :     0.0190301 α      lambda       -0.8114403E-05
   maximum displ.:     0.0066020 α      in ANC's #13, #9, #10, ...

........................................................................
.............................. CYCLE   31 ..............................
........................................................................

 iter      E             dE          RMSdq      gap      omega  full diag
   1    -96.1856777 -0.961857E+02  0.440E-03    1.74       0.0  T
   2    -96.1856778 -0.343833E-07  0.255E-03    1.74       5.0  T
   3    -96.1856778  0.574708E-08  0.585E-04    1.74      21.7  T
   4    -96.1856778 -0.107590E-07  0.163E-04    1.74      78.0  T
     SCC iter.                  ...        0 min,  0.039 sec
     gradient                   ...        0 min,  0.089 sec
 * total energy  :   -94.8763830 Eh     change       -0.6287484E-05 Eh
   gradient norm :     0.0014095 Eh/α   predicted    -0.4073565E-05 ( -35.21%)
   displ. norm   :     0.0826630 α      lambda       -0.1101166E-04
   maximum displ.:     0.0508761 α      in ANC's #3, #2, #9, ...

........................................................................
.............................. CYCLE   32 ..............................
........................................................................

 iter      E             dE          RMSdq      gap      omega  full diag
   1    -96.1867374 -0.961867E+02  0.173E-02    1.74       0.0  T
   2    -96.1867377 -0.294064E-06  0.100E-02    1.74       1.3  T
   3    -96.1867374  0.351241E-06  0.275E-03    1.74       4.6  T
   4    -96.1867378 -0.423163E-06  0.747E-04    1.74      17.0  T
   5    -96.1867378 -0.210872E-07  0.313E-04    1.74      40.6  T
     SCC iter.                  ...        0 min,  0.022 sec
     gradient                   ...        0 min,  0.075 sec
 * total energy  :   -94.8763917 Eh     change       -0.8676309E-05 Eh
   gradient norm :     0.0009572 Eh/α   predicted    -0.5526082E-05 ( -36.31%)
   displ. norm   :     0.0872995 α      lambda       -0.4358697E-05
   maximum displ.:     0.0484661 α      in ANC's #3, #5, #2, ...

........................................................................
.............................. CYCLE   33 ..............................
........................................................................

 iter      E             dE          RMSdq      gap      omega  full diag
   1    -96.1866447 -0.961866E+02  0.172E-02    1.74       0.0  T
   2    -96.1866448 -0.123850E-06  0.101E-02    1.74       1.3  T
   3    -96.1866446  0.160371E-06  0.182E-03    1.74       7.0  T
   4    -96.1866448 -0.206751E-06  0.502E-04    1.74      25.3  T
   5    -96.1866448 -0.536140E-08  0.230E-04    1.74      55.2  T
     SCC iter.                  ...        0 min,  0.022 sec
     gradient                   ...        0 min,  0.066 sec
 * total energy  :   -94.8763973 Eh     change       -0.5618734E-05 Eh
   gradient norm :     0.0006632 Eh/α   predicted    -0.2191993E-05 ( -60.99%)
   displ. norm   :     0.1274876 α      lambda       -0.5968733E-05
   maximum displ.:     0.0732962 α      in ANC's #3, #2, #5, ...

........................................................................
.............................. CYCLE   34 ..............................
........................................................................

 iter      E             dE          RMSdq      gap      omega  full diag
   1    -96.1864369 -0.961864E+02  0.255E-02    1.74       0.0  T
   2    -96.1864371 -0.234939E-06  0.149E-02    1.74       1.0  T
   3    -96.1864364  0.700034E-06  0.356E-03    1.74       3.6  T
   4    -96.1864373 -0.839062E-06  0.674E-04    1.74      18.8  T
   5    -96.1864373 -0.442371E-08  0.289E-04    1.74      44.0  T
     SCC iter.                  ...        0 min,  0.022 sec
     gradient                   ...        0 min,  0.065 sec
 * total energy  :   -94.8764035 Eh     change       -0.6181569E-05 Eh
   gradient norm :     0.0007750 Eh/α   predicted    -0.3006894E-05 ( -51.36%)
   displ. norm   :     0.0850808 α      lambda       -0.3391463E-05
   maximum displ.:     0.0526805 α      in ANC's #3, #2, #1, ...

........................................................................
.............................. CYCLE   35 ..............................
........................................................................

 iter      E             dE          RMSdq      gap      omega  full diag
   1    -96.1864662 -0.961865E+02  0.167E-02    1.74       0.0  T
   2    -96.1864663 -0.141560E-06  0.972E-03    1.74       1.3  T
   3    -96.1864661  0.244633E-06  0.219E-03    1.74       5.8  T
   4    -96.1864664 -0.300958E-06  0.511E-04    1.74      24.8  T
   5    -96.1864664 -0.566484E-08  0.221E-04    1.74      57.4  T
     SCC iter.                  ...        0 min,  0.022 sec
     gradient                   ...        0 min,  0.063 sec
 * total energy  :   -94.8764077 Eh     change       -0.4210394E-05 Eh
   gradient norm :     0.0007049 Eh/α   predicted    -0.1702095E-05 ( -59.57%)
   displ. norm   :     0.0816657 α      lambda       -0.4184545E-05
   maximum displ.:     0.0529048 α      in ANC's #3, #2, #1, ...

   *** GEOMETRY OPTIMIZATION CONVERGED AFTER 35 ITERATIONS ***

------------------------------------------------------------------------
 total energy gain   :        -0.0263923 Eh      -16.5614 kcal/mol
 total RMSD          :         0.4558847 a0        0.2412 Å
 total power (kW/mol):        -1.9797988 (step)  -14.4070 (real)
------------------------------------------------------------------------

 ANCopt (total)                0 d,  0 h,  0 min,  4.810 sec
 optimizer setup                ...        0 min,  0.000 sec (  0.002%)
 model hessian                  ...        0 min,  0.051 sec (  1.063%)
 ANC generation                 ...        0 min,  0.007 sec (  0.136%)
 coordinate transformation      ...        0 min,  0.001 sec (  0.014%)
 single point calculation       ...        0 min,  4.735 sec ( 98.441%)
 optimization log               ...        0 min,  0.007 sec (  0.153%)
 hessian update                 ...        0 min,  0.001 sec (  0.018%)
 rational function              ...        0 min,  0.004 sec (  0.075%)

================
 final structure:
================
62
 xtb: 6.7.1 (edcfbbe)
C           -6.84424178102626       -1.86861225105355       -1.03955675750142
C           -6.43495949964525       -1.60002742364361        0.38001477094883
C           -4.95954419893377       -1.51595775148537        0.61636024054256
C           -4.36263157725685       -2.20530318047179        1.63227589049309
C           -5.10427121073733       -3.12686093395573        2.54682744150199
C           -2.95339029952174       -2.06303541976977        1.81412350684277
C           -2.20267040071468       -2.69725106609763        2.81717504196640
N           -0.91656717125820       -2.52724742994931        2.96991897487455
C           -0.30125596640052       -1.68586482465469        2.11272671323931
N            1.01741659267247       -1.54380408504240        2.34903315541055
C            1.99282974616221       -0.77448450306668        1.73159645858178
N            3.21834283280023       -1.01260672866442        2.18923930694348
C            4.23796019421609       -0.35504992688332        1.68129361964245
C            4.12311213586390        0.60710731032783        0.66377856038579
C            2.81764336305118        0.86455445987199        0.21186317037954
C            1.74821908695421        0.17710635187132        0.74366309489116
N            5.20532388020491        1.27257130346782        0.16022155012491
C            6.49983783475602        1.22003950425378        0.80425643023989
C            7.30651883908567        2.45733554715175        0.42250786539756
N            7.59410919845883        2.45806608409503       -1.00631576692023
C            6.55054657374121        1.81490644578573       -1.78757818854951
C            5.16685968419331        1.91615809831965       -1.13563686830091
N           -0.89728455252580       -1.04272765311755        1.11538959162325
C           -2.20710697492536       -1.22470518634012        0.95184753804543
N           -2.82427398998170       -0.57829513348337       -0.07420888317618
C           -2.01241230622515        0.24196666356493       -0.97204158118029
C           -2.23219692066175       -0.04741907630075       -2.47233432186422
C           -2.64266439604208        1.29106992081711       -3.09132202779706
C           -2.00208452370656        2.32916127910196       -2.17468032907233
C           -2.25928847542821        1.74824035692630       -0.78854700923448
C           -4.20394156150426       -0.63095858364340       -0.26761839459789
O           -4.71877808414728        0.05226218714115       -1.13591495270925
O           -7.23543011147491       -1.47858110810073        1.27843790534495
H           -7.91491167634498       -2.04882683779812       -1.08791765546877
H           -6.58676223004453       -0.99694939712563       -1.63943536536800
H           -6.29654728511807       -2.72208190793896       -1.43513397084422
H           -5.01269630981198       -2.77605486419580        3.57364467501821
H           -6.15873407914835       -3.16956483195947        2.29907191162569
H           -4.68175165711980       -4.12969760923667        2.49060333396253
H           -2.66891049050030       -3.36826834318054        3.52511849890298
H            1.37127229218745       -2.12199808340988        3.10193042646990
H            5.19690752399152       -0.62099794036721        2.10163695590530
H            2.63676697859991        1.61771326615685       -0.53936274129606
H            0.74138460265152        0.37454207903836        0.42382774813514
H            7.06050895012475        0.31801734415332        0.52176844660160
H            6.35704101376783        1.21502580551080        1.88779268533403
H            8.25903369506989        2.45414868519736        0.96141682446599
H            6.74061711351984        3.34707289699316        0.74109884613713
H            7.75333821948113        3.40822515426130       -1.31992650980277
H            6.52246228128530        2.24838354791432       -2.78826402589756
H            6.80737854379576        0.75393422166413       -1.89029959086678
H            4.87582285447643        2.97393419195004       -1.04267040045023
H            4.43512981364222        1.41323595499993       -1.77345608667663
H           -0.98365132643598       -0.00204459954317       -0.70784994379625
H           -1.29825787212309       -0.40266503578723       -2.91038287423671
H           -2.98999953266726       -0.81096016858759       -2.63101441980374
H           -2.32034366853776        1.38303061764343       -4.12743123540494
H           -3.72607206845192        1.39107799732113       -3.04552659056763
H           -0.92833091145036        2.39134496893123       -2.36460362671264
H           -2.43493543274317        3.32065372662661       -2.29539463759731
H           -3.30019008325039        1.91531510968703       -0.51416287248470
H           -1.61939521890265        2.17240080411651       -0.01527355179924

 Bond Distances (Angstroems)
 ---------------------------
C1-C2=1.5016         C1-H34=1.0868        C1-H35=1.0890        C1-H36=1.0885        C2-C1=1.5016         C2-C3=1.4966         
C2-O33=1.2094        C3-C2=1.4966         C3-C4=1.3651         C3-C31=1.4614        C4-C3=1.3651         C4-C5=1.4952         
C4-C6=1.4280         C5-C4=1.4952         C5-H37=1.0889        C5-H38=1.0840        C5-H39=1.0897        C6-C4=1.4280         
C6-C7=1.4043         C6-C24=1.4154        C7-C6=1.4043         C7-N8=1.3063         C7-H40=1.0811        N8-C7=1.3063         
N8-C9=1.3496         C9-N8=1.3496         C9-N10=1.3472        C9-N23=1.3280        N10-C9=1.3472        N10-C11=1.3873       
N10-H41=1.0131       C11-N10=1.3873       C11-N12=1.3297       C11-C16=1.3933       N12-C11=1.3297       N12-C13=1.3153       
C13-N12=1.3153       C13-C14=1.4051       C13-H42=1.0803       C14-C13=1.4051       C14-C15=1.4053       C14-N17=1.3666       
C15-C14=1.4053       C15-C16=1.3781       C15-H43=1.0790       C16-C11=1.3933       C16-C15=1.3781       C16-H44=1.0747       
N17-C14=1.3666       N17-C18=1.4468       N17-C22=1.4474       C18-N17=1.4468       C18-C19=1.5256       C18-H45=1.0990       
C18-H46=1.0929       C19-C18=1.5256       C19-N20=1.4575       C19-H47=1.0944       C19-H48=1.1015       N20-C19=1.4575       
N20-C21=1.4536       N20-H49=1.0132       C21-N20=1.4536       C21-C22=1.5329       C21-H50=1.0909       C21-H51=1.0964       
C22-N17=1.4474       C22-C21=1.5329       C22-H52=1.1010       C22-H53=1.0932       N23-C9=1.3280        N23-C24=1.3325       
C24-C6=1.4154        C24-N23=1.3325       C24-N25=1.3607       N25-C24=1.3607       N25-C26=1.4622       N25-C31=1.3942       
C26-N25=1.4622       C26-C27=1.5437       C26-C30=1.5374       C26-H54=1.0898       C27-C26=1.5437       C27-C28=1.5307       
C27-H55=1.0910       C27-H56=1.0874       C28-C27=1.5307       C28-C29=1.5258       C28-H57=1.0890       C28-H58=1.0890       
C29-C28=1.5258       C29-C30=1.5248       C29-H59=1.0922       C29-H60=1.0886       C30-C26=1.5374       C30-C29=1.5248       
C30-H61=1.0893       C30-H62=1.0896       C31-C3=1.4614        C31-N25=1.3942       C31-O32=1.2189       O32-C31=1.2189       
O33-C2=1.2094        H34-C1=1.0868        H35-C1=1.0890        H36-C1=1.0885        H37-C5=1.0889        H38-C5=1.0840        
H39-C5=1.0897        H40-C7=1.0811        H41-N10=1.0131       H42-C13=1.0803       H43-C15=1.0790       H44-C16=1.0747       
H45-C18=1.0990       H46-C18=1.0929       H47-C19=1.0944       H48-C19=1.1015       H49-N20=1.0132       H50-C21=1.0909       
H51-C21=1.0964       H52-C22=1.1010       H53-C22=1.0932       H54-C26=1.0898       H55-C27=1.0910       H56-C27=1.0874       
H57-C28=1.0890       H58-C28=1.0890       H59-C29=1.0922       H60-C29=1.0886       H61-C30=1.0893       H62-C30=1.0896       
 C  H  Rav=1.0895 sigma=0.0061  Rmin=1.0747  Rmax=1.1015    27
 C  C  Rav=1.4669 sigma=0.0615  Rmin=1.3651  Rmax=1.5437    19
 N  H  Rav=1.0131 sigma=0.0000  Rmin=1.0131  Rmax=1.0132     2
 N  C  Rav=1.3803 sigma=0.0543  Rmin=1.3063  Rmax=1.4622    16
 O  C  Rav=1.2142 sigma=0.0048  Rmin=1.2094  Rmax=1.2189     2

 selected bond angles (degree)
 --------------------
H34-C1-C2=109.89               H35-C1-C2=108.25               H35-C1-H34=109.95              H36-C1-C2=110.28               
H36-C1-H34=110.46              H36-C1-H35=107.96              C3-C2-C1=115.34                O33-C2-C1=122.67               
O33-C2-C3=121.98               C4-C3-C2=121.35                C31-C3-C2=116.63               C31-C3-C4=122.00               
C5-C4-C3=123.33                C6-C4-C3=118.42                C6-C4-C5=118.23                H37-C5-C4=109.66               
H38-C5-C4=111.53               H38-C5-H37=108.06              H39-C5-C4=110.08               H39-C5-H37=108.21              
H39-C5-H38=109.22              C7-C6-C4=125.00                C24-C6-C4=120.12               C24-C6-C7=114.88               
N8-C7-C6=123.44                H40-C7-C6=121.16               H40-C7-N8=115.39               C9-N8-C7=117.11                
N10-C9-N8=113.62               N23-C9-N8=125.05               N23-C9-N10=121.33              C11-N10-C9=131.96              
H41-N10-C9=114.33              H41-N10-C11=113.68             

 selected dihedral angles (degree)
 ---------------------------------
C3-C2-C1-H34=172.17           C3-C2-C1-H35=292.26           C3-C2-C1-H36= 50.17           O33-C2-C1-H34=353.22          
O33-C2-C1-H35=113.30          O33-C2-C1-H36=231.22          C4-C3-C2-C1=228.67            C4-C3-C2-O33= 47.63           
C31-C3-C2-C1= 50.45           C31-C3-C2-O33=229.41          C5-C4-C3-C2=  2.39            C5-C4-C3-C31=180.52           
C6-C4-C3-C2=180.98            C6-C4-C3-C31=359.10           H37-C5-C4-C3=240.21           H37-C5-C4-C6= 61.62           
H38-C5-C4-C3=359.87           H38-C5-C4-C6=181.28           H39-C5-C4-C3=121.26           H39-C5-C4-C6=302.68           
C7-C6-C4-C3=179.48            C7-C6-C4-C5=358.14            C24-C6-C4-C3=359.92           C24-C6-C4-C5=178.57           
N8-C7-C6-C4=181.22            N8-C7-C6-C24=  0.80           H40-C7-C6-C4=  1.07           H40-C7-C6-C24=180.65          
C9-N8-C7-C6=  0.49            C9-N8-C7-H40=180.64           N10-C9-N8-C7=178.84           N23-C9-N8-C7=358.59           
C11-N10-C9-N8=181.26          C11-N10-C9-N23=  1.49         H41-N10-C9-N8=  3.04          H41-N10-C9-N23=183.28         
           -------------------------------------------------
          |                Final Singlepoint                |
           -------------------------------------------------

          ...................................................
          :                      SETUP                      :
          :.................................................:
          :  # basis functions                 161          :
          :  # atomic orbitals                 161          :
          :  # shells                           95          :
          :  # electrons                       172          :
          :  max. iterations                   250          :
          :  Hamiltonian                  GFN2-xTB          :
          :  restarted?                      false          :
          :  GBSA solvation                  false          :
          :  PC potential                    false          :
          :  electronic temp.          300.0000000     K    :
          :  accuracy                    1.0000000          :
          :  -> integral cutoff          0.2500000E+02      :
          :  -> integral neglect         0.1000000E-07      :
          :  -> SCF convergence          0.1000000E-05 Eh   :
          :  -> wf. convergence          0.1000000E-03 e    :
          :  Broyden damping             0.4000000          :
          :  net charge                          0          :
          :  unpaired electrons                  0          :
          ...................................................

 iter      E             dE          RMSdq      gap      omega  full diag
   1    -96.1864664 -0.961865E+02  0.796E-05    1.74       0.0  T
   2    -96.1864664 -0.989502E-10  0.520E-05    1.74     244.0  T
   3    -96.1864664 -0.682263E-10  0.326E-05    1.74     389.7  T

   *** convergence criteria satisfied after 3 iterations ***

         #    Occupation            Energy/Eh            Energy/eV
      -------------------------------------------------------------
         1        2.0000           -0.7018622             -19.0986
       ...           ...                  ...                  ...
        80        2.0000           -0.3984900             -10.8435
        81        2.0000           -0.3890261             -10.5859
        82        2.0000           -0.3842829             -10.4569
        83        2.0000           -0.3752170             -10.2102
        84        2.0000           -0.3726834             -10.1412
        85        2.0000           -0.3691528             -10.0452
        86        2.0000           -0.3511844              -9.5562 (HOMO)
        87                         -0.2872332              -7.8160 (LUMO)
        88                         -0.2594366              -7.0596
        89                         -0.2428808              -6.6091
        90                         -0.2355341              -6.4092
        91                         -0.2261447              -6.1537
       ...                                ...                  ...
       161                          0.6938010              18.8793
      -------------------------------------------------------------
                  HL-Gap            0.0639512 Eh            1.7402 eV
             Fermi-level           -0.3192088 Eh           -8.6861 eV

 SCC (total)                   0 d,  0 h,  0 min,  0.082 sec
 SCC setup                      ...        0 min,  0.001 sec (  0.715%)
 Dispersion                     ...        0 min,  0.001 sec (  0.768%)
 classical contributions        ...        0 min,  0.000 sec (  0.363%)
 integral evaluation            ...        0 min,  0.013 sec ( 15.770%)
 iterations                     ...        0 min,  0.013 sec ( 16.298%)
 molecular gradient             ...        0 min,  0.054 sec ( 65.699%)
 printout                       ...        0 min,  0.000 sec (  0.379%)

         :::::::::::::::::::::::::::::::::::::::::::::::::::::
         ::                     SUMMARY                     ::
         :::::::::::::::::::::::::::::::::::::::::::::::::::::
         :: total energy             -94.876407692594 Eh    ::
         :: gradient norm              0.000704762464 Eh/a0 ::
         :: HOMO-LUMO gap              1.740200234147 eV    ::
         ::.................................................::
         :: SCC energy               -96.186408505067 Eh    ::
         :: -> isotropic ES            0.109734264870 Eh    ::
         :: -> anisotropic ES          0.007146848541 Eh    ::
         :: -> anisotropic XC          0.052560800610 Eh    ::
         :: -> dispersion             -0.071496544617 Eh    ::
         :: repulsion energy           1.310000812472 Eh    ::
         :: add. restraining           0.000000000000 Eh    ::
         :: total charge               0.000000000000 e     ::
         :::::::::::::::::::::::::::::::::::::::::::::::::::::

           -------------------------------------------------
          |                Property Printout                |
           -------------------------------------------------

    * Orbital Energies and Occupations

         #    Occupation            Energy/Eh            Energy/eV
      -------------------------------------------------------------
         1        2.0000           -0.7018622             -19.0986
       ...           ...                  ...                  ...
        74        2.0000           -0.4325575             -11.7705
        75        2.0000           -0.4314230             -11.7396
        76        2.0000           -0.4222005             -11.4887
        77        2.0000           -0.4189699             -11.4008
        78        2.0000           -0.4161381             -11.3237
        79        2.0000           -0.4072114             -11.0808
        80        2.0000           -0.3984900             -10.8435
        81        2.0000           -0.3890261             -10.5859
        82        2.0000           -0.3842829             -10.4569
        83        2.0000           -0.3752170             -10.2102
        84        2.0000           -0.3726834             -10.1412
        85        2.0000           -0.3691528             -10.0452
        86        2.0000           -0.3511844              -9.5562 (HOMO)
        87                         -0.2872332              -7.8160 (LUMO)
        88                         -0.2594366              -7.0596
        89                         -0.2428808              -6.6091
        90                         -0.2355341              -6.4092
        91                         -0.2261447              -6.1537
        92                         -0.2004030              -5.4532
        93                         -0.1559312              -4.2431
        94                         -0.0994304              -2.7056
        95                         -0.0873215              -2.3761
        96                         -0.0226655              -0.6168
        97                         -0.0186346              -0.5071
       ...                                ...                  ...
       161                          0.6938010              18.8793
      -------------------------------------------------------------
                  HL-Gap            0.0639512 Eh            1.7402 eV
             Fermi-level           -0.3192088 Eh           -8.6861 eV

     #   Z          covCN         q      C6AA      α(0)
     1   6 C        3.754    -0.140    23.257     6.877
     2   6 C        2.817     0.251    22.785     7.821
     3   6 C        2.964    -0.071    29.778     8.951
     4   6 C        2.958     0.034    27.248     8.562
     5   6 C        3.758    -0.115    22.744     6.799
     6   6 C        2.979    -0.052    29.292     8.878
     7   6 C        2.919     0.078    26.260     8.403
     8   7 N        1.852    -0.289    28.341     7.890
     9   6 C        2.880     0.240    22.994     7.861
    10   7 N        2.726    -0.133    23.889     7.259
    11   6 C        2.889     0.138    24.997     8.197
    12   7 N        1.852    -0.254    27.461     7.767
    13   6 C        2.906     0.028    27.367     8.578
    14   6 C        2.904     0.045    26.994     8.519
    15   6 C        2.933    -0.045    29.129     8.851
    16   6 C        2.911    -0.059    29.470     8.902
    17   7 N        2.741    -0.101    23.213     7.156
    18   6 C        3.748     0.001    20.631     6.478
    19   6 C        3.745     0.014    20.410     6.444
    20   7 N        2.678    -0.257    26.677     7.671
    21   6 C        3.746     0.008    20.507     6.459
    22   6 C        3.746     0.001    20.635     6.480
    23   7 N        1.846    -0.313    28.974     7.978
    24   6 C        2.923     0.163    24.488     8.115
    25   7 N        2.749    -0.073    22.666     7.071
    26   6 C        3.820     0.039    19.905     6.349
    27   6 C        3.820    -0.057    21.581     6.611
    28   6 C        3.829    -0.061    21.644     6.620
    29   6 C        3.829    -0.056    21.550     6.605
    30   6 C        3.828    -0.060    21.630     6.618
    31   6 C        2.773     0.267    22.503     7.769
    32   8 O        0.859    -0.435    22.401     6.346
    33   8 O        0.857    -0.366    21.021     6.147
    34   1 H        0.925     0.064     2.153     2.295
    35   1 H        0.925     0.103     1.760     2.074
    36   1 H        0.925     0.055     2.252     2.347
    37   1 H        0.925     0.064     2.153     2.294
    38   1 H        0.925     0.071     2.076     2.253
    39   1 H        0.925     0.053     2.284     2.364
    40   1 H        0.926     0.051     2.307     2.375
    41   1 H        0.860     0.214     1.039     1.597
    42   1 H        0.926     0.035     2.521     2.483
    43   1 H        0.926     0.032     2.555     2.500
    44   1 H        0.926     0.060     2.197     2.318
    45   1 H        0.923     0.043     2.407     2.426
    46   1 H        0.924     0.047     2.359     2.402
    47   1 H        0.924     0.043     2.409     2.427
    48   1 H        0.923     0.019     2.750     2.593
    49   1 H        0.860     0.137     1.492     1.914
    50   1 H        0.924     0.037     2.492     2.469
    51   1 H        0.924     0.044     2.390     2.418
    52   1 H        0.923     0.031     2.575     2.510
    53   1 H        0.924     0.043     2.410     2.428
    54   1 H        0.925     0.065     2.137     2.286
    55   1 H        0.924     0.030     2.588     2.516
    56   1 H        0.925     0.047     2.360     2.403
    57   1 H        0.925     0.030     2.581     2.512
    58   1 H        0.925     0.062     2.177     2.307
    59   1 H        0.924     0.029     2.596     2.519
    60   1 H        0.925     0.036     2.499     2.472
    61   1 H        0.925     0.058     2.228     2.334
    62   1 H        0.925     0.030     2.593     2.518

 Mol. C6AA /au·bohr⁶  :      42325.138527
 Mol. C8AA /au·bohr⁸  :     982308.339845
 Mol. α(0) /au        :        315.385041


Wiberg/Mayer (AO) data.
largest (>0.10) Wiberg bond orders for each atom

 ---------------------------------------------------------------------------
     #   Z sym  total        # sym  WBO       # sym  WBO       # sym  WBO
 ---------------------------------------------------------------------------
     1   6 C    3.990 --     2 C    1.012    34 H    0.982    36 H    0.965
                            35 H    0.938
     2   6 C    3.919 --    33 O    1.831     1 C    1.012     3 C    0.999
     3   6 C    3.960 --     4 C    1.576    31 C    1.080     2 C    0.999
     4   6 C    3.976 --     3 C    1.576     6 C    1.179     5 C    1.034
     5   6 C    3.992 --     4 C    1.034    38 H    0.977    39 H    0.966
                            37 H    0.962
     6   6 C    3.969 --     7 C    1.310    24 C    1.232     4 C    1.179
     7   6 C    3.954 --     8 N    1.520     6 C    1.310    40 H    0.958
     8   7 N    3.022 --     7 C    1.520     9 C    1.244
     9   6 C    3.956 --    23 N    1.330     8 N    1.244    10 N    1.228
    10   7 N    3.503 --     9 C    1.228    11 C    1.084    41 H    0.919
    11   6 C    3.953 --    12 N    1.356    16 C    1.331    10 N    1.084
    12   7 N    3.050 --    13 C    1.464    11 C    1.356
    13   6 C    3.978 --    12 N    1.464    14 C    1.306    42 H    0.960
    14   6 C    3.958 --    15 C    1.313    13 C    1.306    17 N    1.174
    15   6 C    3.989 --    16 C    1.489    14 C    1.313    43 H    0.966
    16   6 C    3.979 --    15 C    1.489    11 C    1.331    44 H    0.955
    17   7 N    3.395 --    14 C    1.174    18 C    0.995    22 C    0.993
    18   6 C    3.981 --    19 C    1.003    17 N    0.995    46 H    0.968
                            45 H    0.964
    19   6 C    3.988 --    20 N    1.010    18 C    1.003    47 H    0.971
                            48 H    0.971
    20   7 N    3.062 --    21 C    1.016    19 C    1.010    49 H    0.961
    21   6 C    3.987 --    20 N    1.016    22 C    0.991    50 H    0.976
                            51 H    0.970
    22   6 C    3.981 --    17 N    0.993    21 C    0.991    53 H    0.968
                            52 H    0.966
    23   7 N    3.033 --    24 C    1.344     9 C    1.330
    24   6 C    3.965 --    23 N    1.344     6 C    1.232    25 N    1.198
    25   7 N    3.595 --    24 C    1.198    31 C    1.104    26 C    0.955
                            32 O    0.136
    26   6 C    3.950 --    27 C    0.982    30 C    0.982    25 N    0.955
                            54 H    0.953
    27   6 C    3.994 --    28 C    1.006    26 C    0.982    55 H    0.981
                            56 H    0.977
    28   6 C    3.994 --    29 C    1.007    27 C    1.006    57 H    0.980
                            58 H    0.976
    29   6 C    3.997 --    28 C    1.007    30 C    1.007    59 H    0.980
                            60 H    0.979
    30   6 C    3.993 --    29 C    1.007    26 C    0.982    62 H    0.980
                            61 H    0.974
    31   6 C    3.951 --    32 O    1.648    25 N    1.104     3 C    1.080
    32   8 O    1.974 --    31 C    1.648    25 N    0.136
    33   8 O    2.056 --     2 C    1.831
    34   1 H    0.995 --     1 C    0.982
    35   1 H    0.989 --     1 C    0.938
    36   1 H    0.997 --     1 C    0.965
    37   1 H    0.994 --     5 C    0.962
    38   1 H    0.995 --     5 C    0.977
    39   1 H    0.995 --     5 C    0.966
    40   1 H    0.996 --     7 C    0.958
    41   1 H    0.953 --    10 N    0.919
    42   1 H    0.998 --    13 C    0.960
    43   1 H    0.998 --    15 C    0.966
    44   1 H    0.996 --    16 C    0.955
    45   1 H    0.995 --    18 C    0.964
    46   1 H    0.997 --    18 C    0.968
    47   1 H    0.998 --    19 C    0.971
    48   1 H    1.000 --    19 C    0.971
    49   1 H    0.981 --    20 N    0.961
    50   1 H    0.998 --    21 C    0.976
    51   1 H    0.998 --    21 C    0.970
    52   1 H    0.996 --    22 C    0.966
    53   1 H    0.998 --    22 C    0.968
    54   1 H    0.995 --    26 C    0.953
    55   1 H    0.999 --    27 C    0.981
    56   1 H    0.998 --    27 C    0.977
    57   1 H    0.999 --    28 C    0.980
    58   1 H    0.996 --    28 C    0.976
    59   1 H    0.999 --    29 C    0.980
    60   1 H    0.998 --    29 C    0.979
    61   1 H    0.997 --    30 C    0.974
    62   1 H    0.999 --    30 C    0.980
 ---------------------------------------------------------------------------

Topologies differ in total number of bonds
Writing topology from bond orders to xtbtopo.mol

molecular dipole:
                 x           y           z       tot (Debye)
 q only:        3.069       0.284      -0.657
   full:        2.653       0.430      -0.758       7.097
molecular quadrupole (traceless):
                xx          xy          yy          xz          yz          zz
 q only:      -15.633      17.105      10.975       5.438      -3.057       4.658
  q+dip:      -23.983      23.861      19.912       3.530      -1.988       4.071
   full:      -26.983      24.146      21.974       2.609       1.638       5.009

           -------------------------------------------------
[...]
    2    7 N      8, 10, 12, 17, 20, 23, 25
    3    8 O      32, 33
    4    1 H      34-62

           -------------------------------------------------
          |                Calculation Setup                |
           -------------------------------------------------

          program call               : xtb /rds/general/user/hgt20/home/callum/QDESCP/Palbociclib_rdkit_conf_19/Palbociclib_rdkit_conf_19.xyz --acc 1 --gfn 2 --chrg 0 --uhf 2 --etemp 300 --input /rds/general/user/hgt20/home/callum/QDESCP/Palbociclib_rdkit_conf_19/Palbociclib_rdkit_conf_19_xtb.inp -P 1
          hostname                   : login-c
          coordinate file            : /rds/general/user/hgt20/home/callum/QDESCP/Palbociclib_rdkit_conf_19/Palbociclib_rdkit_conf_19.xyz
          omp threads                :                     1


           -------------------------------------------------
          |                 G F N 2 - x T B                 |
           -------------------------------------------------

        Reference                      10.1021/acs.jctc.8b01176
      * Hamiltonian:
        H0-scaling (s, p, d)           1.850000    2.230000    2.230000
        zeta-weighting                 0.500000
      * Dispersion:
        s8                             2.700000
        a1                             0.520000
        a2                             5.000000
        s9                             5.000000
      * Repulsion:
        kExp                           1.500000    1.000000
        rExp                           1.000000
      * Coulomb:
        alpha                          2.000000
        third order                    shell-resolved
        anisotropic                    true
        a3                             3.000000
        a5                             4.000000
        cn-shift                       1.200000
        cn-exp                         4.000000
        max-rad                        5.000000


          ...................................................
          :                      SETUP                      :
          :.................................................:
          :  # basis functions                 161          :
          :  # atomic orbitals                 161          :
          :  # shells                           95          :
          :  # electrons                       172          :
          :  max. iterations                   250          :
          :  Hamiltonian                  GFN2-xTB          :
          :  restarted?                      false          :
          :  GBSA solvation                  false          :
          :  PC potential                    false          :
          :  electronic temp.          300.0000000     K    :
          :  accuracy                    1.0000000          :
          :  -> integral cutoff          0.2500000E+02      :
          :  -> integral neglect         0.1000000E-07      :
          :  -> SCF convergence          0.1000000E-05 Eh   :
          :  -> wf. convergence          0.1000000E-03 e    :
          :  Broyden damping             0.4000000          :
          :  net charge                          0          :
          :  unpaired electrons                  2          :
          ...................................................

 iter      E             dE          RMSdq      gap      omega  full diag
   1    -95.8179708 -0.958180E+02  0.359E+00    0.84       0.0  T
   2    -95.6730509  0.144920E+00  0.264E+00    0.51       1.0  T
   3    -95.7904947 -0.117444E+00  0.188E+00    0.80       1.0  T
   4    -96.0447300 -0.254235E+00  0.104E+00    0.28       1.0  T
   5    -96.0002315  0.444985E-01  0.911E-01    0.47       1.0  T
   6    -96.0351216 -0.348900E-01  0.692E-01    0.55       1.0  T
   7    -96.0527177 -0.175961E-01  0.513E-01    0.34       1.0  T
   8    -96.0851449 -0.324273E-01  0.334E-01    0.47       1.0  T
   9    -96.0966596 -0.115147E-01  0.194E-01    0.36       1.0  T
  10    -96.0982999 -0.164024E-02  0.101E-01    0.34       1.0  T
  11    -96.0980403  0.259631E-03  0.835E-02    0.33       1.0  T
  12    -96.0985732 -0.532940E-03  0.526E-02    0.34       1.0  T
  13    -96.0987238 -0.150640E-03  0.361E-02    0.33       1.0  T
  14    -96.0989036 -0.179793E-03  0.787E-03    0.33       1.6  T
  15    -96.0989115 -0.788824E-05  0.432E-03    0.33       2.9  T
  16    -96.0989141 -0.255419E-05  0.143E-03    0.33       8.9  T
  17    -96.0989139  0.155866E-06  0.151E-03    0.33       8.4  T
  18    -96.0989142 -0.260459E-06  0.425E-04    0.33      29.9  T
  19    -96.0989142 -0.270940E-07  0.201E-04    0.33      63.3  T

   *** convergence criteria satisfied after 19 iterations ***

         #    Occupation            Energy/Eh            Energy/eV
      -------------------------------------------------------------
         1        2.0000           -0.6958299             -18.9345
       ...           ...                  ...                  ...
        81        2.0000           -0.3851721             -10.4811
        82        2.0000           -0.3834209             -10.4334
        83        2.0000           -0.3787093             -10.3052
        84        1.9068           -0.3676657             -10.0047
        85        1.7997           -0.3668196              -9.9817
        86        1.2935           -0.3646701              -9.9232
        87        0.9983           -0.2686592              -7.3106 (HOMO)
        88        0.0017           -0.2565535              -6.9812 (LUMO)
        89                         -0.2458717              -6.6905
        90                         -0.2323718              -6.3232
        91                         -0.2123445              -5.7782
        92                         -0.1967772              -5.3546
       ...                                ...                  ...
       161                          0.7136017              19.4181
      -------------------------------------------------------------
                  HL-Gap            0.0121057 Eh            0.3294 eV
             Fermi-level           -0.3140554 Eh           -8.5459 eV

 transition dipole moment (au) for excitation:          86          87
     X       Y       Z   
  -2.4693  -0.0125  -0.6414  total (au/Debye):    2.551   6.485
 dE (eV)             :    2.613
 oscillator strength :  0.58917E+00

 SCC (total)                   0 d,  0 h,  0 min,  0.177 sec
 SCC setup                      ...        0 min,  0.001 sec (  0.398%)
 Dispersion                     ...        0 min,  0.001 sec (  0.601%)
 classical contributions        ...        0 min,  0.000 sec (  0.172%)
 integral evaluation            ...        0 min,  0.030 sec ( 17.032%)
 iterations                     ...        0 min,  0.082 sec ( 46.458%)
 molecular gradient             ...        0 min,  0.052 sec ( 29.102%)
 printout                       ...        0 min,  0.011 sec (  6.233%)

         :::::::::::::::::::::::::::::::::::::::::::::::::::::
         ::                     SUMMARY                     ::
         :::::::::::::::::::::::::::::::::::::::::::::::::::::
         :: total energy             -94.788855515143 Eh    ::
         :: gradient norm              0.099337361926 Eh/a0 ::
         :: HOMO-LUMO gap              0.329411785602 eV    ::
         ::.................................................::
         :: SCC energy               -96.098856327616 Eh    ::
         :: -> isotropic ES            0.110987740432 Eh    ::
         :: -> anisotropic ES          0.006579719306 Eh    ::
         :: -> anisotropic XC          0.048832015557 Eh    ::
         :: -> dispersion             -0.071444790874 Eh    ::
         :: repulsion energy           1.310000812472 Eh    ::
         :: add. restraining           0.000000000000 Eh    ::
         :: total charge               0.000000000000 e     ::
         :::::::::::::::::::::::::::::::::::::::::::::::::::::

           -------------------------------------------------
          |                Property Printout                |
           -------------------------------------------------

    * Orbital Energies and Occupations

         #    Occupation            Energy/Eh            Energy/eV
      -------------------------------------------------------------
         1        2.0000           -0.6958299             -18.9345
       ...           ...                  ...                  ...
        75        2.0000           -0.4262631             -11.5992
        76        2.0000           -0.4173102             -11.3556
        77        2.0000           -0.4161068             -11.3228
        78        2.0000           -0.4093859             -11.1400
        79        2.0000           -0.3996617             -10.8753
        80        2.0000           -0.3875912             -10.5469
        81        2.0000           -0.3851721             -10.4811
        82        2.0000           -0.3834209             -10.4334
        83        2.0000           -0.3787093             -10.3052
        84        1.9068           -0.3676657             -10.0047
        85        1.7997           -0.3668196              -9.9817
        86        1.2935           -0.3646701              -9.9232
        87        0.9983           -0.2686592              -7.3106 (HOMO)
        88        0.0017           -0.2565535              -6.9812 (LUMO)
        89                         -0.2458717              -6.6905
        90                         -0.2323718              -6.3232
        91                         -0.2123445              -5.7782
        92                         -0.1967772              -5.3546
        93                         -0.1415798              -3.8526
        94                         -0.1099083              -2.9908
        95                         -0.0728259              -1.9817
        96                         -0.0436614              -1.1881
        97                         -0.0083199              -0.2264
        98                          0.0100354               0.2731
       ...                                ...                  ...
       161                          0.7136017              19.4181
      -------------------------------------------------------------
                  HL-Gap            0.0121057 Eh            0.3294 eV
             Fermi-level           -0.3140554 Eh           -8.5459 eV

     #   Z          covCN         q      C6AA      α(0)
     1   6 C        3.754    -0.135    23.155     6.862
     2   6 C        2.817     0.243    22.931     7.846
     3   6 C        2.964    -0.074    29.855     8.962
     4   6 C        2.958    -0.001    28.045     8.686
     5   6 C        3.758    -0.108    22.614     6.780
     6   6 C        2.979    -0.037    28.910     8.820
     7   6 C        2.919     0.042    27.060     8.530
     8   7 N        1.852    -0.268    27.808     7.816
     9   6 C        2.880     0.213    23.516     7.950
    10   7 N        2.726    -0.118    23.569     7.210
    11   6 C        2.889     0.143    24.880     8.178
    12   7 N        1.852    -0.254    27.473     7.769
    13   6 C        2.906     0.037    27.169     8.547
    14   6 C        2.904     0.042    27.064     8.530
    15   6 C        2.933    -0.043    29.077     8.843
    16   6 C        2.911    -0.052    29.289     8.874
    17   7 N        2.741    -0.071    22.614     7.063
    18   6 C        3.748    -0.004    20.717     6.492
    19   6 C        3.745     0.012    20.445     6.450
    20   7 N        2.678    -0.253    26.579     7.657
    21   6 C        3.746     0.006    20.541     6.465
    22   6 C        3.746    -0.004    20.717     6.493
    23   7 N        1.846    -0.310    28.893     7.966
    24   6 C        2.923     0.163    24.490     8.115
    25   7 N        2.749    -0.082    22.837     7.097
    26   6 C        3.820     0.043    19.845     6.340
    27   6 C        3.820    -0.057    21.579     6.611
    28   6 C        3.829    -0.061    21.641     6.619
    29   6 C        3.829    -0.055    21.538     6.603
    30   6 C        3.828    -0.060    21.631     6.618
    31   6 C        2.773     0.258    22.665     7.797
    32   8 O        0.859    -0.442    22.541     6.366
    33   8 O        0.857    -0.371    21.113     6.161
    34   1 H        0.925     0.060     2.203     2.321
    35   1 H        0.925     0.097     1.811     2.105
    36   1 H        0.925     0.052     2.298     2.370
    37   1 H        0.925     0.051     2.311     2.377
    38   1 H        0.925     0.064     2.156     2.296
    39   1 H        0.925     0.041     2.438     2.442
    40   1 H        0.926     0.043     2.403     2.424
    41   1 H        0.860     0.216     1.026     1.587
    42   1 H        0.926     0.041     2.440     2.443
    43   1 H        0.926     0.037     2.484     2.465
    44   1 H        0.926     0.071     2.075     2.253
    45   1 H        0.923     0.056     2.246     2.343
    46   1 H        0.924     0.055     2.254     2.348
    47   1 H        0.924     0.049     2.329     2.386
    48   1 H        0.923     0.024     2.677     2.559
    49   1 H        0.860     0.142     1.459     1.892
    50   1 H        0.924     0.043     2.404     2.425
    51   1 H        0.924     0.049     2.333     2.389
    52   1 H        0.923     0.043     2.405     2.425
    53   1 H        0.924     0.052     2.295     2.369
    54   1 H        0.925     0.058     2.218     2.329
    55   1 H        0.924     0.027     2.633     2.538
    56   1 H        0.925     0.050     2.325     2.384
    57   1 H        0.925     0.028     2.611     2.527
    58   1 H        0.925     0.063     2.164     2.301
    59   1 H        0.924     0.026     2.649     2.545
    60   1 H        0.925     0.035     2.521     2.483
    61   1 H        0.925     0.060     2.195     2.317
    62   1 H        0.925     0.026     2.640     2.541

 Mol. C6AA /au·bohr⁶  :      42296.908974
 Mol. C8AA /au·bohr⁸  :     982138.437479
 Mol. α(0) /au        :        315.297053


Wiberg/Mayer (AO) data.
largest (>0.10) Wiberg bond orders for each atom

 ---------------------------------------------------------------------------
     #   Z sym  total        # sym  WBO       # sym  WBO       # sym  WBO
 ---------------------------------------------------------------------------
     1   6 C    3.967 --     2 C    0.996    34 H    0.982    36 H    0.968
                            35 H    0.942
     2   6 C    3.892 --    33 O    1.774     3 C    1.022     1 C    0.996
     3   6 C    3.816 --     4 C    1.379    31 C    1.122     2 C    1.022
     4   6 C    3.890 --     3 C    1.379     6 C    1.257     5 C    1.027
     5   6 C    3.987 --     4 C    1.027    38 H    0.978    39 H    0.969
                            37 H    0.967
     6   6 C    3.887 --     4 C    1.257     7 C    1.209    24 C    1.203
     7   6 C    3.874 --     8 N    1.468     6 C    1.209    40 H    0.952
     8   7 N    2.973 --     7 C    1.468     9 C    1.276
     9   6 C    3.912 --     8 N    1.276    23 N    1.255    10 N    1.169
    10   7 N    3.470 --     9 C    1.169    11 C    1.152    41 H    0.918
    11   6 C    3.900 --    12 N    1.292    16 C    1.285    10 N    1.152
    12   7 N    2.997 --    13 C    1.480    11 C    1.292
    13   6 C    3.930 --    12 N    1.480    14 C    1.292    42 H    0.959
    14   6 C    3.902 --    13 C    1.292    15 C    1.267    17 N    1.186
    15   6 C    3.939 --    16 C    1.529    14 C    1.267    43 H    0.965
    16   6 C    3.959 --    15 C    1.529    11 C    1.285    44 H    0.952
    17   7 N    3.346 --    14 C    1.186    18 C    0.996    22 C    0.995
    18   6 C    3.974 --    19 C    1.002    17 N    0.996    46 H    0.966
                            45 H    0.956
    19   6 C    3.984 --    20 N    1.010    18 C    1.002    47 H    0.970
                            48 H    0.969
    20   7 N    3.064 --    21 C    1.018    19 C    1.010    49 H    0.959
    21   6 C    3.982 --    20 N    1.018    22 C    0.987    50 H    0.976
                            51 H    0.969
    22   6 C    3.973 --    17 N    0.995    21 C    0.987    53 H    0.967
                            52 H    0.960
    23   7 N    2.966 --    24 C    1.360     9 C    1.255
    24   6 C    3.946 --    23 N    1.360     6 C    1.203    25 N    1.200
    25   7 N    3.556 --    24 C    1.200    31 C    1.069    26 C    0.958
                            32 O    0.105
    26   6 C    3.949 --    27 C    0.983    30 C    0.982    25 N    0.958
                            54 H    0.951
    27   6 C    3.992 --    28 C    1.006    26 C    0.983    55 H    0.981
                            56 H    0.977
    28   6 C    3.994 --    29 C    1.007    27 C    1.006    57 H    0.980
                            58 H    0.976
    29   6 C    3.997 --    28 C    1.007    30 C    1.007    59 H    0.980
                            60 H    0.979
    30   6 C    3.990 --    29 C    1.007    26 C    0.982    62 H    0.980
                            61 H    0.973
    31   6 C    3.932 --    32 O    1.607     3 C    1.122    25 N    1.069
    32   8 O    1.910 --    31 C    1.607    25 N    0.105
    33   8 O    1.991 --     2 C    1.774
    34   1 H    0.994 --     1 C    0.982
    35   1 H    0.988 --     1 C    0.942
    36   1 H    0.996 --     1 C    0.968
    37   1 H    0.994 --     5 C    0.967
    38   1 H    0.995 --     5 C    0.978
    39   1 H    0.995 --     5 C    0.969
    40   1 H    0.985 --     7 C    0.952
    41   1 H    0.952 --    10 N    0.918
    42   1 H    0.997 --    13 C    0.959
    43   1 H    0.998 --    15 C    0.965
    44   1 H    0.994 --    16 C    0.952
    45   1 H    0.984 --    18 C    0.956
    46   1 H    0.994 --    18 C    0.966
    47   1 H    0.997 --    19 C    0.970
    48   1 H    0.998 --    19 C    0.969
    49   1 H    0.980 --    20 N    0.959
    50   1 H    0.997 --    21 C    0.976
    51   1 H    0.996 --    21 C    0.969
    52   1 H    0.987 --    22 C    0.960
    53   1 H    0.995 --    22 C    0.967
    54   1 H    0.994 --    26 C    0.951
    55   1 H    0.998 --    27 C    0.981
    56   1 H    0.997 --    27 C    0.977
    57   1 H    0.999 --    28 C    0.980
    58   1 H    0.996 --    28 C    0.976
    59   1 H    0.999 --    29 C    0.980
    60   1 H    0.998 --    29 C    0.979
    61   1 H    0.995 --    30 C    0.973
    62   1 H    0.999 --    30 C    0.980
 ---------------------------------------------------------------------------

Topologies differ in total number of bonds
Writing topology from bond orders to xtbtopo.mol

molecular dipole:
                 x           y           z       tot (Debye)
 q only:        5.420       1.055      -0.910
   full:        5.089       1.237      -1.022      13.562
molecular quadrupole (traceless):
                xx          xy          yy          xz          yz          zz
 q only:      -10.901      15.393       8.509       9.712      -0.505       2.392
  q+dip:      -19.312      21.871      17.457       8.239       0.672       1.855
   full:      -22.232      22.042      19.302       7.550       4.021       2.930


           -------------------------------------------------
          | TOTAL ENERGY              -94.788855515143 Eh   |
          | GRADIENT NORM               0.099337361926 Eh/α |
          | HOMO-LUMO GAP               0.329411785602 eV   |
           -------------------------------------------------

------------------------------------------------------------------------
 * finished run on 2025/05/15 at 16:10:58.544     
------------------------------------------------------------------------
 total:
 * wall-time:     0 d,  0 h,  0 min,  0.197 sec
 *  cpu-time:     0 d,  0 h,  0 min,  0.174 sec
 * ratio c/w:     0.886 speedup
 SCF:
 * wall-time:     0 d,  0 h,  0 min,  0.177 sec
 *  cpu-time:     0 d,  0 h,  0 min,  0.157 sec
 * ratio c/w:     0.883 speedup


