62
 energy: -94.876407692594 gnorm: 0.000704762464 xtb: 6.7.1 (edcfbbe)
C           -6.84424178102626       -1.86861225105355       -1.03955675750142
C           -6.43495949964525       -1.60002742364361        0.38001477094883
C           -4.95954419893377       -1.51595775148537        0.61636024054256
C           -4.36263157725685       -2.20530318047179        1.63227589049309
C           -5.10427121073733       -3.12686093395573        2.54682744150199
C           -2.95339029952174       -2.06303541976977        1.81412350684277
C           -2.20267040071468       -2.69725106609763        2.81717504196640
N           -0.91656717125820       -2.52724742994931        2.96991897487455
C           -0.30125596640052       -1.68586482465469        2.11272671323931
N            1.01741659267247       -1.54380408504240        2.34903315541055
C            1.99282974616221       -0.77448450306668        1.73159645858178
N            3.21834283280023       -1.01260672866442        2.18923930694348
C            4.23796019421609       -0.35504992688332        1.68129361964245
C            4.12311213586390        0.60710731032783        0.66377856038579
C            2.81764336305118        0.86455445987199        0.21186317037954
C            1.74821908695421        0.17710635187132        0.74366309489116
N            5.20532388020491        1.27257130346782        0.16022155012491
C            6.49983783475602        1.22003950425378        0.80425643023989
C            7.30651883908567        2.45733554715175        0.42250786539756
N            7.59410919845883        2.45806608409503       -1.00631576692023
C            6.55054657374121        1.81490644578573       -1.78757818854951
C            5.16685968419331        1.91615809831965       -1.13563686830091
N           -0.89728455252580       -1.04272765311755        1.11538959162325
C           -2.20710697492536       -1.22470518634012        0.95184753804543
N           -2.82427398998170       -0.57829513348337       -0.07420888317618
C           -2.01241230622515        0.24196666356493       -0.97204158118029
C           -2.23219692066175       -0.04741907630075       -2.47233432186422
C           -2.64266439604208        1.29106992081711       -3.09132202779706
C           -2.00208452370656        2.32916127910196       -2.17468032907233
C           -2.25928847542821        1.74824035692630       -0.78854700923448
C           -4.20394156150426       -0.63095858364340       -0.26761839459789
O           -4.71877808414728        0.05226218714115       -1.13591495270925
O           -7.23543011147491       -1.47858110810073        1.27843790534495
H           -7.91491167634498       -2.04882683779812       -1.08791765546877
H           -6.58676223004453       -0.99694939712563       -1.63943536536800
H           -6.29654728511807       -2.72208190793896       -1.43513397084422
H           -5.01269630981198       -2.77605486419580        3.57364467501821
H           -6.15873407914835       -3.16956483195947        2.29907191162569
H           -4.68175165711980       -4.12969760923667        2.49060333396253
H           -2.66891049050030       -3.36826834318054        3.52511849890298
H            1.37127229218745       -2.12199808340988        3.10193042646990
H            5.19690752399152       -0.62099794036721        2.10163695590530
H            2.63676697859991        1.61771326615685       -0.53936274129606
H            0.74138460265152        0.37454207903836        0.42382774813514
H            7.06050895012475        0.31801734415332        0.52176844660160
H            6.35704101376783        1.21502580551080        1.88779268533403
H            8.25903369506989        2.45414868519736        0.96141682446599
H            6.74061711351984        3.34707289699316        0.74109884613713
H            7.75333821948113        3.40822515426130       -1.31992650980277
H            6.52246228128530        2.24838354791432       -2.78826402589756
H            6.80737854379576        0.75393422166413       -1.89029959086678
H            4.87582285447643        2.97393419195004       -1.04267040045023
H            4.43512981364222        1.41323595499993       -1.77345608667663
H           -0.98365132643598       -0.00204459954317       -0.70784994379625
H           -1.29825787212309       -0.40266503578723       -2.91038287423671
H           -2.98999953266726       -0.81096016858759       -2.63101441980374
H           -2.32034366853776        1.38303061764343       -4.12743123540494
H           -3.72607206845192        1.39107799732113       -3.04552659056763
H           -0.92833091145036        2.39134496893123       -2.36460362671264
H           -2.43493543274317        3.32065372662661       -2.29539463759731
H           -3.30019008325039        1.91531510968703       -0.51416287248470
H           -1.61939521890265        2.17240080411651       -0.01527355179924
