----- Optimization -----
      -----------------------------------------------------------      
     |                   =====================                   |     
     |                           x T B                           |     
     |                   =====================                   |     
     |                         S. Grimme                         |     
     |          Mulliken Center for Theoretical Chemistry        |     
     |                    University of Bonn                     |     
      -----------------------------------------------------------      

   * xtb version 6.7.1 (edcfbbe) compiled by 'conda@3ef47c1a292c' on 2024-11-25

   xtb is free software: you can redistribute it and/or modify it under
   the terms of the GNU Lesser General Public License as published by
   the Free Software Foundation, either version 3 of the License, or
   (at your option) any later version.
   
   xtb is distributed in the hope that it will be useful,
   but WITHOUT ANY WARRANTY; without even the implied warranty of
   MERCHANTABILITY or FITNESS FOR A PARTICULAR PURPOSE.  See the
   GNU Lesser General Public License for more details.
   
   Cite this work as:
   * C. Bannwarth, E. Caldeweyher, S. Ehlert, A. Hansen, P. Pracht,
     J. Seibert, S. Spicher, S. Grimme, WIREs Comput. Mol. Sci., 2020, 11,
     e01493. DOI: 10.1002/wcms.1493
   
   for GFN2-xTB:
   * C. Bannwarth, S. Ehlert and S. Grimme., J. Chem. Theory Comput., 2019,
     15, 1652-1671. DOI: 10.1021/acs.jctc.8b01176
   for GFN1-xTB:
   * S. Grimme, C. Bannwarth, P. Shushkov, J. Chem. Theory Comput., 2017,
     13, 1989-2009. DOI: 10.1021/acs.jctc.7b00118
   for GFN0-xTB:
   * P. Pracht, E. Caldeweyher, S. Ehlert, S. Grimme, ChemRxiv, 2019, preprint.
     DOI: 10.26434/chemrxiv.8326202.v1
   for GFN-FF:
   * S. Spicher and S. Grimme, Angew. Chem. Int. Ed., 2020, 59, 15665-15673.
     DOI: 10.1002/anie.202004239
   
   for ALPB and GBSA implicit solvation:
   * S. Ehlert, M. Stahn, S. Spicher, S. Grimme, J. Chem. Theory Comput.,
     2021, 17, 4250-4261. DOI: 10.1021/acs.jctc.1c00471
   
   for ddCOSMO and CPCM-X implicit solvation:
   * M. Stahn, S. Ehlert, S. Grimme, J. Phys. Chem. A,
     2023, XX, XXXX-XXXX. DOI: 10.1021/acs.jpca.3c04382
   
   for DFT-D4:
   * E. Caldeweyher, C. Bannwarth and S. Grimme, J. Chem. Phys., 2017,
     147, 034112. DOI: 10.1063/1.4993215
   * E. Caldeweyher, S. Ehlert, A. Hansen, H. Neugebauer, S. Spicher,
     C. Bannwarth and S. Grimme, J. Chem. Phys., 2019, 150, 154122.
     DOI: 10.1063/1.5090222
   * E. Caldeweyher, J.-M. Mewes, S. Ehlert and S. Grimme, Phys. Chem. Chem. Phys.
     2020, 22, 8499-8512. DOI: 10.1039/D0CP00502A
   
   for sTDA-xTB:
   * S. Grimme and C. Bannwarth, J. Chem. Phys., 2016, 145, 054103.
     DOI: 10.1063/1.4959605
   
   in the mass-spec context:
   * V. Asgeirsson, C. Bauer and S. Grimme, Chem. Sci., 2017, 8, 4879.
     DOI: 10.1039/c7sc00601b
   * J. Koopman and S. Grimme, ACS Omega 2019, 4, 12, 15120-15133.
     DOI: 10.1021/acsomega.9b02011
   
   for metadynamics refer to:
   * S. Grimme, J. Chem. Theory Comput., 2019, 155, 2847-2862
     DOI: 10.1021/acs.jctc.9b00143
   
   for SPH calculations refer to:
   * S. Spicher and S. Grimme, J. Chem. Theory Comput., 2021, 17, 1701-1714
     DOI: 10.1021/acs.jctc.0c01306
   
   for ONIOM refer to:
   * C. Plett, A. Katbashev, S. Ehlert, S. Grimme, M. Bursch,
     Phys. Chem. Chem. Phys., 2023, 25, 17860-17868. DOI: 10.1039/D3CP02178E
   
   for DIPRO refer to:
   * J. Kohn, N. Gildemeister, S. Grimme, D. Fazzi, A. Hansen,
     J. Chem. Phys., 2023, just accepted.
   
   for PTB refer to:
   * S. Grimme, M. Mueller, A. Hansen, J. Chem. Phys., 2023, 158, 124111.
     DOI: 10.1063/5.0137838
   
   with help from (in alphabetical order)
   P. Atkinson, C. Bannwarth, F. Bohle, G. Brandenburg, E. Caldeweyher
   M. Checinski, S. Dohm, S. Ehlert, S. Ehrlich, I. Gerasimov, C. Hölzer
   A. Katbashev, J. Kohn, J. Koopman, C. Lavigne, S. Lehtola, F. März, M. Müller,
   F. Musil, H. Neugebauer, J. Pisarek, C. Plett, P. Pracht, F. Pultar,
   J. Seibert, P. Shushkov, S. Spicher, M. Stahn, M. Steiner, T. Strunk,
   J. Stückrath, T. Rose, and J. Unsleber
   
 * started run on 2025/05/15 at 16:07:45.645     
   ID    Z sym.   atoms
    1    6 C      1-7, 9, 11, 13-16, 18, 19, 21, 22, 24, 26-31
    2    7 N      8, 10, 12, 17, 20, 23, 25
    3    8 O      32, 33
    4    1 H      34-62

           -------------------------------------------------
          |                Calculation Setup                |
           -------------------------------------------------

          program call               : xtb /rds/general/user/hgt20/home/callum/QDESCP/Palbociclib_rdkit_conf_17/Palbociclib_rdkit_conf_17.xyz --opt normal --acc 1 --gfn 2 --chrg 0 --uhf 0 -P 1
          hostname                   : login-c
          coordinate file            : /rds/general/user/hgt20/home/callum/QDESCP/Palbociclib_rdkit_conf_17/Palbociclib_rdkit_conf_17.xyz
          omp threads                :                     1


           -------------------------------------------------
          |                 G F N 2 - x T B                 |
           -------------------------------------------------

        Reference                      10.1021/acs.jctc.8b01176
      * Hamiltonian:
        H0-scaling (s, p, d)           1.850000    2.230000    2.230000
        zeta-weighting                 0.500000
      * Dispersion:
        s8                             2.700000
        a1                             0.520000
        a2                             5.000000
        s9                             5.000000
      * Repulsion:
        kExp                           1.500000    1.000000
        rExp                           1.000000
      * Coulomb:
        alpha                          2.000000
        third order                    shell-resolved
        anisotropic                    true
        a3                             3.000000
        a5                             4.000000
        cn-shift                       1.200000
        cn-exp                         4.000000
        max-rad                        5.000000


          ...................................................
          :                      SETUP                      :
          :.................................................:
          :  # basis functions                 161          :
          :  # atomic orbitals                 161          :
          :  # shells                           95          :
          :  # electrons                       172          :
          :  max. iterations                   250          :
          :  Hamiltonian                  GFN2-xTB          :
          :  restarted?                      false          :
          :  GBSA solvation                  false          :
          :  PC potential                    false          :
          :  electronic temp.          300.0000000     K    :
          :  accuracy                    1.0000000          :
          :  -> integral cutoff          0.2500000E+02      :
          :  -> integral neglect         0.1000000E-07      :
          :  -> SCF convergence          0.1000000E-05 Eh   :
          :  -> wf. convergence          0.1000000E-03 e    :
          :  Broyden damping             0.4000000          :
          :  net charge                          0          :
          :  unpaired electrons                  0          :
          ...................................................

 iter      E             dE          RMSdq      gap      omega  full diag
   1    -95.9228010 -0.959228E+02  0.378E+00    1.66       0.0  T
   2    -96.0725412 -0.149740E+00  0.224E+00    1.76       1.0  T
   3    -96.0810890 -0.854778E-02  0.121E+00    1.63       1.0  T
   4    -96.0892607 -0.817174E-02  0.335E-01    1.41       1.0  T
   5    -96.0939362 -0.467545E-02  0.138E-01    1.50       1.0  T
   6    -96.0947130 -0.776766E-03  0.532E-02    1.49       1.0  T
   7    -96.0947847 -0.717171E-04  0.206E-02    1.50       1.0  T
   8    -96.0947881 -0.339800E-05  0.850E-03    1.50       1.5  T
   9    -96.0947889 -0.847659E-06  0.325E-03    1.50       3.9  T
  10    -96.0947891 -0.215093E-06  0.125E-03    1.50      10.2  T
  11    -96.0947892 -0.316465E-07  0.643E-04    1.50      19.8  T
  12    -96.0947892 -0.726531E-08  0.264E-04    1.50      48.1  T

   *** convergence criteria satisfied after 12 iterations ***

         #    Occupation            Energy/Eh            Energy/eV
      -------------------------------------------------------------
         1        2.0000           -0.7004914             -19.0613
       ...           ...                  ...                  ...
        80        2.0000           -0.4019908             -10.9387
        81        2.0000           -0.3993308             -10.8663
        82        2.0000           -0.3892280             -10.5914
        83        2.0000           -0.3821321             -10.3983
        84        2.0000           -0.3781104             -10.2889
        85        2.0000           -0.3752131             -10.2101
        86        2.0000           -0.3482002              -9.4750 (HOMO)
        87                         -0.2930095              -7.9732 (LUMO)
        88                         -0.2705281              -7.3614
        89                         -0.2516519              -6.8478
        90                         -0.2437815              -6.6336
        91                         -0.2345323              -6.3819
       ...                                ...                  ...
       161                          0.6850751              18.6418
      -------------------------------------------------------------
                  HL-Gap            0.0551907 Eh            1.5018 eV
             Fermi-level           -0.3206049 Eh           -8.7241 eV

 SCC (total)                   0 d,  0 h,  0 min,  0.143 sec
 SCC setup                      ...        0 min,  0.001 sec (  0.487%)
 Dispersion                     ...        0 min,  0.001 sec (  0.701%)
 classical contributions        ...        0 min,  0.000 sec (  0.216%)
 integral evaluation            ...        0 min,  0.013 sec (  9.217%)
 iterations                     ...        0 min,  0.053 sec ( 37.014%)
 molecular gradient             ...        0 min,  0.075 sec ( 52.106%)
 printout                       ...        0 min,  0.000 sec (  0.254%)

         :::::::::::::::::::::::::::::::::::::::::::::::::::::
         ::                     SUMMARY                     ::
         :::::::::::::::::::::::::::::::::::::::::::::::::::::
         :: total energy             -94.856411090335 Eh    ::
         :: gradient norm              0.128388652980 Eh/a0 ::
         :: HOMO-LUMO gap              1.501814331048 eV    ::
         ::.................................................::
         :: SCC energy               -96.095008144975 Eh    ::
         :: -> isotropic ES            0.110792757802 Eh    ::
         :: -> anisotropic ES          0.010768211976 Eh    ::
         :: -> anisotropic XC          0.055201397245 Eh    ::
         :: -> dispersion             -0.069714917223 Eh    ::
         :: repulsion energy           1.238597054639 Eh    ::
         :: add. restraining           0.000000000000 Eh    ::
         :: total charge              -0.000000000000 e     ::
         :::::::::::::::::::::::::::::::::::::::::::::::::::::

      ----------------------------------------------------------- 
     |                   =====================                   |
     |                        A N C O P T                        |
     |                   =====================                   |
     |               Approximate Normal Coordinate               |
     |                Rational Function Optimizer                |
      ----------------------------------------------------------- 
      ----------------------------------------------------------- 
     |                   =====================                   |
     |                        A N C O P T                        |
     |                   =====================                   |
     |               Approximate Normal Coordinate               |
     |                Rational Function Optimizer                |
      ----------------------------------------------------------- 

          ...................................................
          :                      SETUP                      :
          :.................................................:
          :   optimization level            normal          :
          :   max. optcycles                   200          :
          :   ANC micro-cycles                  20          :
          :   degrees of freedom               180          :
          :.................................................:
          :   RF solver                   davidson          :
          :   write xtbopt.log                true          :
          :   linear?                        false          :
          :   energy convergence         0.5000000E-05 Eh   :
          :   grad. convergence          0.1000000E-02 Eh/α :
          :   maxmium RF displ.          1.0000000          :
          :   Hlow (freq-cutoff)         0.1000000E-01      :
          :   Hmax (freq-cutoff)         5.0000000          :
          :   S6 in model hess.         20.0000000          :
          ...................................................

generating ANC from exact Hessian ...
Using Lindh-Hessian (1995)
 Shifting diagonal of input Hessian by    9.8541707760208003E-003
 Lowest  eigenvalues of input Hessian
    0.000000    0.000000    0.000000    0.000000    0.000000    0.000000
    0.010000    0.010094    0.010283    0.010420    0.010793    0.010980
    0.011046    0.011826    0.011946    0.012304    0.013070    0.013559
 Highest eigenvalues
    2.047958    2.063421    2.123506    2.225421    2.259004    2.301962


........................................................................
.............................. CYCLE    1 ..............................
........................................................................

 iter      E             dE          RMSdq      gap      omega  full diag
   1    -96.0947892 -0.960948E+02  0.859E-05    1.50       0.0  T
   2    -96.0947892 -0.136055E-09  0.561E-05    1.50     226.4  T
   3    -96.0947892 -0.113545E-09  0.323E-05    1.50     392.9  T
     SCC iter.                  ...        0 min,  0.014 sec
     gradient                   ...        0 min,  0.081 sec
 * total energy  :   -94.8564111 Eh     change       -0.1293529E-08 Eh
   gradient norm :     0.1283897 Eh/α   predicted     0.0000000E+00 (-100.00%)
   displ. norm   :     0.3979456 α      lambda       -0.2250967E-01
   maximum displ.:     0.1113651 α      in ANC's #13, #37, #26, ...

........................................................................
.............................. CYCLE    2 ..............................
........................................................................

 iter      E             dE          RMSdq      gap      omega  full diag
   1    -96.1407376 -0.961407E+02  0.201E-01    1.46       0.0  T
   2    -96.1410218 -0.284215E-03  0.123E-01    1.54       1.0  T
   3    -96.1410150  0.684077E-05  0.651E-02    1.52       1.0  T
   4    -96.1410951 -0.800719E-04  0.170E-02    1.53       1.0  T
   5    -96.1411101 -0.150636E-04  0.542E-03    1.54       2.3  T
   6    -96.1411112 -0.105997E-05  0.261E-03    1.54       4.9  T
   7    -96.1411113 -0.836976E-07  0.107E-03    1.54      11.9  T
   8    -96.1411113 -0.279431E-07  0.316E-04    1.54      40.2  T
   9    -96.1411113 -0.205458E-08  0.164E-04    1.54      77.6  T
     SCC iter.                  ...        0 min,  0.060 sec
     gradient                   ...        0 min,  0.048 sec
 * total energy  :   -94.8724386 Eh     change       -0.1602747E-01 Eh
   gradient norm :     0.0570941 Eh/α   predicted    -0.1306843E-01 ( -18.46%)
   displ. norm   :     0.4374901 α      lambda       -0.9262836E-02
   maximum displ.:     0.1925196 α      in ANC's #13, #26, #19, ...

........................................................................
.............................. CYCLE    3 ..............................
........................................................................

 iter      E             dE          RMSdq      gap      omega  full diag
   1    -96.1730531 -0.961731E+02  0.144E-01    1.46       0.0  T
   2    -96.1732675 -0.214349E-03  0.881E-02    1.55       1.0  T
   3    -96.1733062 -0.386927E-04  0.509E-02    1.54       1.0  T
   4    -96.1733334 -0.272436E-04  0.154E-02    1.55       1.0  T
   5    -96.1733459 -0.125083E-04  0.435E-03    1.55       2.9  T
   6    -96.1733468 -0.888203E-06  0.182E-03    1.55       7.0  T
   7    -96.1733469 -0.388588E-07  0.711E-04    1.55      17.9  T
   8    -96.1733469 -0.885299E-08  0.226E-04    1.55      56.3  T
     SCC iter.                  ...        0 min,  0.035 sec
     gradient                   ...        0 min,  0.075 sec
 * total energy  :   -94.8782136 Eh     change       -0.5775020E-02 Eh
   gradient norm :     0.0190939 Eh/α   predicted    -0.5517860E-02 (  -4.45%)
   displ. norm   :     0.3465654 α      lambda       -0.2257592E-02
   maximum displ.:     0.2078478 α      in ANC's #13, #8, #19, ...

........................................................................
.............................. CYCLE    4 ..............................
........................................................................

 iter      E             dE          RMSdq      gap      omega  full diag
   1    -96.1829936 -0.961830E+02  0.741E-02    1.50       0.0  T
   2    -96.1830332 -0.395307E-04  0.441E-02    1.53       1.0  T
   3    -96.1830308  0.233203E-05  0.257E-02    1.52       1.0  T
   4    -96.1830433 -0.124174E-04  0.722E-03    1.53       1.8  T
   5    -96.1830462 -0.295275E-05  0.203E-03    1.53       6.3  T
   6    -96.1830464 -0.171019E-06  0.860E-04    1.53      14.8  T
   7    -96.1830464 -0.549076E-08  0.260E-04    1.53      48.9  T
     SCC iter.                  ...        0 min,  0.063 sec
     gradient                   ...        0 min,  0.048 sec
 * total energy  :   -94.8798434 Eh     change       -0.1629847E-02 Eh
   gradient norm :     0.0134706 Eh/α   predicted    -0.1264486E-02 ( -22.42%)
   displ. norm   :     0.3708231 α      lambda       -0.1303357E-02
   maximum displ.:     0.2301914 α      in ANC's #13, #8, #19, ...

........................................................................
.............................. CYCLE    5 ..............................
........................................................................

 iter      E             dE          RMSdq      gap      omega  full diag
   1    -96.1880332 -0.961880E+02  0.709E-02    1.50       0.0  T
   2    -96.1880552 -0.219557E-04  0.419E-02    1.51       1.0  T
   3    -96.1880489  0.624446E-05  0.192E-02    1.51       1.0  T
   4    -96.1880588 -0.987122E-05  0.468E-03    1.51       2.7  T
   5    -96.1880599 -0.111434E-05  0.174E-03    1.51       7.3  T
   6    -96.1880600 -0.962868E-07  0.812E-04    1.51      15.6  T
   7    -96.1880600 -0.617021E-08  0.240E-04    1.51      53.0  T
     SCC iter.                  ...        0 min,  0.061 sec
     gradient                   ...        0 min,  0.076 sec
 * total energy  :   -94.8807100 Eh     change       -0.8665327E-03 Eh
   gradient norm :     0.0079133 Eh/α   predicted    -0.7412975E-03 ( -14.45%)
   displ. norm   :     0.2665028 α      lambda       -0.4687941E-03
   maximum displ.:     0.1464283 α      in ANC's #13, #8, #9, ...

........................................................................
.............................. CYCLE    6 ..............................
........................................................................

 iter      E             dE          RMSdq      gap      omega  full diag
   1    -96.1899444 -0.961899E+02  0.496E-02    1.50       0.0  T
   2    -96.1899491 -0.463973E-05  0.290E-02    1.50       1.0  T
   3    -96.1899460  0.312763E-05  0.974E-03    1.50       1.3  T
   4    -96.1899501 -0.414487E-05  0.190E-03    1.50       6.7  T
   5    -96.1899502 -0.126170E-06  0.889E-04    1.50      14.3  T
   6    -96.1899502 -0.101204E-07  0.475E-04    1.50      26.7  T
     SCC iter.                  ...        0 min,  0.027 sec
     gradient                   ...        0 min,  0.088 sec
 * total energy  :   -94.8810524 Eh     change       -0.3424801E-03 Eh
   gradient norm :     0.0064684 Eh/α   predicted    -0.2510452E-03 ( -26.70%)
   displ. norm   :     0.2918006 α      lambda       -0.3893676E-03
   maximum displ.:     0.1571146 α      in ANC's #8, #9, #13, ...

........................................................................
.............................. CYCLE    7 ..............................
........................................................................

 iter      E             dE          RMSdq      gap      omega  full diag
   1    -96.1907208 -0.961907E+02  0.568E-02    1.50       0.0  T
   2    -96.1907237 -0.291292E-05  0.332E-02    1.50       1.0  T
   3    -96.1907209  0.282277E-05  0.783E-03    1.49       1.6  T
   4    -96.1907245 -0.362008E-05  0.173E-03    1.50       7.3  T
   5    -96.1907246 -0.748819E-07  0.887E-04    1.50      14.3  T
   6    -96.1907246 -0.633503E-08  0.469E-04    1.50      27.1  T
     SCC iter.                  ...        0 min,  0.062 sec
     gradient                   ...        0 min,  0.048 sec
 * total energy  :   -94.8813444 Eh     change       -0.2919597E-03 Eh
   gradient norm :     0.0068578 Eh/α   predicted    -0.2112608E-03 ( -27.64%)
   displ. norm   :     0.3228105 α      lambda       -0.3707308E-03
   maximum displ.:     0.1617440 α      in ANC's #8, #9, #10, ...

........................................................................
.............................. CYCLE    8 ..............................
........................................................................

 iter      E             dE          RMSdq      gap      omega  full diag
   1    -96.1905972 -0.961906E+02  0.708E-02    1.50       0.0  T
   2    -96.1906001 -0.287057E-05  0.415E-02    1.50       1.0  T
   3    -96.1905958  0.429603E-05  0.918E-03    1.50       1.4  T
   4    -96.1906010 -0.519082E-05  0.223E-03    1.50       5.7  T
   5    -96.1906011 -0.151687E-06  0.106E-03    1.50      12.0  T
   6    -96.1906011 -0.131946E-07  0.525E-04    1.50      24.2  T
   7    -96.1906011 -0.664929E-08  0.192E-04    1.50      66.3  T
     SCC iter.                  ...        0 min,  0.033 sec
     gradient                   ...        0 min,  0.083 sec
 * total energy  :   -94.8816169 Eh     change       -0.2725136E-03 Eh
   gradient norm :     0.0075777 Eh/α   predicted    -0.2046847E-03 ( -24.89%)
   displ. norm   :     0.2996850 α      lambda       -0.3183042E-03
   maximum displ.:     0.1546194 α      in ANC's #9, #8, #10, ...

........................................................................
.............................. CYCLE    9 ..............................
........................................................................

 iter      E             dE          RMSdq      gap      omega  full diag
   1    -96.1903513 -0.961904E+02  0.722E-02    1.50       0.0  T
   2    -96.1903536 -0.223794E-05  0.424E-02    1.51       1.0  T
   3    -96.1903467  0.688618E-05  0.115E-02    1.51       1.1  T
   4    -96.1903547 -0.800805E-05  0.204E-03    1.51       6.2  T
   5    -96.1903548 -0.111898E-06  0.992E-04    1.51      12.8  T
   6    -96.1903548 -0.873737E-08  0.437E-04    1.51      29.1  T
     SCC iter.                  ...        0 min,  0.027 sec
     gradient                   ...        0 min,  0.082 sec
 * total energy  :   -94.8818533 Eh     change       -0.2363524E-03 Eh
   gradient norm :     0.0067690 Eh/α   predicted    -0.1734477E-03 ( -26.61%)
   displ. norm   :     0.2766778 α      lambda       -0.2813233E-03
   maximum displ.:     0.1390876 α      in ANC's #9, #8, #3, ...

........................................................................
.............................. CYCLE   10 ..............................
........................................................................

 iter      E             dE          RMSdq      gap      omega  full diag
   1    -96.1904986 -0.961905E+02  0.693E-02    1.50       0.0  T
   2    -96.1905009 -0.224980E-05  0.406E-02    1.51       1.0  T
   3    -96.1904906  0.103109E-04  0.141E-02    1.51       1.0  T
   4    -96.1905024 -0.118051E-04  0.193E-03    1.51       6.6  T
   5    -96.1905025 -0.106479E-06  0.944E-04    1.51      13.5  T
   6    -96.1905025 -0.938010E-08  0.429E-04    1.51      29.6  T
     SCC iter.                  ...        0 min,  0.042 sec
     gradient                   ...        0 min,  0.049 sec
 * total energy  :   -94.8820567 Eh     change       -0.2033852E-03 Eh
   gradient norm :     0.0051655 Eh/α   predicted    -0.1514304E-03 ( -25.55%)
   displ. norm   :     0.2551309 α      lambda       -0.1921436E-03
   maximum displ.:     0.1129302 α      in ANC's #9, #3, #18, ...

........................................................................
.............................. CYCLE   11 ..............................
........................................................................

 iter      E             dE          RMSdq      gap      omega  full diag
   1    -96.1899537 -0.961900E+02  0.578E-02    1.50       0.0  T
   2    -96.1899560 -0.227474E-05  0.338E-02    1.51       1.0  T
   3    -96.1899476  0.837430E-05  0.133E-02    1.51       1.0  T
   4    -96.1899573 -0.967925E-05  0.200E-03    1.51       6.3  T
   5    -96.1899574 -0.154323E-06  0.919E-04    1.51      13.8  T
   6    -96.1899575 -0.110069E-07  0.451E-04    1.51      28.2  T
     SCC iter.                  ...        0 min,  0.062 sec
     gradient                   ...        0 min,  0.093 sec
 * total energy  :   -94.8821888 Eh     change       -0.1321509E-03 Eh
   gradient norm :     0.0052501 Eh/α   predicted    -0.1023255E-03 ( -22.57%)
   displ. norm   :     0.1815869 α      lambda       -0.1475745E-03
   maximum displ.:     0.0677207 α      in ANC's #3, #13, #5, ...

........................................................................
.............................. CYCLE   12 ..............................
........................................................................

 iter      E             dE          RMSdq      gap      omega  full diag
   1    -96.1915472 -0.961915E+02  0.389E-02    1.50       0.0  T
   2    -96.1915495 -0.236473E-05  0.225E-02    1.51       1.0  T
   3    -96.1915460  0.358481E-05  0.963E-03    1.51       1.3  T
   4    -96.1915502 -0.424183E-05  0.198E-03    1.51       6.4  T
   5    -96.1915504 -0.184699E-06  0.735E-04    1.51      17.3  T
   6    -96.1915504 -0.104799E-07  0.360E-04    1.51      35.2  T
     SCC iter.                  ...        0 min,  0.069 sec
     gradient                   ...        0 min,  0.116 sec
 * total energy  :   -94.8822540 Eh     change       -0.6523380E-04 Eh
   gradient norm :     0.0046955 Eh/α   predicted    -0.7622186E-04 (  16.84%)
   displ. norm   :     0.1861504 α      lambda       -0.1032033E-03
   maximum displ.:     0.0684446 α      in ANC's #14, #5, #3, ...

........................................................................
.............................. CYCLE   13 ..............................
........................................................................

 iter      E             dE          RMSdq      gap      omega  full diag
   1    -96.1894704 -0.961895E+02  0.343E-02    1.50       0.0  T
   2    -96.1894720 -0.156391E-05  0.202E-02    1.50       1.0  T
   3    -96.1894701  0.187617E-05  0.710E-03    1.50       1.8  T
   4    -96.1894724 -0.232378E-05  0.156E-03    1.50       8.1  T
   5    -96.1894725 -0.860947E-07  0.728E-04    1.50      17.5  T
   6    -96.1894725 -0.612069E-08  0.383E-04    1.50      33.1  T
     SCC iter.                  ...        0 min,  0.026 sec
     gradient                   ...        0 min,  0.076 sec
 * total energy  :   -94.8823005 Eh     change       -0.4649732E-04 Eh
   gradient norm :     0.0045086 Eh/α   predicted    -0.5339464E-04 (  14.83%)
   displ. norm   :     0.0682762 α      lambda       -0.5154924E-04
   maximum displ.:     0.0360219 α      in ANC's #10, #9, #8, ...

........................................................................
.............................. CYCLE   14 ..............................
........................................................................

 iter      E             dE          RMSdq      gap      omega  full diag
   1    -96.1909025 -0.961909E+02  0.210E-02    1.51       0.0  T
   2    -96.1909031 -0.691452E-06  0.122E-02    1.50       1.0  T
   3    -96.1909019  0.121048E-05  0.522E-03    1.50       2.4  T
   4    -96.1909033 -0.139950E-05  0.102E-03    1.50      12.4  T
   5    -96.1909034 -0.520946E-07  0.313E-04    1.50      40.6  T
   6    -96.1909034 -0.109900E-08  0.163E-04    1.50      77.8  T
     SCC iter.                  ...        0 min,  0.062 sec
     gradient                   ...        0 min,  0.048 sec
 * total energy  :   -94.8823380 Eh     change       -0.3748887E-04 Eh
   gradient norm :     0.0035988 Eh/α   predicted    -0.2589958E-04 ( -30.91%)
   displ. norm   :     0.1221099 α      lambda       -0.7425417E-04
   maximum displ.:     0.0615459 α      in ANC's #10, #5, #3, ...

........................................................................
.............................. CYCLE   15 ..............................
........................................................................

 iter      E             dE          RMSdq      gap      omega  full diag
   1    -96.1909033 -0.961909E+02  0.229E-02    1.51       0.0  T
   2    -96.1909040 -0.762342E-06  0.133E-02    1.50       1.0  T
   3    -96.1909030  0.971806E-06  0.471E-03    1.50       2.7  T
   4    -96.1909042 -0.115037E-05  0.110E-03    1.50      11.5  T
   5    -96.1909043 -0.552982E-07  0.408E-04    1.50      31.1  T
   6    -96.1909043 -0.313537E-08  0.197E-04    1.50      64.6  T
     SCC iter.                  ...        0 min,  0.028 sec
     gradient                   ...        0 min,  0.048 sec
 * total energy  :   -94.8823832 Eh     change       -0.4513429E-04 Eh
   gradient norm :     0.0029880 Eh/α   predicted    -0.3768188E-04 ( -16.51%)
   displ. norm   :     0.1518452 α      lambda       -0.4947697E-04
   maximum displ.:     0.0713542 α      in ANC's #10, #5, #14, ...

........................................................................
.............................. CYCLE   16 ..............................
........................................................................

 iter      E             dE          RMSdq      gap      omega  full diag
   1    -96.1908997 -0.961909E+02  0.242E-02    1.51       0.0  T
   2    -96.1909004 -0.650234E-06  0.142E-02    1.51       1.0  T
   3    -96.1908993  0.106460E-05  0.463E-03    1.50       2.7  T
   4    -96.1909005 -0.121897E-05  0.105E-03    1.51      12.1  T
   5    -96.1909006 -0.498429E-07  0.372E-04    1.51      34.1  T
   6    -96.1909006 -0.194125E-08  0.173E-04    1.51      73.6  T
     SCC iter.                  ...        0 min,  0.028 sec
     gradient                   ...        0 min,  0.048 sec
 * total energy  :   -94.8824191 Eh     change       -0.3597675E-04 Eh
   gradient norm :     0.0039053 Eh/α   predicted    -0.2531079E-04 ( -29.65%)
   displ. norm   :     0.2015956 α      lambda       -0.5957698E-04
   maximum displ.:     0.0829020 α      in ANC's #10, #3, #5, ...

........................................................................
.............................. CYCLE   17 ..............................
........................................................................

 iter      E             dE          RMSdq      gap      omega  full diag
   1    -96.1902192 -0.961902E+02  0.303E-02    1.51       0.0  T
   2    -96.1902198 -0.593253E-06  0.178E-02    1.51       1.0  T
   3    -96.1902189  0.870128E-06  0.414E-03    1.51       3.1  T
   4    -96.1902199 -0.104427E-05  0.103E-03    1.51      12.4  T
   5    -96.1902200 -0.391051E-07  0.472E-04    1.51      26.9  T
   6    -96.1902200 -0.259801E-08  0.220E-04    1.51      57.9  T
     SCC iter.                  ...        0 min,  0.035 sec
     gradient                   ...        0 min,  0.048 sec
 * total energy  :   -94.8824622 Eh     change       -0.4306343E-04 Eh
   gradient norm :     0.0034413 Eh/α   predicted    -0.3100374E-04 ( -28.00%)
   displ. norm   :     0.1714176 α      lambda       -0.5097997E-04
   maximum displ.:     0.0716157 α      in ANC's #3, #5, #10, ...

........................................................................
.............................. CYCLE   18 ..............................
........................................................................

 iter      E             dE          RMSdq      gap      omega  full diag
   1    -96.1899563 -0.961900E+02  0.286E-02    1.52       0.0  T
   2    -96.1899569 -0.607300E-06  0.167E-02    1.52       1.0  T
   3    -96.1899561  0.752012E-06  0.375E-03    1.52       3.4  T
   4    -96.1899570 -0.902170E-06  0.992E-04    1.52      12.8  T
   5    -96.1899571 -0.403077E-07  0.438E-04    1.52      29.0  T
     SCC iter.                  ...        0 min,  0.039 sec
     gradient                   ...        0 min,  0.048 sec
 * total energy  :   -94.8824989 Eh     change       -0.3670016E-04 Eh
   gradient norm :     0.0026849 Eh/α   predicted    -0.2623987E-04 ( -28.50%)
   displ. norm   :     0.1562872 α      lambda       -0.4365648E-04
   maximum displ.:     0.0659212 α      in ANC's #3, #5, #11, ...

........................................................................
.............................. CYCLE   19 ..............................
........................................................................

 iter      E             dE          RMSdq      gap      omega  full diag
   1    -96.1899637 -0.961900E+02  0.270E-02    1.52       0.0  T
   2    -96.1899641 -0.435660E-06  0.158E-02    1.52       1.0  T
   3    -96.1899635  0.641298E-06  0.351E-03    1.52       3.6  T
   4    -96.1899643 -0.759166E-06  0.929E-04    1.52      13.7  T
   5    -96.1899643 -0.344256E-07  0.401E-04    1.52      31.6  T
     SCC iter.                  ...        0 min,  0.023 sec
     gradient                   ...        0 min,  0.075 sec
 * total energy  :   -94.8825319 Eh     change       -0.3300339E-04 Eh
   gradient norm :     0.0029732 Eh/α   predicted    -0.2236305E-04 ( -32.24%)
   displ. norm   :     0.1716898 α      lambda       -0.4727549E-04
   maximum displ.:     0.0696921 α      in ANC's #3, #11, #6, ...

........................................................................
.............................. CYCLE   20 ..............................
........................................................................

 iter      E             dE          RMSdq      gap      omega  full diag
   1    -96.1903315 -0.961903E+02  0.316E-02    1.53       0.0  T
   2    -96.1903320 -0.505570E-06  0.185E-02    1.53       1.0  T
   3    -96.1903306  0.143615E-05  0.536E-03    1.53       2.4  T
   4    -96.1903322 -0.166175E-05  0.101E-03    1.53      12.6  T
   5    -96.1903323 -0.355179E-07  0.472E-04    1.53      26.9  T
   6    -96.1903323 -0.174532E-08  0.225E-04    1.53      56.5  T
     SCC iter.                  ...        0 min,  0.026 sec
     gradient                   ...        0 min,  0.063 sec
 * total energy  :   -94.8825667 Eh     change       -0.3476559E-04 Eh
   gradient norm :     0.0032870 Eh/α   predicted    -0.2433711E-04 ( -30.00%)
   displ. norm   :     0.1727888 α      lambda       -0.3943294E-04
   maximum displ.:     0.0733678 α      in ANC's #11, #3, #6, ...
 * RMSD in coord.:     0.3937414 α      energy gain  -0.2615558E-01 Eh

generating ANC from exact Hessian ...
Using Lindh-Hessian (1995)
 Shifting diagonal of input Hessian by    9.8357848771592708E-003
 Lowest  eigenvalues of input Hessian
    0.000000    0.000000    0.000000    0.000000    0.000000    0.000000
    0.010000    0.010080    0.010285    0.010481    0.010846    0.011123
    0.011146    0.011759    0.011950    0.012545    0.013137    0.013776
 Highest eigenvalues
    2.108645    2.167147    2.221395    2.301740    2.350437    2.390378


........................................................................
.............................. CYCLE   21 ..............................
........................................................................

 iter      E             dE          RMSdq      gap      omega  full diag
   1    -96.1905489 -0.961905E+02  0.323E-02    1.53       0.0  T
   2    -96.1905495 -0.552071E-06  0.190E-02    1.53       1.0  T
   3    -96.1905470  0.244096E-05  0.691E-03    1.52       1.8  T
   4    -96.1905498 -0.279517E-05  0.946E-04    1.52      13.4  T
   5    -96.1905498 -0.263628E-07  0.474E-04    1.52      26.8  T
   6    -96.1905498 -0.308259E-08  0.229E-04    1.52      55.4  T
     SCC iter.                  ...        0 min,  0.063 sec
     gradient                   ...        0 min,  0.081 sec
 * total energy  :   -94.8825948 Eh     change       -0.2811019E-04 Eh
   gradient norm :     0.0030068 Eh/α   predicted     0.0000000E+00 (-100.00%)
   displ. norm   :     0.0240948 α      lambda       -0.1073080E-04
   maximum displ.:     0.0085021 α      in ANC's #12, #5, #11, ...

........................................................................
.............................. CYCLE   22 ..............................
........................................................................

 iter      E             dE          RMSdq      gap      omega  full diag
   1    -96.1912568 -0.961913E+02  0.598E-03    1.53       0.0  T
   2    -96.1912569 -0.146221E-06  0.347E-03    1.52       3.7  T
   3    -96.1912569  0.648857E-07  0.149E-03    1.52       8.5  T
   4    -96.1912569 -0.731910E-07  0.514E-04    1.52      24.7  T
   5    -96.1912570 -0.148031E-07  0.120E-04    1.52     106.0  T
     SCC iter.                  ...        0 min,  0.022 sec
     gradient                   ...        0 min,  0.069 sec
 * total energy  :   -94.8826089 Eh     change       -0.1411489E-04 Eh
   gradient norm :     0.0014141 Eh/α   predicted    -0.8950320E-05 ( -36.59%)
   displ. norm   :     0.0947865 α      lambda       -0.2266427E-04
   maximum displ.:     0.0323112 α      in ANC's #5, #11, #12, ...

........................................................................
.............................. CYCLE   23 ..............................
........................................................................

 iter      E             dE          RMSdq      gap      omega  full diag
   1    -96.1921767 -0.961922E+02  0.201E-02    1.53       0.0  T
   2    -96.1921775 -0.767265E-06  0.117E-02    1.52       1.1  T
   3    -96.1921768  0.676587E-06  0.417E-03    1.52       3.0  T
   4    -96.1921776 -0.761665E-06  0.116E-03    1.52      11.0  T
   5    -96.1921776 -0.729417E-07  0.330E-04    1.52      38.4  T
   6    -96.1921776 -0.177302E-08  0.174E-04    1.52      73.1  T
     SCC iter.                  ...        0 min,  0.026 sec
     gradient                   ...        0 min,  0.074 sec
 * total energy  :   -94.8826274 Eh     change       -0.1852545E-04 Eh
   gradient norm :     0.0023707 Eh/α   predicted    -0.1232349E-04 ( -33.48%)
   displ. norm   :     0.0339672 α      lambda       -0.8635283E-05
   maximum displ.:     0.0122680 α      in ANC's #5, #11, #13, ...

........................................................................
.............................. CYCLE   24 ..............................
........................................................................

 iter      E             dE          RMSdq      gap      omega  full diag
   1    -96.1918972 -0.961919E+02  0.725E-03    1.52       0.0  T
   2    -96.1918972 -0.165806E-07  0.426E-03    1.52       3.0  T
   3    -96.1918972  0.357092E-07  0.886E-04    1.52      14.3  T
   4    -96.1918972 -0.435758E-07  0.181E-04    1.52      70.1  T
     SCC iter.                  ...        0 min,  0.017 sec
     gradient                   ...        0 min,  0.082 sec
 * total energy  :   -94.8826356 Eh     change       -0.8190941E-05 Eh
   gradient norm :     0.0019988 Eh/α   predicted    -0.4483786E-05 ( -45.26%)
   displ. norm   :     0.2999719 α      lambda       -0.4463232E-04
   maximum displ.:     0.1092904 α      in ANC's #13, #5, #11, ...

........................................................................
.............................. CYCLE   25 ..............................
........................................................................

 iter      E             dE          RMSdq      gap      omega  full diag
   1    -96.1893889 -0.961894E+02  0.635E-02    1.53       0.0  T
   2    -96.1893902 -0.129464E-05  0.373E-02    1.53       1.0  T
   3    -96.1893876  0.258409E-05  0.742E-03    1.53       1.7  T
   4    -96.1893907 -0.314520E-05  0.160E-03    1.53       7.9  T
   5    -96.1893908 -0.619716E-07  0.861E-04    1.53      14.7  T
   6    -96.1893908 -0.108233E-07  0.401E-04    1.53      31.7  T
     SCC iter.                  ...        0 min,  0.048 sec
     gradient                   ...        0 min,  0.048 sec
 * total energy  :   -94.8826485 Eh     change       -0.1288940E-04 Eh
   gradient norm :     0.0040092 Eh/α   predicted    -0.2321599E-04 (  80.12%)
   displ. norm   :     0.0665522 α      lambda       -0.2475136E-04
   maximum displ.:     0.0250552 α      in ANC's #11, #13, #5, ...

........................................................................
.............................. CYCLE   26 ..............................
........................................................................

 iter      E             dE          RMSdq      gap      omega  full diag
   1    -96.1905889 -0.961906E+02  0.148E-02    1.53       0.0  T
   2    -96.1905891 -0.132709E-06  0.864E-03    1.53       1.5  T
   3    -96.1905889  0.154228E-06  0.198E-03    1.53       6.4  T
   4    -96.1905891 -0.189344E-06  0.488E-04    1.53      26.0  T
   5    -96.1905891 -0.844004E-08  0.238E-04    1.53      53.3  T
     SCC iter.                  ...        0 min,  0.047 sec
     gradient                   ...        0 min,  0.048 sec
 * total energy  :   -94.8826644 Eh     change       -0.1589338E-04 Eh
   gradient norm :     0.0018620 Eh/α   predicted    -0.1243067E-04 ( -21.79%)
   displ. norm   :     0.0263508 α      lambda       -0.9120324E-05
   maximum displ.:     0.0101182 α      in ANC's #6, #12, #13, ...

........................................................................
.............................. CYCLE   27 ..............................
........................................................................

 iter      E             dE          RMSdq      gap      omega  full diag
   1    -96.1915674 -0.961916E+02  0.661E-03    1.53       0.0  T
   2    -96.1915675 -0.133102E-06  0.379E-03    1.53       3.4  T
   3    -96.1915674  0.655119E-07  0.148E-03    1.53       8.6  T
   4    -96.1915675 -0.811333E-07  0.480E-04    1.53      26.5  T
   5    -96.1915675 -0.115270E-07  0.156E-04    1.53      81.6  T
     SCC iter.                  ...        0 min,  0.047 sec
     gradient                   ...        0 min,  0.048 sec
 * total energy  :   -94.8826732 Eh     change       -0.8827151E-05 Eh
   gradient norm :     0.0004373 Eh/α   predicted    -0.4563875E-05 ( -48.30%)
   displ. norm   :     0.0849601 α      lambda       -0.7624181E-05
   maximum displ.:     0.0399155 α      in ANC's #13, #6, #7, ...

........................................................................
.............................. CYCLE   28 ..............................
........................................................................

 iter      E             dE          RMSdq      gap      omega  full diag
   1    -96.1918331 -0.961918E+02  0.177E-02    1.53       0.0  T
   2    -96.1918333 -0.171348E-06  0.104E-02    1.53       1.2  T
   3    -96.1918329  0.412303E-06  0.279E-03    1.53       4.6  T
   4    -96.1918334 -0.470544E-06  0.571E-04    1.53      22.3  T
   5    -96.1918334 -0.127907E-07  0.244E-04    1.53      52.0  T
     SCC iter.                  ...        0 min,  0.025 sec
     gradient                   ...        0 min,  0.048 sec
 * total energy  :   -94.8826831 Eh     change       -0.9877234E-05 Eh
   gradient norm :     0.0005988 Eh/α   predicted    -0.3849862E-05 ( -61.02%)
   displ. norm   :     0.2533999 α      lambda       -0.1797542E-04
   maximum displ.:     0.1199434 α      in ANC's #13, #6, #7, ...

........................................................................
.............................. CYCLE   29 ..............................
........................................................................

 iter      E             dE          RMSdq      gap      omega  full diag
   1    -96.1911619 -0.961912E+02  0.535E-02    1.53       0.0  T
   2    -96.1911628 -0.894749E-06  0.314E-02    1.53       1.0  T
   3    -96.1911589  0.386503E-05  0.850E-03    1.53       1.5  T
   4    -96.1911634 -0.443879E-05  0.130E-03    1.53       9.8  T
   5    -96.1911634 -0.380283E-07  0.692E-04    1.53      18.3  T
   6    -96.1911634 -0.440174E-08  0.320E-04    1.53      39.6  T
     SCC iter.                  ...        0 min,  0.042 sec
     gradient                   ...        0 min,  0.088 sec
 * total energy  :   -94.8826981 Eh     change       -0.1496901E-04 Eh
   gradient norm :     0.0016197 Eh/α   predicted    -0.9244499E-05 ( -38.24%)
   displ. norm   :     0.0460444 α      lambda       -0.6050313E-05
   maximum displ.:     0.0206763 α      in ANC's #6, #2, #7, ...

........................................................................
.............................. CYCLE   30 ..............................
........................................................................

 iter      E             dE          RMSdq      gap      omega  full diag
   1    -96.1914963 -0.961915E+02  0.914E-03    1.53       0.0  T
   2    -96.1914964 -0.114300E-06  0.531E-03    1.53       2.4  T
   3    -96.1914964  0.311350E-07  0.114E-03    1.53      11.1  T
   4    -96.1914964 -0.445535E-07  0.359E-04    1.53      35.4  T
   5    -96.1914964 -0.492795E-08  0.167E-04    1.53      76.1  T
     SCC iter.                  ...        0 min,  0.022 sec
     gradient                   ...        0 min,  0.075 sec
 * total energy  :   -94.8827043 Eh     change       -0.6233571E-05 Eh
   gradient norm :     0.0007690 Eh/α   predicted    -0.3028984E-05 ( -51.41%)
   displ. norm   :     0.1122190 α      lambda       -0.6405417E-05
   maximum displ.:     0.0489257 α      in ANC's #6, #7, #13, ...

........................................................................
.............................. CYCLE   31 ..............................
........................................................................

 iter      E             dE          RMSdq      gap      omega  full diag
   1    -96.1917751 -0.961918E+02  0.227E-02    1.53       0.0  T
   2    -96.1917752 -0.181903E-06  0.133E-02    1.53       1.0  T
   3    -96.1917746  0.652860E-06  0.351E-03    1.53       3.6  T
   4    -96.1917754 -0.756848E-06  0.583E-04    1.53      21.8  T
   5    -96.1917754 -0.778068E-08  0.317E-04    1.53      40.1  T
     SCC iter.                  ...        0 min,  0.021 sec
     gradient                   ...        0 min,  0.087 sec
 * total energy  :   -94.8827107 Eh     change       -0.6420321E-05 Eh
   gradient norm :     0.0004972 Eh/α   predicted    -0.3224697E-05 ( -49.77%)
   displ. norm   :     0.1050862 α      lambda       -0.3418568E-05
   maximum displ.:     0.0440326 α      in ANC's #6, #7, #2, ...

........................................................................
.............................. CYCLE   32 ..............................
........................................................................

 iter      E             dE          RMSdq      gap      omega  full diag
   1    -96.1917593 -0.961918E+02  0.206E-02    1.53       0.0  T
   2    -96.1917595 -0.146781E-06  0.121E-02    1.53       1.0  T
   3    -96.1917591  0.402741E-06  0.277E-03    1.53       4.6  T
   4    -96.1917596 -0.475250E-06  0.525E-04    1.53      24.2  T
   5    -96.1917596 -0.554169E-08  0.278E-04    1.53      45.6  T
     SCC iter.                  ...        0 min,  0.054 sec
     gradient                   ...        0 min,  0.048 sec
 * total energy  :   -94.8827139 Eh     change       -0.3162148E-05 Eh
   gradient norm :     0.0005445 Eh/α   predicted    -0.1720167E-05 ( -45.60%)
   displ. norm   :     0.0459089 α      lambda       -0.2763740E-05
   maximum displ.:     0.0203173 α      in ANC's #1, #18, #2, ...

   *** GEOMETRY OPTIMIZATION CONVERGED AFTER 32 ITERATIONS ***

------------------------------------------------------------------------
 total energy gain   :        -0.0263028 Eh      -16.5052 kcal/mol
 total RMSD          :         0.4308805 a0        0.2280 Å
 total power (kW/mol):        -2.1580614 (step)  -16.8102 (real)
------------------------------------------------------------------------

 ANCopt (total)                0 d,  0 h,  0 min,  4.108 sec
 optimizer setup                ...        0 min,  0.000 sec (  0.002%)
 model hessian                  ...        0 min,  0.096 sec (  2.346%)
 ANC generation                 ...        0 min,  0.007 sec (  0.173%)
 coordinate transformation      ...        0 min,  0.001 sec (  0.034%)
 single point calculation       ...        0 min,  3.986 sec ( 97.034%)
 optimization log               ...        0 min,  0.008 sec (  0.196%)
 hessian update                 ...        0 min,  0.001 sec (  0.029%)
 rational function              ...        0 min,  0.006 sec (  0.143%)

================
 final structure:
================
62
 xtb: 6.7.1 (edcfbbe)
C           -6.71953290603140       -0.11049960067693       -3.11415723535661
C           -5.65656373283370        0.94718033813623       -3.04486620843509
C           -4.45688271625879        0.59751095231114       -2.22063423675860
C           -3.19199705014274        0.76571202877949       -2.70324747510237
C           -2.89711058421639        1.26079645170113       -4.08310817344623
C           -2.09154994128059        0.41980574158082       -1.85940210903503
C           -0.74035935687228        0.52460952256724       -2.21203366182312
N            0.24875174199542        0.21788609299920       -1.40836859913194
C           -0.08000551991347       -0.21955093765806       -0.18322063043797
N            0.88077590543238       -0.54649364740266        0.70392894373904
C            2.26390880111092       -0.50319655677962        0.60939262194443
N            2.87786163605306       -0.88194516280941        1.72782280709979
C            4.19121413871868       -0.88174077914278        1.77211698853213
C            5.02022531916913       -0.49767913053646        0.70537567150994
C            4.35200552971478       -0.11137015409389       -0.46721875355178
C            2.97350861861778       -0.11230783952526       -0.52294520844413
N            6.39406516337947       -0.58557011008528        0.80880897455789
C            7.06158779706462       -0.17849748753307        2.03126761811571
C            7.45153828714214        1.31012039919989        1.94775208138780
N            8.27325036127882        1.60992295551314        0.78983559932862
C            7.63152173294409        1.14912678593369       -0.42909483619649
C            7.24461298393550       -0.33676585794263       -0.33848001534714
N           -1.32656166680132       -0.36874973611873        0.26696238224914
C           -2.32964759082829       -0.05600518955378       -0.54529750959583
N           -3.60206963978960       -0.20042519316330       -0.08717229399600
C           -3.79808305423717       -0.68299589053415        1.27997361166676
C           -4.68687482013488       -1.94151937930036        1.37681657010426
C           -5.83613011979074       -1.56054992026484        2.31324565390523
C           -5.24029761985268       -0.46856908606691        3.19659095643409
C           -4.44434802301147        0.36664041081290        2.19921753665100
C           -4.71495388228774        0.11037339275866       -0.86475525527252
O           -5.83381165123881       -0.01265496124497       -0.39798650574146
O           -5.74724002785117        2.00404128324904       -3.62580980158939
H           -7.17252670171857       -0.20124919410523       -2.12784609218093
H           -7.47381744634205        0.17002167411422       -3.84434949817178
H           -6.28004990176455       -1.07271893766849       -3.36990769823861
H           -2.31062864504182        0.52270495009766       -4.62938461583627
H           -2.31776834526739        2.18110759835652       -4.02524716529515
H           -3.80731972353143        1.47085855969643       -4.63308649368059
H           -0.44222623182009        0.87660979299752       -3.19000676350068
H            0.54419169877274       -0.86269773001730        1.60518116930257
H            4.60371413409567       -1.22514403927528        2.71068663701918
H            4.89916180131096        0.20421137076199       -1.34159166799800
H            2.44667306317039        0.18801845536073       -1.41162164043064
H            7.96400650163215       -0.79143534590693        2.14602732590728
H            6.42066820814017       -0.34324567607303        2.89392699198810
H            7.99068954189966        1.61064679508414        2.84797529490045
H            6.53956845273417        1.91092699778072        1.86960361419250
H            9.17774314544250        1.15611487161470        0.88933725774570
H            8.30774156432091        1.31908782215548       -1.26897862201502
H            6.73230130209728        1.75532151795131       -0.57418799611491
H            8.15506917632963       -0.93389211175526       -0.19824664501736
H            6.75793406195756       -0.68297185766038       -1.24913721533116
H           -2.79279405504400       -0.91328541657473        1.63485828912769
H           -4.10548031306757       -2.76386606431356        1.79548408418058
H           -5.05249371322815       -2.25050715242574        0.39988999480430
H           -6.20484198006705       -2.41248980509216        2.88248469343582
H           -6.65425344624777       -1.14280444762097        1.72819676781692
H           -4.57130364736613       -0.90604142170144        3.94042449722283
H           -6.00034271477055        0.11562194894655        3.71228429387873
H           -3.69706075592039        1.00420565041872        2.67029513078806
H           -5.12726314388803        0.99035145974699        1.62432656353602

 Bond Distances (Angstroems)
 ---------------------------
C1-C2=1.5011         C1-H34=1.0892        C1-H35=1.0867        C1-H36=1.0883        C2-C1=1.5011         C2-C3=1.4970         
C2-O33=1.2094        C3-C2=1.4970         C3-C4=1.3642         C3-C31=1.4637        C4-C3=1.3642         C4-C5=1.4954         
C4-C6=1.4292         C5-C4=1.4954         C5-H37=1.0896        C5-H38=1.0890        C5-H39=1.0840        C6-C4=1.4292         
C6-C7=1.4004         C6-C24=1.4177        C7-C6=1.4004         C7-N8=1.3108         C7-H40=1.0813        N8-C7=1.3108         
N8-C9=1.3418         C9-N8=1.3418         C9-N10=1.3480        C9-N23=1.3337        N10-C9=1.3480        N10-C11=1.3870       
N10-H41=1.0127       C11-N10=1.3870       C11-N12=1.3309       C11-C16=1.3923       N12-C11=1.3309       N12-C13=1.3141       
C13-N12=1.3141       C13-C14=1.4045       C13-H42=1.0812       C14-C13=1.4045       C14-C15=1.4038       C14-N17=1.3805       
C15-C14=1.4038       C15-C16=1.3796       C15-H43=1.0787       C16-C11=1.3923       C16-C15=1.3796       C16-H44=1.0759       
N17-C14=1.3805       N17-C18=1.4511       N17-C22=1.4497       C18-N17=1.4511       C18-C19=1.5411       C18-H45=1.0969       
C18-H46=1.0872       C19-C18=1.5411       C19-N20=1.4512       C19-H47=1.0915       C19-H48=1.0949       N20-C19=1.4512       
N20-C21=1.4526       N20-H49=1.0168       C21-N20=1.4526       C21-C22=1.5381       C21-H50=1.0916       C21-H51=1.0941       
C22-N17=1.4497       C22-C21=1.5381       C22-H52=1.0978       C22-H53=1.0890       N23-C9=1.3337        N23-C24=1.3281       
C24-C6=1.4177        C24-N23=1.3281       C24-N25=1.3601       N25-C24=1.3601       N25-C26=1.4630       N25-C31=1.3927       
C26-N25=1.4630       C26-C27=1.5438       C26-C30=1.5377       C26-H54=1.0907       C27-C26=1.5438       C27-C28=1.5306       
C27-H55=1.0907       C27-H56=1.0879       C28-C27=1.5306       C28-C29=1.5257       C28-H57=1.0889       C28-H58=1.0891       
C29-C28=1.5257       C29-C30=1.5251       C29-H59=1.0919       C29-H60=1.0885       C30-C26=1.5377       C30-C29=1.5251       
C30-H61=1.0894       C30-H62=1.0890       C31-C3=1.4637        C31-N25=1.3927       C31-O32=1.2185       O32-C31=1.2185       
O33-C2=1.2094        H34-C1=1.0892        H35-C1=1.0867        H36-C1=1.0883        H37-C5=1.0896        H38-C5=1.0890        
H39-C5=1.0840        H40-C7=1.0813        H41-N10=1.0127       H42-C13=1.0812       H43-C15=1.0787       H44-C16=1.0759       
H45-C18=1.0969       H46-C18=1.0872       H47-C19=1.0915       H48-C19=1.0949       H49-N20=1.0168       H50-C21=1.0916       
H51-C21=1.0941       H52-C22=1.0978       H53-C22=1.0890       H54-C26=1.0907       H55-C27=1.0907       H56-C27=1.0879       
H57-C28=1.0889       H58-C28=1.0891       H59-C29=1.0919       H60-C29=1.0885       H61-C30=1.0894       H62-C30=1.0890       
 C  H  Rav=1.0886 sigma=0.0049  Rmin=1.0759  Rmax=1.0978    27
 C  C  Rav=1.4679 sigma=0.0629  Rmin=1.3642  Rmax=1.5438    19
 N  H  Rav=1.0148 sigma=0.0021  Rmin=1.0127  Rmax=1.0168     2
 N  C  Rav=1.3810 sigma=0.0540  Rmin=1.3108  Rmax=1.4630    16
 O  C  Rav=1.2140 sigma=0.0046  Rmin=1.2094  Rmax=1.2185     2

 selected bond angles (degree)
 --------------------
H34-C1-C2=108.14               H35-C1-C2=109.92               H35-C1-H34=109.96              H36-C1-C2=110.36               
H36-C1-H34=107.88              H36-C1-H35=110.53              C3-C2-C1=115.36                O33-C2-C1=122.71               
O33-C2-C3=121.92               C4-C3-C2=121.30                C31-C3-C2=116.52               C31-C3-C4=122.16               
C5-C4-C3=123.37                C6-C4-C3=118.37                C6-C4-C5=118.24                H37-C5-C4=110.15               
H38-C5-C4=109.61               H38-C5-H37=108.23              H39-C5-C4=111.51               H39-C5-H37=109.20              
H39-C5-H38=108.05              C7-C6-C4=125.18                C24-C6-C4=119.95               C24-C6-C7=114.87               
N8-C7-C6=123.79                H40-C7-C6=121.21               H40-C7-N8=115.00               C9-N8-C7=116.82                
N10-C9-N8=120.36               N23-C9-N8=125.01               N23-C9-N10=114.64              C11-N10-C9=131.17              
H41-N10-C9=115.12              H41-N10-C11=113.69             

 selected dihedral angles (degree)
 ---------------------------------
C3-C2-C1-H34= 68.25           C3-C2-C1-H35=188.30           C3-C2-C1-H36=310.46           O33-C2-C1-H34=247.32          
O33-C2-C1-H35=  7.37          O33-C2-C1-H36=129.52          C4-C3-C2-C1=130.81            C4-C3-C2-O33=311.73           
C31-C3-C2-C1=308.91           C31-C3-C2-O33=129.84          C5-C4-C3-C2=357.97            C5-C4-C3-C31=179.98           
C6-C4-C3-C2=179.59            C6-C4-C3-C31=  1.59           H37-C5-C4-C3=239.03           H37-C5-C4-C6= 57.42           
H38-C5-C4-C3=120.06           H38-C5-C4-C6=298.44           H39-C5-C4-C3=  0.45           H39-C5-C4-C6=178.83           
C7-C6-C4-C3=179.47            C7-C6-C4-C5=  1.00            C24-C6-C4-C3=358.59           C24-C6-C4-C5=180.13           
N8-C7-C6-C4=178.95            N8-C7-C6-C24=359.78           H40-C7-C6-C4=359.17           H40-C7-C6-C24=180.00          
C9-N8-C7-C6=  0.00            C9-N8-C7-H40=179.81           N10-C9-N8-C7=180.44           N23-C9-N8-C7=  0.34           
C11-N10-C9-N8=  1.09          C11-N10-C9-N23=181.18         H41-N10-C9-N8=179.72          H41-N10-C9-N23=359.81         
           -------------------------------------------------
          |                Final Singlepoint                |
           -------------------------------------------------

          ...................................................
          :                      SETUP                      :
          :.................................................:
          :  # basis functions                 161          :
          :  # atomic orbitals                 161          :
          :  # shells                           95          :
          :  # electrons                       172          :
          :  max. iterations                   250          :
          :  Hamiltonian                  GFN2-xTB          :
          :  restarted?                      false          :
          :  GBSA solvation                  false          :
          :  PC potential                    false          :
          :  electronic temp.          300.0000000     K    :
          :  accuracy                    1.0000000          :
          :  -> integral cutoff          0.2500000E+02      :
          :  -> integral neglect         0.1000000E-07      :
          :  -> SCF convergence          0.1000000E-05 Eh   :
          :  -> wf. convergence          0.1000000E-03 e    :
          :  Broyden damping             0.4000000          :
          :  net charge                          0          :
          :  unpaired electrons                  0          :
          ...................................................

 iter      E             dE          RMSdq      gap      omega  full diag
   1    -96.1917596 -0.961918E+02  0.139E-04    1.53       0.0  T
   2    -96.1917596 -0.182538E-09  0.925E-05    1.53     137.3  T
   3    -96.1917596 -0.108386E-09  0.611E-05    1.53     207.7  T

   *** convergence criteria satisfied after 3 iterations ***

         #    Occupation            Energy/Eh            Energy/eV
      -------------------------------------------------------------
         1        2.0000           -0.7023831             -19.1128
       ...           ...                  ...                  ...
        80        2.0000           -0.3988105             -10.8522
        81        2.0000           -0.3940600             -10.7229
        82        2.0000           -0.3845642             -10.4645
        83        2.0000           -0.3792750             -10.3206
        84        2.0000           -0.3769291             -10.2568
        85        2.0000           -0.3727169             -10.1421
        86        2.0000           -0.3455525              -9.4030 (HOMO)
        87                         -0.2892228              -7.8702 (LUMO)
        88                         -0.2599244              -7.0729
        89                         -0.2432860              -6.6201
        90                         -0.2366069              -6.4384
        91                         -0.2266123              -6.1664
       ...                                ...                  ...
       161                          0.6949653              18.9110
      -------------------------------------------------------------
                  HL-Gap            0.0563297 Eh            1.5328 eV
             Fermi-level           -0.3173877 Eh           -8.6366 eV

 SCC (total)                   0 d,  0 h,  0 min,  0.100 sec
 SCC setup                      ...        0 min,  0.001 sec (  0.616%)
 Dispersion                     ...        0 min,  0.001 sec (  0.722%)
 classical contributions        ...        0 min,  0.000 sec (  0.302%)
 integral evaluation            ...        0 min,  0.013 sec ( 12.618%)
 iterations                     ...        0 min,  0.038 sec ( 37.849%)
 molecular gradient             ...        0 min,  0.048 sec ( 47.546%)
 printout                       ...        0 min,  0.000 sec (  0.336%)

         :::::::::::::::::::::::::::::::::::::::::::::::::::::
         ::                     SUMMARY                     ::
         :::::::::::::::::::::::::::::::::::::::::::::::::::::
         :: total energy             -94.882713881173 Eh    ::
         :: gradient norm              0.000544649108 Eh/a0 ::
         :: HOMO-LUMO gap              1.532809548549 eV    ::
         ::.................................................::
         :: SCC energy               -96.192005374059 Eh    ::
         :: -> isotropic ES            0.109551873292 Eh    ::
         :: -> anisotropic ES          0.006270274925 Eh    ::
         :: -> anisotropic XC          0.052906284835 Eh    ::
         :: -> dispersion             -0.071052127822 Eh    ::
         :: repulsion energy           1.309291492886 Eh    ::
         :: add. restraining           0.000000000000 Eh    ::
         :: total charge               0.000000000000 e     ::
         :::::::::::::::::::::::::::::::::::::::::::::::::::::

           -------------------------------------------------
          |                Property Printout                |
           -------------------------------------------------

    * Orbital Energies and Occupations

         #    Occupation            Energy/Eh            Energy/eV
      -------------------------------------------------------------
         1        2.0000           -0.7023831             -19.1128
       ...           ...                  ...                  ...
        74        2.0000           -0.4334263             -11.7941
        75        2.0000           -0.4305966             -11.7171
        76        2.0000           -0.4222493             -11.4900
        77        2.0000           -0.4197723             -11.4226
        78        2.0000           -0.4149343             -11.2909
        79        2.0000           -0.4092971             -11.1375
        80        2.0000           -0.3988105             -10.8522
        81        2.0000           -0.3940600             -10.7229
        82        2.0000           -0.3845642             -10.4645
        83        2.0000           -0.3792750             -10.3206
        84        2.0000           -0.3769291             -10.2568
        85        2.0000           -0.3727169             -10.1421
        86        2.0000           -0.3455525              -9.4030 (HOMO)
        87                         -0.2892228              -7.8702 (LUMO)
        88                         -0.2599244              -7.0729
        89                         -0.2432860              -6.6201
        90                         -0.2366069              -6.4384
        91                         -0.2266123              -6.1664
        92                         -0.2033749              -5.5341
        93                         -0.1574603              -4.2847
        94                         -0.1014543              -2.7607
        95                         -0.0886114              -2.4112
        96                         -0.0183296              -0.4988
        97                         -0.0055104              -0.1499
       ...                                ...                  ...
       161                          0.6949653              18.9110
      -------------------------------------------------------------
                  HL-Gap            0.0563297 Eh            1.5328 eV
             Fermi-level           -0.3173877 Eh           -8.6366 eV

     #   Z          covCN         q      C6AA      α(0)
     1   6 C        3.754    -0.140    23.263     6.877
     2   6 C        2.817     0.251    22.785     7.821
     3   6 C        2.964    -0.070    29.751     8.947
     4   6 C        2.957     0.033    27.258     8.563
     5   6 C        3.758    -0.114    22.742     6.799
     6   6 C        2.979    -0.051    29.269     8.874
     7   6 C        2.925     0.077    26.292     8.409
     8   7 N        1.837    -0.280    28.105     7.856
     9   6 C        2.882     0.241    22.986     7.860
    10   7 N        2.726    -0.133    23.889     7.259
    11   6 C        2.891     0.140    24.957     8.191
    12   7 N        1.852    -0.255    27.501     7.772
    13   6 C        2.909     0.034    27.234     8.557
    14   6 C        2.903     0.049    26.905     8.505
    15   6 C        2.933    -0.043    29.065     8.842
    16   6 C        2.910    -0.061    29.515     8.908
    17   7 N        2.736    -0.118    23.560     7.209
    18   6 C        3.759    -0.005    20.723     6.490
    19   6 C        3.751     0.006    20.536     6.463
    20   7 N        2.678    -0.257    26.661     7.669
    21   6 C        3.751     0.006    20.543     6.464
    22   6 C        3.759    -0.004    20.691     6.485
    23   7 N        1.861    -0.323    29.238     8.015
    24   6 C        2.920     0.164    24.462     8.111
    25   7 N        2.749    -0.072    22.633     7.066
    26   6 C        3.820     0.036    19.956     6.357
    27   6 C        3.820    -0.057    21.581     6.611
    28   6 C        3.829    -0.061    21.642     6.619
    29   6 C        3.829    -0.056    21.561     6.607
    30   6 C        3.828    -0.061    21.653     6.621
    31   6 C        2.773     0.267    22.495     7.768
    32   8 O        0.859    -0.433    22.347     6.338
    33   8 O        0.857    -0.367    21.024     6.148
    34   1 H        0.925     0.104     1.745     2.066
    35   1 H        0.925     0.064     2.150     2.293
    36   1 H        0.925     0.056     2.246     2.343
    37   1 H        0.925     0.052     2.289     2.366
    38   1 H        0.925     0.064     2.158     2.297
    39   1 H        0.925     0.071     2.074     2.252
    40   1 H        0.925     0.050     2.315     2.380
    41   1 H        0.860     0.210     1.058     1.611
    42   1 H        0.926     0.035     2.521     2.483
    43   1 H        0.926     0.034     2.535     2.490
    44   1 H        0.926     0.069     2.102     2.267
    45   1 H        0.924     0.036     2.507     2.476
    46   1 H        0.925     0.046     2.373     2.409
    47   1 H        0.924     0.038     2.476     2.461
    48   1 H        0.924     0.041     2.440     2.443
    49   1 H        0.860     0.136     1.498     1.917
    50   1 H        0.924     0.037     2.494     2.470
    51   1 H        0.924     0.043     2.414     2.430
    52   1 H        0.924     0.036     2.509     2.477
    53   1 H        0.925     0.044     2.398     2.422
    54   1 H        0.924     0.069     2.094     2.263
    55   1 H        0.924     0.032     2.563     2.503
    56   1 H        0.925     0.045     2.385     2.415
    57   1 H        0.925     0.031     2.574     2.509
    58   1 H        0.925     0.061     2.189     2.313
    59   1 H        0.924     0.032     2.562     2.503
    60   1 H        0.925     0.037     2.493     2.469
    61   1 H        0.925     0.030     2.585     2.514
    62   1 H        0.925     0.059     2.214     2.327

 Mol. C6AA /au·bohr⁶  :      42294.786240
 Mol. C8AA /au·bohr⁸  :     981923.293831
 Mol. α(0) /au        :        315.250396


Wiberg/Mayer (AO) data.
largest (>0.10) Wiberg bond orders for each atom

 ---------------------------------------------------------------------------
     #   Z sym  total        # sym  WBO       # sym  WBO       # sym  WBO
 ---------------------------------------------------------------------------
     1   6 C    3.990 --     2 C    1.013    35 H    0.982    36 H    0.965
                            34 H    0.936
     2   6 C    3.919 --    33 O    1.830     1 C    1.013     3 C    0.998
     3   6 C    3.961 --     4 C    1.583    31 C    1.075     2 C    0.998
     4   6 C    3.977 --     3 C    1.583     6 C    1.174     5 C    1.034
     5   6 C    3.992 --     4 C    1.034    39 H    0.977    37 H    0.966
                            38 H    0.962
     6   6 C    3.974 --     7 C    1.330    24 C    1.220     4 C    1.174
     7   6 C    3.955 --     8 N    1.493     6 C    1.330    40 H    0.958
     8   7 N    3.036 --     7 C    1.493     9 C    1.265
     9   6 C    3.955 --    23 N    1.312     8 N    1.265    10 N    1.225
    10   7 N    3.503 --     9 C    1.225    11 C    1.086    41 H    0.921
    11   6 C    3.952 --    12 N    1.350    16 C    1.337    10 N    1.086
    12   7 N    3.049 --    13 C    1.468    11 C    1.350
    13   6 C    3.979 --    12 N    1.468    14 C    1.317    42 H    0.957
                            16 C    0.102
    14   6 C    3.962 --    15 C    1.328    13 C    1.317    17 N    1.143
    15   6 C    3.990 --    16 C    1.480    14 C    1.328    43 H    0.964
    16   6 C    3.982 --    15 C    1.480    11 C    1.337    44 H    0.958
                            13 C    0.102
    17   7 N    3.352 --    14 C    1.143    22 C    0.998    18 C    0.991
    18   6 C    3.979 --    17 N    0.991    19 C    0.979    45 H    0.970
                            46 H    0.967
    19   6 C    3.985 --    20 N    1.020    18 C    0.979    47 H    0.973
                            48 H    0.972
    20   7 N    3.076 --    19 C    1.020    21 C    1.018    49 H    0.957
    21   6 C    3.985 --    20 N    1.018    22 C    0.981    50 H    0.974
                            51 H    0.971
    22   6 C    3.981 --    17 N    0.998    21 C    0.981    52 H    0.968
                            53 H    0.968
    23   7 N    3.026 --    24 C    1.362     9 C    1.312
    24   6 C    3.965 --    23 N    1.362     6 C    1.220    25 N    1.198
    25   7 N    3.596 --    24 C    1.198    31 C    1.107    26 C    0.953
                            32 O    0.137
    26   6 C    3.948 --    30 C    0.983    27 C    0.981    54 H    0.957
                            25 N    0.953
    27   6 C    3.994 --    28 C    1.006    55 H    0.981    26 C    0.981
                            56 H    0.978
    28   6 C    3.995 --    29 C    1.007    27 C    1.006    57 H    0.980
                            58 H    0.977
    29   6 C    3.997 --    28 C    1.007    30 C    1.006    59 H    0.980
                            60 H    0.979
    30   6 C    3.993 --    29 C    1.006    26 C    0.983    61 H    0.980
                            62 H    0.974
    31   6 C    3.952 --    32 O    1.650    25 N    1.107     3 C    1.075
    32   8 O    1.976 --    31 C    1.650    25 N    0.137
    33   8 O    2.056 --     2 C    1.830
    34   1 H    0.989 --     1 C    0.936
    35   1 H    0.995 --     1 C    0.982
    36   1 H    0.997 --     1 C    0.965
    37   1 H    0.995 --     5 C    0.966
    38   1 H    0.994 --     5 C    0.962
    39   1 H    0.995 --     5 C    0.977
    40   1 H    0.997 --     7 C    0.958
    41   1 H    0.955 --    10 N    0.921
    42   1 H    0.998 --    13 C    0.957
    43   1 H    0.998 --    15 C    0.964
    44   1 H    0.995 --    16 C    0.958
    45   1 H    0.998 --    18 C    0.970
    46   1 H    0.998 --    18 C    0.967
    47   1 H    0.998 --    19 C    0.973
    48   1 H    0.998 --    19 C    0.972
    49   1 H    0.981 --    20 N    0.957
    50   1 H    0.998 --    21 C    0.974
    51   1 H    0.998 --    21 C    0.971
    52   1 H    0.997 --    22 C    0.968
    53   1 H    0.998 --    22 C    0.968
    54   1 H    0.995 --    26 C    0.957
    55   1 H    0.999 --    27 C    0.981
    56   1 H    0.998 --    27 C    0.978
    57   1 H    0.999 --    28 C    0.980
    58   1 H    0.996 --    28 C    0.977
    59   1 H    0.999 --    29 C    0.980
    60   1 H    0.998 --    29 C    0.979
    61   1 H    0.999 --    30 C    0.980
    62   1 H    0.996 --    30 C    0.974
 ---------------------------------------------------------------------------

Topologies differ in total number of bonds
Writing topology from bond orders to xtbtopo.mol

molecular dipole:
                 x           y           z       tot (Debye)
 q only:        2.836      -0.973       0.640
   full:        2.995      -1.154       0.190       8.172
molecular quadrupole (traceless):
                xx          xy          yy          xz          yz          zz
 q only:        6.086      16.350     -10.210      -9.313       6.410       4.124
  q+dip:        7.429      10.096     -13.451      -6.964       7.233       6.021
   full:        4.479      10.651      -9.417      -7.470      10.557       4.938

           -------------------------------------------------
          |                Geometry Summary                 |
           -------------------------------------------------

      molecular mass/u    :      447.5336757
   center of mass at/Å    :       -0.2024329       0.0396200      -0.1867009
  moments of inertia/u·Å² :        0.1774984E+04   0.1100483E+05   0.1238328E+05
rotational constants/cm⁻¹ :        0.9497342E-02   0.1531839E-02   0.1361322E-02

 * 61 selected distances

     #   Z          #   Z                                           value/Å
     3   6 C        4   6 C                                       1.3642372
     4   6 C        6   6 C                                       1.4292342
     6   6 C        7   6 C                                       1.4003747
     7   6 C        8   7 N                                       1.3108386
     8   7 N        9   6 C                                       1.3417974
     9   6 C       10   7 N                                       1.3479715
    10   7 N       11   6 C                                       1.3870359
    11   6 C       12   7 N                                       1.3308926
    12   7 N       13   6 C                                       1.3140994
    13   6 C       14   6 C                                       1.4045285
    14   6 C       15   6 C                                       1.4038270
    11   6 C       16   6 C                                       1.3923057
    15   6 C       16   6 C                                       1.3796233
    14   6 C       17   7 N                                       1.3805287
    17   7 N       18   6 C                                       1.4511031
    18   6 C       19   6 C                                       1.5411100 (max)
    19   6 C       20   7 N                                       1.4511593
    20   7 N       21   6 C                                       1.4525634
    17   7 N       22   6 C                                       1.4496922
    21   6 C       22   6 C                                       1.5381114
     9   6 C       23   7 N                                       1.3337270
     6   6 C       24   6 C                                       1.4177298
    23   7 N       24   6 C                                       1.3280651
    24   6 C       25   7 N                                       1.3600713
    25   7 N       26   6 C                                       1.4630051
    27   6 C       28   6 C                                       1.5306291
    28   6 C       29   6 C                                       1.5256926
    26   6 C       30   6 C                                       1.5376621
    29   6 C       30   6 C                                       1.5250786
    25   7 N       31   6 C                                       1.3927465
    31   6 C       32   8 O                                       1.2185450
     2   6 C       33   8 O                                       1.2094102
[...]
    2    7 N      8, 10, 12, 17, 20, 23, 25
    3    8 O      32, 33
    4    1 H      34-62

           -------------------------------------------------
          |                Calculation Setup                |
           -------------------------------------------------

          program call               : xtb /rds/general/user/hgt20/home/callum/QDESCP/Palbociclib_rdkit_conf_17/Palbociclib_rdkit_conf_17.xyz --acc 1 --gfn 2 --chrg 0 --uhf 2 --etemp 300 --input /rds/general/user/hgt20/home/callum/QDESCP/Palbociclib_rdkit_conf_17/Palbociclib_rdkit_conf_17_xtb.inp -P 1
          hostname                   : login-c
          coordinate file            : /rds/general/user/hgt20/home/callum/QDESCP/Palbociclib_rdkit_conf_17/Palbociclib_rdkit_conf_17.xyz
          omp threads                :                     1


           -------------------------------------------------
          |                 G F N 2 - x T B                 |
           -------------------------------------------------

        Reference                      10.1021/acs.jctc.8b01176
      * Hamiltonian:
        H0-scaling (s, p, d)           1.850000    2.230000    2.230000
        zeta-weighting                 0.500000
      * Dispersion:
        s8                             2.700000
        a1                             0.520000
        a2                             5.000000
        s9                             5.000000
      * Repulsion:
        kExp                           1.500000    1.000000
        rExp                           1.000000
      * Coulomb:
        alpha                          2.000000
        third order                    shell-resolved
        anisotropic                    true
        a3                             3.000000
        a5                             4.000000
        cn-shift                       1.200000
        cn-exp                         4.000000
        max-rad                        5.000000


          ...................................................
          :                      SETUP                      :
          :.................................................:
          :  # basis functions                 161          :
          :  # atomic orbitals                 161          :
          :  # shells                           95          :
          :  # electrons                       172          :
          :  max. iterations                   250          :
          :  Hamiltonian                  GFN2-xTB          :
          :  restarted?                      false          :
          :  GBSA solvation                  false          :
          :  PC potential                    false          :
          :  electronic temp.          300.0000000     K    :
          :  accuracy                    1.0000000          :
          :  -> integral cutoff          0.2500000E+02      :
          :  -> integral neglect         0.1000000E-07      :
          :  -> SCF convergence          0.1000000E-05 Eh   :
          :  -> wf. convergence          0.1000000E-03 e    :
          :  Broyden damping             0.4000000          :
          :  net charge                          0          :
          :  unpaired electrons                  2          :
          ...................................................

 iter      E             dE          RMSdq      gap      omega  full diag
   1    -95.8247861 -0.958248E+02  0.364E+00    0.88       0.0  T
   2    -95.6900286  0.134758E+00  0.279E+00    0.43       1.0  T
   3    -95.8230935 -0.133065E+00  0.193E+00    0.90       1.0  T
   4    -96.0482678 -0.225174E+00  0.102E+00    0.20       1.0  T
   5    -96.0050878  0.431800E-01  0.958E-01    0.47       1.0  T
   6    -96.0502504 -0.451626E-01  0.659E-01    0.58       1.0  T
   7    -96.0464750  0.377542E-02  0.622E-01    0.32       1.0  T
   8    -96.0972220 -0.507471E-01  0.302E-01    0.45       1.0  T
   9    -96.1048350 -0.761297E-02  0.159E-01    0.34       1.0  T
  10    -96.1050555 -0.220519E-03  0.891E-02    0.33       1.0  T
  11    -96.1037964  0.125915E-02  0.111E-01    0.29       1.0  T
  12    -96.1053273 -0.153095E-02  0.656E-02    0.32       1.0  T
  13    -96.1058205 -0.493199E-03  0.382E-02    0.30       1.0  T
  14    -96.1060119 -0.191383E-03  0.578E-03    0.30       2.2  T
  15    -96.1060129 -0.966660E-06  0.339E-03    0.30       3.7  T
  16    -96.1060140 -0.114627E-05  0.827E-04    0.30      15.4  T
  17    -96.1060138  0.195024E-06  0.132E-03    0.30       9.6  T
  18    -96.1060140 -0.169144E-06  0.623E-04    0.30      20.4  T
  19    -96.1060140 -0.376133E-07  0.265E-04    0.30      48.0  T

   *** convergence criteria satisfied after 19 iterations ***

         #    Occupation            Energy/Eh            Energy/eV
      -------------------------------------------------------------
         1        2.0000           -0.6989835             -19.0203
       ...           ...                  ...                  ...
        81        2.0000           -0.3860925             -10.5061
        82        2.0000           -0.3802119             -10.3461
        83        2.0000           -0.3743641             -10.1870
        84        1.8940           -0.3649318              -9.9303
        85        1.8316           -0.3644236              -9.9165
        86        1.2744           -0.3619826              -9.8500
        87        0.9971           -0.2666228              -7.2552 (HOMO)
        88        0.0029           -0.2555367              -6.9535 (LUMO)
        89                         -0.2434331              -6.6242
        90                         -0.2315300              -6.3003
        91                         -0.2090300              -5.6880
        92                         -0.1950221              -5.3068
       ...                                ...                  ...
       161                          0.7186362              19.5551
      -------------------------------------------------------------
                  HL-Gap            0.0110861 Eh            0.3017 eV
             Fermi-level           -0.3119931 Eh           -8.4898 eV

 transition dipole moment (au) for excitation:          86          87
     X       Y       Z   
   2.5230  -0.1512   0.4689  total (au/Debye):    2.571   6.534
 dE (eV)             :    2.595
 oscillator strength :  0.59412E+00

 SCC (total)                   0 d,  0 h,  0 min,  0.156 sec
 SCC setup                      ...        0 min,  0.001 sec (  0.439%)
 Dispersion                     ...        0 min,  0.001 sec (  0.635%)
 classical contributions        ...        0 min,  0.000 sec (  0.197%)
 integral evaluation            ...        0 min,  0.013 sec (  8.508%)
 iterations                     ...        0 min,  0.082 sec ( 52.767%)
 molecular gradient             ...        0 min,  0.048 sec ( 30.435%)
 printout                       ...        0 min,  0.011 sec (  7.013%)

         :::::::::::::::::::::::::::::::::::::::::::::::::::::
         ::                     SUMMARY                     ::
         :::::::::::::::::::::::::::::::::::::::::::::::::::::
         :: total energy             -94.796968344523 Eh    ::
         :: gradient norm              0.099942884091 Eh/a0 ::
         :: HOMO-LUMO gap              0.301667764934 eV    ::
         ::.................................................::
         :: SCC energy               -96.106259837409 Eh    ::
         :: -> isotropic ES            0.111331531490 Eh    ::
         :: -> anisotropic ES          0.005774414733 Eh    ::
         :: -> anisotropic XC          0.048194874812 Eh    ::
         :: -> dispersion             -0.071009278134 Eh    ::
         :: repulsion energy           1.309291492886 Eh    ::
         :: add. restraining           0.000000000000 Eh    ::
         :: total charge               0.000000000002 e     ::
         :::::::::::::::::::::::::::::::::::::::::::::::::::::

           -------------------------------------------------
          |                Property Printout                |
           -------------------------------------------------

    * Orbital Energies and Occupations

         #    Occupation            Energy/Eh            Energy/eV
      -------------------------------------------------------------
         1        2.0000           -0.6989835             -19.0203
       ...           ...                  ...                  ...
        75        2.0000           -0.4234002             -11.5213
        76        2.0000           -0.4205534             -11.4438
        77        2.0000           -0.4111039             -11.1867
        78        2.0000           -0.4057342             -11.0406
        79        2.0000           -0.4022099             -10.9447
        80        2.0000           -0.3937094             -10.7134
        81        2.0000           -0.3860925             -10.5061
        82        2.0000           -0.3802119             -10.3461
        83        2.0000           -0.3743641             -10.1870
        84        1.8940           -0.3649318              -9.9303
        85        1.8316           -0.3644236              -9.9165
        86        1.2744           -0.3619826              -9.8500
        87        0.9971           -0.2666228              -7.2552 (HOMO)
        88        0.0029           -0.2555367              -6.9535 (LUMO)
        89                         -0.2434331              -6.6242
        90                         -0.2315300              -6.3003
        91                         -0.2090300              -5.6880
        92                         -0.1950221              -5.3068
        93                         -0.1394337              -3.7942
        94                         -0.1098919              -2.9903
        95                         -0.0696141              -1.8943
        96                         -0.0286137              -0.7786
        97                         -0.0037723              -0.1026
        98                          0.0128836               0.3506
       ...                                ...                  ...
       161                          0.7186362              19.5551
      -------------------------------------------------------------
                  HL-Gap            0.0110861 Eh            0.3017 eV
             Fermi-level           -0.3119931 Eh           -8.4898 eV

     #   Z          covCN         q      C6AA      α(0)
     1   6 C        3.754    -0.135    23.151     6.861
     2   6 C        2.817     0.243    22.929     7.846
     3   6 C        2.964    -0.076    29.899     8.969
     4   6 C        2.957    -0.001    28.051     8.687
     5   6 C        3.758    -0.107    22.592     6.776
     6   6 C        2.979    -0.039    28.971     8.829
     7   6 C        2.925     0.039    27.128     8.541
     8   7 N        1.837    -0.265    27.738     7.805
     9   6 C        2.882     0.213    23.510     7.949
    10   7 N        2.726    -0.121    23.631     7.220
    11   6 C        2.891     0.144    24.869     8.176
    12   7 N        1.852    -0.255    27.498     7.772
    13   6 C        2.909     0.041    27.069     8.531
    14   6 C        2.903     0.042    27.055     8.529
    15   6 C        2.933    -0.041    29.027     8.836
    16   6 C        2.910    -0.055    29.360     8.885
    17   7 N        2.736    -0.088    22.962     7.117
    18   6 C        3.759    -0.009    20.786     6.500
    19   6 C        3.751     0.003    20.584     6.470
    20   7 N        2.678    -0.237    26.207     7.603
    21   6 C        3.751     0.003    20.593     6.472
    22   6 C        3.759    -0.007    20.752     6.494
    23   7 N        1.861    -0.319    29.111     7.997
    24   6 C        2.920     0.164    24.472     8.112
    25   7 N        2.749    -0.080    22.798     7.091
    26   6 C        3.820     0.040    19.887     6.346
    27   6 C        3.820    -0.057    21.577     6.611
    28   6 C        3.829    -0.060    21.635     6.618
    29   6 C        3.829    -0.056    21.551     6.605
    30   6 C        3.828    -0.061    21.649     6.620
    31   6 C        2.773     0.258    22.662     7.797
    32   8 O        0.859    -0.442    22.534     6.365
    33   8 O        0.857    -0.373    21.145     6.165
    34   1 H        0.925     0.098     1.799     2.097
    35   1 H        0.925     0.059     2.208     2.324
    36   1 H        0.925     0.052     2.294     2.369
    37   1 H        0.925     0.040     2.454     2.450
    38   1 H        0.925     0.049     2.332     2.388
    39   1 H        0.925     0.063     2.163     2.300
    40   1 H        0.925     0.039     2.464     2.455
    41   1 H        0.860     0.211     1.052     1.607
    42   1 H        0.926     0.039     2.461     2.453
    43   1 H        0.926     0.037     2.494     2.470
    44   1 H        0.926     0.078     1.999     2.211
    45   1 H        0.924     0.045     2.387     2.416
    46   1 H        0.925     0.056     2.243     2.342
    47   1 H        0.924     0.049     2.336     2.390
    48   1 H        0.924     0.050     2.323     2.383
    49   1 H        0.860     0.145     1.432     1.875
    50   1 H        0.924     0.048     2.349     2.397
    51   1 H        0.924     0.052     2.296     2.370
    52   1 H        0.924     0.045     2.387     2.416
    53   1 H        0.925     0.055     2.254     2.348
    54   1 H        0.924     0.064     2.148     2.292
    55   1 H        0.924     0.029     2.601     2.522
    56   1 H        0.925     0.047     2.354     2.399
    57   1 H        0.925     0.028     2.609     2.526
    58   1 H        0.925     0.061     2.182     2.310
    59   1 H        0.924     0.029     2.597     2.520
    60   1 H        0.925     0.035     2.520     2.483
    61   1 H        0.925     0.028     2.614     2.528
    62   1 H        0.925     0.062     2.178     2.308

 Mol. C6AA /au·bohr⁶  :      42261.010064
 Mol. C8AA /au·bohr⁸  :     981741.641503
 Mol. α(0) /au        :        315.144649


Wiberg/Mayer (AO) data.
largest (>0.10) Wiberg bond orders for each atom

 ---------------------------------------------------------------------------
     #   Z sym  total        # sym  WBO       # sym  WBO       # sym  WBO
 ---------------------------------------------------------------------------
     1   6 C    3.966 --     2 C    0.995    35 H    0.982    36 H    0.968
                            34 H    0.941
     2   6 C    3.891 --    33 O    1.772     3 C    1.022     1 C    0.995
     3   6 C    3.824 --     4 C    1.387    31 C    1.117     2 C    1.022
     4   6 C    3.894 --     3 C    1.387     6 C    1.253     5 C    1.025
     5   6 C    3.986 --     4 C    1.025    39 H    0.978    37 H    0.970
                            38 H    0.968
     6   6 C    3.896 --     4 C    1.253     7 C    1.222    24 C    1.197
     7   6 C    3.869 --     8 N    1.442     6 C    1.222    40 H    0.953
     8   7 N    3.006 --     7 C    1.442     9 C    1.301
     9   6 C    3.914 --     8 N    1.301    23 N    1.236    10 N    1.166
    10   7 N    3.474 --     9 C    1.166    11 C    1.151    41 H    0.921
    11   6 C    3.902 --    12 N    1.292    16 C    1.289    10 N    1.151
    12   7 N    3.006 --    13 C    1.485    11 C    1.292
    13   6 C    3.942 --    12 N    1.485    14 C    1.303    42 H    0.955
    14   6 C    3.906 --    13 C    1.303    15 C    1.285    17 N    1.144
    15   6 C    3.944 --    16 C    1.520    14 C    1.285    43 H    0.963
    16   6 C    3.958 --    15 C    1.520    11 C    1.289    44 H    0.953
    17   7 N    3.309 --    14 C    1.144    22 C    1.003    18 C    0.997
    18   6 C    3.965 --    17 N    0.997    45 H    0.968    19 C    0.966
                            46 H    0.965
    19   6 C    3.970 --    20 N    1.025    47 H    0.971    48 H    0.971
                            18 C    0.966
    20   7 N    3.085 --    19 C    1.025    21 C    1.022    49 H    0.954
    21   6 C    3.971 --    20 N    1.022    50 H    0.972    51 H    0.970
                            22 C    0.969
    22   6 C    3.969 --    17 N    1.003    21 C    0.969    53 H    0.966
                            52 H    0.966
    23   7 N    2.960 --    24 C    1.371     9 C    1.236
    24   6 C    3.949 --    23 N    1.371    25 N    1.200     6 C    1.197
    25   7 N    3.557 --    24 C    1.200    31 C    1.074    26 C    0.956
                            32 O    0.107
    26   6 C    3.944 --    30 C    0.984    27 C    0.982    25 N    0.956
                            54 H    0.953
    27   6 C    3.992 --    28 C    1.006    26 C    0.982    55 H    0.980
                            56 H    0.977
    28   6 C    3.995 --    29 C    1.007    27 C    1.006    57 H    0.980
                            58 H    0.977
    29   6 C    3.997 --    28 C    1.007    30 C    1.007    59 H    0.980
                            60 H    0.979
    30   6 C    3.989 --    29 C    1.007    26 C    0.984    61 H    0.980
                            62 H    0.971
    31   6 C    3.932 --    32 O    1.605     3 C    1.117    25 N    1.074
    32   8 O    1.913 --    31 C    1.605    25 N    0.107
    33   8 O    1.990 --     2 C    1.772
    34   1 H    0.988 --     1 C    0.941
    35   1 H    0.994 --     1 C    0.982
    36   1 H    0.996 --     1 C    0.968
    37   1 H    0.995 --     5 C    0.970
    38   1 H    0.994 --     5 C    0.968
    39   1 H    0.995 --     5 C    0.978
    40   1 H    0.988 --     7 C    0.953
    41   1 H    0.955 --    10 N    0.921
    42   1 H    0.997 --    13 C    0.955
    43   1 H    0.998 --    15 C    0.963
    44   1 H    0.993 --    16 C    0.953
    45   1 H    0.995 --    18 C    0.968
    46   1 H    0.996 --    18 C    0.965
    47   1 H    0.996 --    19 C    0.971
    48   1 H    0.997 --    19 C    0.971
    49   1 H    0.978 --    20 N    0.954
    50   1 H    0.996 --    21 C    0.972
    51   1 H    0.996 --    21 C    0.970
    52   1 H    0.994 --    22 C    0.966
    53   1 H    0.996 --    22 C    0.966
    54   1 H    0.993 --    26 C    0.953
    55   1 H    0.998 --    27 C    0.980
    56   1 H    0.997 --    27 C    0.977
    57   1 H    0.999 --    28 C    0.980
    58   1 H    0.996 --    28 C    0.977
    59   1 H    0.999 --    29 C    0.980
    60   1 H    0.998 --    29 C    0.979
    61   1 H    0.998 --    30 C    0.980
    62   1 H    0.994 --    30 C    0.971
 ---------------------------------------------------------------------------

Topologies differ in total number of bonds
Writing topology from bond orders to xtbtopo.mol

molecular dipole:
                 x           y           z       tot (Debye)
 q only:        5.735      -1.069       1.551
   full:        5.958      -1.275       1.180      15.774
molecular quadrupole (traceless):
                xx          xy          yy          xz          yz          zz
 q only:       25.837      20.074     -17.261     -11.288       8.679      -8.576
  q+dip:       27.873      13.874     -20.880      -8.972       9.353      -6.993
   full:       25.142      14.508     -17.095      -9.552      12.416      -8.047


           -------------------------------------------------
          | TOTAL ENERGY              -94.796968344523 Eh   |
          | GRADIENT NORM               0.099942884091 Eh/α |
          | HOMO-LUMO GAP               0.301667764934 eV   |
           -------------------------------------------------

------------------------------------------------------------------------
 * finished run on 2025/05/15 at 16:07:53.380     
------------------------------------------------------------------------
 total:
 * wall-time:     0 d,  0 h,  0 min,  0.187 sec
 *  cpu-time:     0 d,  0 h,  0 min,  0.174 sec
 * ratio c/w:     0.930 speedup
 SCF:
 * wall-time:     0 d,  0 h,  0 min,  0.157 sec
 *  cpu-time:     0 d,  0 h,  0 min,  0.156 sec
 * ratio c/w:     0.994 speedup


