62
 energy: -94.882713881173 gnorm: 0.000544649108 xtb: 6.7.1 (edcfbbe)
C           -6.71953290603140       -0.11049960067693       -3.11415723535661
C           -5.65656373283370        0.94718033813623       -3.04486620843509
C           -4.45688271625879        0.59751095231114       -2.22063423675860
C           -3.19199705014274        0.76571202877949       -2.70324747510237
C           -2.89711058421639        1.26079645170113       -4.08310817344623
C           -2.09154994128059        0.41980574158082       -1.85940210903503
C           -0.74035935687228        0.52460952256724       -2.21203366182312
N            0.24875174199542        0.21788609299920       -1.40836859913194
C           -0.08000551991347       -0.21955093765806       -0.18322063043797
N            0.88077590543238       -0.54649364740266        0.70392894373904
C            2.26390880111092       -0.50319655677962        0.60939262194443
N            2.87786163605306       -0.88194516280941        1.72782280709979
C            4.19121413871868       -0.88174077914278        1.77211698853213
C            5.02022531916913       -0.49767913053646        0.70537567150994
C            4.35200552971478       -0.11137015409389       -0.46721875355178
C            2.97350861861778       -0.11230783952526       -0.52294520844413
N            6.39406516337947       -0.58557011008528        0.80880897455789
C            7.06158779706462       -0.17849748753307        2.03126761811571
C            7.45153828714214        1.31012039919989        1.94775208138780
N            8.27325036127882        1.60992295551314        0.78983559932862
C            7.63152173294409        1.14912678593369       -0.42909483619649
C            7.24461298393550       -0.33676585794263       -0.33848001534714
N           -1.32656166680132       -0.36874973611873        0.26696238224914
C           -2.32964759082829       -0.05600518955378       -0.54529750959583
N           -3.60206963978960       -0.20042519316330       -0.08717229399600
C           -3.79808305423717       -0.68299589053415        1.27997361166676
C           -4.68687482013488       -1.94151937930036        1.37681657010426
C           -5.83613011979074       -1.56054992026484        2.31324565390523
C           -5.24029761985268       -0.46856908606691        3.19659095643409
C           -4.44434802301147        0.36664041081290        2.19921753665100
C           -4.71495388228774        0.11037339275866       -0.86475525527252
O           -5.83381165123881       -0.01265496124497       -0.39798650574146
O           -5.74724002785117        2.00404128324904       -3.62580980158939
H           -7.17252670171857       -0.20124919410523       -2.12784609218093
H           -7.47381744634205        0.17002167411422       -3.84434949817178
H           -6.28004990176455       -1.07271893766849       -3.36990769823861
H           -2.31062864504182        0.52270495009766       -4.62938461583627
H           -2.31776834526739        2.18110759835652       -4.02524716529515
H           -3.80731972353143        1.47085855969643       -4.63308649368059
H           -0.44222623182009        0.87660979299752       -3.19000676350068
H            0.54419169877274       -0.86269773001730        1.60518116930257
H            4.60371413409567       -1.22514403927528        2.71068663701918
H            4.89916180131096        0.20421137076199       -1.34159166799800
H            2.44667306317039        0.18801845536073       -1.41162164043064
H            7.96400650163215       -0.79143534590693        2.14602732590728
H            6.42066820814017       -0.34324567607303        2.89392699198810
H            7.99068954189966        1.61064679508414        2.84797529490045
H            6.53956845273417        1.91092699778072        1.86960361419250
H            9.17774314544250        1.15611487161470        0.88933725774570
H            8.30774156432091        1.31908782215548       -1.26897862201502
H            6.73230130209728        1.75532151795131       -0.57418799611491
H            8.15506917632963       -0.93389211175526       -0.19824664501736
H            6.75793406195756       -0.68297185766038       -1.24913721533116
H           -2.79279405504400       -0.91328541657473        1.63485828912769
H           -4.10548031306757       -2.76386606431356        1.79548408418058
H           -5.05249371322815       -2.25050715242574        0.39988999480430
H           -6.20484198006705       -2.41248980509216        2.88248469343582
H           -6.65425344624777       -1.14280444762097        1.72819676781692
H           -4.57130364736613       -0.90604142170144        3.94042449722283
H           -6.00034271477055        0.11562194894655        3.71228429387873
H           -3.69706075592039        1.00420565041872        2.67029513078806
H           -5.12726314388803        0.99035145974699        1.62432656353602
