29
 energy: -55.287222177101 gnorm: 0.000856135977 xtb: 6.7.1 (edcfbbe)
O           -0.67495995914251        2.49391312998742       -2.25402008765615
C           -0.96313220972297        1.98257896694130       -0.98111813570117
C           -1.74960872305076        0.67000962318465       -1.07738180694873
C           -2.10150543632924        0.07207953565105        0.29587641388597
C           -1.59221130188379       -1.39282789682886        0.21669231219390
C           -0.55598157747615       -1.31378373526924       -0.92454480492306
N            0.75239801170198       -1.01516586682707       -0.38367077946096
C            1.97488406773066       -1.35879498209309       -0.84049185117867
N            2.90249195651067       -0.82825077992558       -0.09005578082994
C            2.20055327111447       -0.13460023890817        0.84687770441338
C            2.85383429886086        0.64795316368516        1.92622418431560
N            4.19920230785739        0.56984528836220        1.85469083442432
O            2.24824042129826        1.27652671839090        2.76434099453226
N            0.89891726185870       -0.23167319257833        0.68809632509831
O           -0.98347717976941       -0.30717154281114       -1.78981850238230
O           -2.61910341783483       -2.28804158416883       -0.07536595157738
O           -3.49307776361917        0.12600569492102        0.46789952897085
H           -0.29765117881998        1.77796106453494       -2.78067970574717
H           -0.04255405534345        1.81113899107734       -0.40389893049993
H           -1.56627518924845        2.73467278679767       -0.46948343184823
H           -2.66489528355341        0.83968783372872       -1.65663280473825
H           -1.56932082489409        0.60880670830125        1.08856577065818
H           -1.11103596692249       -1.71570906918304        1.14452290072497
H           -0.48823646745711       -2.24755672863190       -1.49265403514564
H            2.13667422739616       -1.98213515244292       -1.69518210292864
H            4.76257994249361        1.06338553726582        2.52579478309519
H            4.62777837335200        0.03114750989863        1.12144329002989
H           -3.37242338691041       -1.77811245736608       -0.41585213326699
H           -3.71200421819468       -0.11168932569293        1.37652580248824
