31
 energy: -58.965577437702 gnorm: 0.000257430502 xtb: 6.7.1 (edcfbbe)
N            4.45049927492360       -1.35087162103899        0.40702179663254
C            3.47595522526974       -0.44392691089394        0.27374462645742
N            3.75120251683272        0.70382592745051       -0.35310314313084
C            2.79336519322873        1.59844065252082       -0.48866340642530
Cl           3.24063911820697        3.02785928368521       -1.30588643395449
N            1.54154136642009        1.54763794029518       -0.08649827953411
C            1.25013164297000        0.40521975852960        0.54492856324654
C            2.16957985720187       -0.63751732353674        0.75981729603146
N            1.55717548105852       -1.65999492581300        1.43633710426851
C            0.34210511371751       -1.25288608012050        1.62243052220199
N            0.07831674166732       -0.00868984724905        1.10688201646149
C           -1.21805897457208        0.65503546836089        1.19885546048784
C           -1.35885326173488        1.76558196813289        0.16788105787490
C           -1.76840939041065        0.96696991484032       -1.08064875318338
C           -2.53930557090313       -0.22508570229178       -0.48461248443912
O           -2.23528421524591       -0.26133633038411        0.91559375332581
C           -2.18467713275314       -1.56987798046574       -1.12419485157074
O           -2.94575632261137       -2.61328524667372       -0.58262762734444
O           -2.60317409094692        1.65960573396254       -1.96454005655526
H            4.25938064971077       -2.21069408040034        0.88860285614467
H            5.36561681834230       -1.14105933896947        0.05030866764197
H           -0.41671653841731       -1.81791138045839        2.12596418693572
H           -1.35584200859985        0.99023225841620        2.23553171768054
H           -2.17926707449886        2.42362423235883        0.45609601079495
H           -0.44060021778312        2.33089522847750        0.03483817427414
H           -0.86833220163626        0.60478770062823       -1.60207608211890
H           -3.61664744448614       -0.04947045734676       -0.58494349426402
H           -2.40706990366006       -1.53778366079210       -2.19253999901591
H           -1.10855493586498       -1.76365535669486       -0.98581084920057
H           -2.91690749025078       -2.52993007723519        0.37864411636216
H           -2.11205222516782        2.39446025270100       -2.34883246609154
