----- Optimization -----
      -----------------------------------------------------------      
     |                   =====================                   |     
     |                           x T B                           |     
     |                   =====================                   |     
     |                         S. Grimme                         |     
     |          Mulliken Center for Theoretical Chemistry        |     
     |                    University of Bonn                     |     
      -----------------------------------------------------------      

   * xtb version 6.7.1 (edcfbbe) compiled by 'conda@3ef47c1a292c' on 2024-11-25

   xtb is free software: you can redistribute it and/or modify it under
   the terms of the GNU Lesser General Public License as published by
   the Free Software Foundation, either version 3 of the License, or
   (at your option) any later version.
   
   xtb is distributed in the hope that it will be useful,
   but WITHOUT ANY WARRANTY; without even the implied warranty of
   MERCHANTABILITY or FITNESS FOR A PARTICULAR PURPOSE.  See the
   GNU Lesser General Public License for more details.
   
   Cite this work as:
   * C. Bannwarth, E. Caldeweyher, S. Ehlert, A. Hansen, P. Pracht,
     J. Seibert, S. Spicher, S. Grimme, WIREs Comput. Mol. Sci., 2020, 11,
     e01493. DOI: 10.1002/wcms.1493
   
   for GFN2-xTB:
   * C. Bannwarth, S. Ehlert and S. Grimme., J. Chem. Theory Comput., 2019,
     15, 1652-1671. DOI: 10.1021/acs.jctc.8b01176
   for GFN1-xTB:
   * S. Grimme, C. Bannwarth, P. Shushkov, J. Chem. Theory Comput., 2017,
     13, 1989-2009. DOI: 10.1021/acs.jctc.7b00118
   for GFN0-xTB:
   * P. Pracht, E. Caldeweyher, S. Ehlert, S. Grimme, ChemRxiv, 2019, preprint.
     DOI: 10.26434/chemrxiv.8326202.v1
   for GFN-FF:
   * S. Spicher and S. Grimme, Angew. Chem. Int. Ed., 2020, 59, 15665-15673.
     DOI: 10.1002/anie.202004239
   
   for ALPB and GBSA implicit solvation:
   * S. Ehlert, M. Stahn, S. Spicher, S. Grimme, J. Chem. Theory Comput.,
     2021, 17, 4250-4261. DOI: 10.1021/acs.jctc.1c00471
   
   for ddCOSMO and CPCM-X implicit solvation:
   * M. Stahn, S. Ehlert, S. Grimme, J. Phys. Chem. A,
     2023, XX, XXXX-XXXX. DOI: 10.1021/acs.jpca.3c04382
   
   for DFT-D4:
   * E. Caldeweyher, C. Bannwarth and S. Grimme, J. Chem. Phys., 2017,
     147, 034112. DOI: 10.1063/1.4993215
   * E. Caldeweyher, S. Ehlert, A. Hansen, H. Neugebauer, S. Spicher,
     C. Bannwarth and S. Grimme, J. Chem. Phys., 2019, 150, 154122.
     DOI: 10.1063/1.5090222
   * E. Caldeweyher, J.-M. Mewes, S. Ehlert and S. Grimme, Phys. Chem. Chem. Phys.
     2020, 22, 8499-8512. DOI: 10.1039/D0CP00502A
   
   for sTDA-xTB:
   * S. Grimme and C. Bannwarth, J. Chem. Phys., 2016, 145, 054103.
     DOI: 10.1063/1.4959605
   
   in the mass-spec context:
   * V. Asgeirsson, C. Bauer and S. Grimme, Chem. Sci., 2017, 8, 4879.
     DOI: 10.1039/c7sc00601b
   * J. Koopman and S. Grimme, ACS Omega 2019, 4, 12, 15120-15133.
     DOI: 10.1021/acsomega.9b02011
   
   for metadynamics refer to:
   * S. Grimme, J. Chem. Theory Comput., 2019, 155, 2847-2862
     DOI: 10.1021/acs.jctc.9b00143
   
   for SPH calculations refer to:
   * S. Spicher and S. Grimme, J. Chem. Theory Comput., 2021, 17, 1701-1714
     DOI: 10.1021/acs.jctc.0c01306
   
   for ONIOM refer to:
   * C. Plett, A. Katbashev, S. Ehlert, S. Grimme, M. Bursch,
     Phys. Chem. Chem. Phys., 2023, 25, 17860-17868. DOI: 10.1039/D3CP02178E
   
   for DIPRO refer to:
   * J. Kohn, N. Gildemeister, S. Grimme, D. Fazzi, A. Hansen,
     J. Chem. Phys., 2023, just accepted.
   
   for PTB refer to:
   * S. Grimme, M. Mueller, A. Hansen, J. Chem. Phys., 2023, 158, 124111.
     DOI: 10.1063/5.0137838
   
   with help from (in alphabetical order)
   P. Atkinson, C. Bannwarth, F. Bohle, G. Brandenburg, E. Caldeweyher
   M. Checinski, S. Dohm, S. Ehlert, S. Ehrlich, I. Gerasimov, C. Hölzer
   A. Katbashev, J. Kohn, J. Koopman, C. Lavigne, S. Lehtola, F. März, M. Müller,
   F. Musil, H. Neugebauer, J. Pisarek, C. Plett, P. Pracht, F. Pultar,
   J. Seibert, P. Shushkov, S. Spicher, M. Stahn, M. Steiner, T. Strunk,
   J. Stückrath, T. Rose, and J. Unsleber
   
 * started run on 2025/05/15 at 16:29:50.618     
   ID    Z sym.   atoms
    1    7 N      1, 3, 6, 9, 11
    2    6 C      2, 4, 7, 8, 10, 12-15, 17
    3   17 Cl     5
    4    8 O      16, 18, 19
    5    1 H      20-31

           -------------------------------------------------
          |                Calculation Setup                |
           -------------------------------------------------

          program call               : xtb /rds/general/user/hgt20/home/callum/QDESCP/Cladribine_rdkit_conf_10/Cladribine_rdkit_conf_10.xyz --opt normal --acc 1 --gfn 2 --chrg 0 --uhf 0 -P 1
          hostname                   : login-c
          coordinate file            : /rds/general/user/hgt20/home/callum/QDESCP/Cladribine_rdkit_conf_10/Cladribine_rdkit_conf_10.xyz
          omp threads                :                     1


           -------------------------------------------------
          |                 G F N 2 - x T B                 |
           -------------------------------------------------

        Reference                      10.1021/acs.jctc.8b01176
      * Hamiltonian:
        H0-scaling (s, p, d)           1.850000    2.230000    2.230000
        zeta-weighting                 0.500000
      * Dispersion:
        s8                             2.700000
        a1                             0.520000
        a2                             5.000000
        s9                             5.000000
      * Repulsion:
        kExp                           1.500000    1.000000
        rExp                           1.000000
      * Coulomb:
        alpha                          2.000000
        third order                    shell-resolved
        anisotropic                    true
        a3                             3.000000
        a5                             4.000000
        cn-shift                       1.200000
        cn-exp                         4.000000
        max-rad                        5.000000


          ...................................................
          :                      SETUP                      :
          :.................................................:
          :  # basis functions                  94          :
          :  # atomic orbitals                  93          :
          :  # shells                           51          :
          :  # electrons                       102          :
          :  max. iterations                   250          :
          :  Hamiltonian                  GFN2-xTB          :
          :  restarted?                      false          :
          :  GBSA solvation                  false          :
          :  PC potential                    false          :
          :  electronic temp.          300.0000000     K    :
          :  accuracy                    1.0000000          :
          :  -> integral cutoff          0.2500000E+02      :
          :  -> integral neglect         0.1000000E-07      :
          :  -> SCF convergence          0.1000000E-05 Eh   :
          :  -> wf. convergence          0.1000000E-03 e    :
          :  Broyden damping             0.4000000          :
          :  net charge                          0          :
          :  unpaired electrons                  0          :
          ...................................................

 iter      E             dE          RMSdq      gap      omega  full diag
   1    -59.3770859 -0.593771E+02  0.442E+00    2.95       0.0  T
   2    -59.4970394 -0.119954E+00  0.269E+00    3.30       1.0  T
   3    -59.5093553 -0.123159E-01  0.130E+00    3.16       1.0  T
   4    -59.5145611 -0.520579E-02  0.265E-01    3.08       1.0  T
   5    -59.5157315 -0.117038E-02  0.110E-01    3.05       1.0  T
   6    -59.5158419 -0.110493E-03  0.542E-02    3.05       1.0  T
   7    -59.5158699 -0.279577E-04  0.315E-02    3.05       1.0  T
   8    -59.5158758 -0.589953E-05  0.168E-02    3.05       1.1  T
   9    -59.5158779 -0.209501E-05  0.132E-02    3.05       1.4  T
  10    -59.5158797 -0.183708E-05  0.867E-03    3.05       2.1  T
  11    -59.5158808 -0.108195E-05  0.408E-03    3.05       4.4  T
  12    -59.5158810 -0.231320E-06  0.191E-03    3.05       9.4  T
  13    -59.5158811 -0.317643E-07  0.536E-04    3.05      33.5  T
  14    -59.5158811 -0.227771E-08  0.204E-04    3.05      88.1  T

   *** convergence criteria satisfied after 14 iterations ***

         #    Occupation            Energy/Eh            Energy/eV
      -------------------------------------------------------------
         1        2.0000           -1.0596414             -28.8343
       ...           ...                  ...                  ...
        45        2.0000           -0.4354323             -11.8487
        46        2.0000           -0.4294717             -11.6865
        47        2.0000           -0.4269935             -11.6191
        48        2.0000           -0.4232927             -11.5184
        49        2.0000           -0.4126628             -11.2291
        50        2.0000           -0.4016441             -10.9293
        51        2.0000           -0.3909817             -10.6392 (HOMO)
        52                         -0.2788566              -7.5881 (LUMO)
        53                         -0.2522773              -6.8648
        54                         -0.2200923              -5.9890
        55                         -0.1463788              -3.9832
        56                         -0.1263929              -3.4393
       ...                                ...                  ...
        93                          0.6159803              16.7617
      -------------------------------------------------------------
                  HL-Gap            0.1121251 Eh            3.0511 eV
             Fermi-level           -0.3349192 Eh           -9.1136 eV

 SCC (total)                   0 d,  0 h,  0 min,  0.078 sec
 SCC setup                      ...        0 min,  0.000 sec (  0.380%)
 Dispersion                     ...        0 min,  0.000 sec (  0.346%)
 classical contributions        ...        0 min,  0.000 sec (  0.113%)
 integral evaluation            ...        0 min,  0.006 sec (  7.317%)
 iterations                     ...        0 min,  0.056 sec ( 71.426%)
 molecular gradient             ...        0 min,  0.016 sec ( 20.241%)
 printout                       ...        0 min,  0.000 sec (  0.168%)

         :::::::::::::::::::::::::::::::::::::::::::::::::::::
         ::                     SUMMARY                     ::
         :::::::::::::::::::::::::::::::::::::::::::::::::::::
         :: total energy             -58.950385522131 Eh    ::
         :: gradient norm              0.091359011383 Eh/a0 ::
         :: HOMO-LUMO gap              3.051079921481 eV    ::
         ::.................................................::
         :: SCC energy               -59.515736640752 Eh    ::
         :: -> isotropic ES            0.113241980333 Eh    ::
         :: -> anisotropic ES          0.000859341812 Eh    ::
         :: -> anisotropic XC          0.020071480928 Eh    ::
         :: -> dispersion             -0.033115255150 Eh    ::
         :: repulsion energy           0.565351118621 Eh    ::
         :: add. restraining           0.000000000000 Eh    ::
         :: total charge              -0.000000000000 e     ::
         :::::::::::::::::::::::::::::::::::::::::::::::::::::

      ----------------------------------------------------------- 
     |                   =====================                   |
     |                        A N C O P T                        |
     |                   =====================                   |
     |               Approximate Normal Coordinate               |
     |                Rational Function Optimizer                |
      ----------------------------------------------------------- 
      ----------------------------------------------------------- 
     |                   =====================                   |
     |                        A N C O P T                        |
     |                   =====================                   |
     |               Approximate Normal Coordinate               |
     |                Rational Function Optimizer                |
      ----------------------------------------------------------- 

          ...................................................
          :                      SETUP                      :
          :.................................................:
          :   optimization level            normal          :
          :   max. optcycles                   200          :
          :   ANC micro-cycles                  20          :
          :   degrees of freedom                87          :
          :.................................................:
          :   RF solver                   davidson          :
          :   write xtbopt.log                true          :
          :   linear?                        false          :
          :   energy convergence         0.5000000E-05 Eh   :
          :   grad. convergence          0.1000000E-02 Eh/α :
          :   maxmium RF displ.          1.0000000          :
          :   Hlow (freq-cutoff)         0.1000000E-01      :
          :   Hmax (freq-cutoff)         5.0000000          :
          :   S6 in model hess.         20.0000000          :
          ...................................................

generating ANC from exact Hessian ...
Using Lindh-Hessian (1995)
 Shifting diagonal of input Hessian by    9.1072018204942078E-003
 Lowest  eigenvalues of input Hessian
    0.000000    0.000000    0.000000    0.000000    0.000000    0.000000
    0.010000    0.010222    0.010489    0.013035    0.014334    0.015252
    0.018227    0.018837    0.021528    0.022902    0.026349    0.030688
 Highest eigenvalues
    1.785466    1.924704    2.063629    2.088469    2.171209    2.291766


........................................................................
.............................. CYCLE    1 ..............................
........................................................................

 iter      E             dE          RMSdq      gap      omega  full diag
   1    -59.5158811 -0.595159E+02  0.719E-05    3.05       0.0  T
   2    -59.5158811 -0.325855E-10  0.496E-05    3.05     362.4  T
   3    -59.5158811 -0.121361E-10  0.356E-05    3.05     504.8  T
     SCC iter.                  ...        0 min,  0.005 sec
     gradient                   ...        0 min,  0.055 sec
 * total energy  :   -58.9503855 Eh     change       -0.2559872E-09 Eh
   gradient norm :     0.0913592 Eh/α   predicted     0.0000000E+00 (-100.00%)
   displ. norm   :     0.2567043 α      lambda       -0.1250231E-01
   maximum displ.:     0.0931402 α      in ANC's #15, #17, #37, ...

........................................................................
.............................. CYCLE    2 ..............................
........................................................................

 iter      E             dE          RMSdq      gap      omega  full diag
   1    -59.5467176 -0.595467E+02  0.239E-01    3.16       0.0  T
   2    -59.5468775 -0.159961E-03  0.145E-01    3.13       1.0  T
   3    -59.5468815 -0.394754E-05  0.791E-02    3.15       1.0  T
   4    -59.5469414 -0.599356E-04  0.187E-02    3.14       1.0  T
   5    -59.5469465 -0.513109E-05  0.112E-02    3.14       1.6  T
   6    -59.5469473 -0.741878E-06  0.840E-03    3.14       2.1  T
   7    -59.5469479 -0.647485E-06  0.602E-03    3.14       3.0  T
   8    -59.5469485 -0.542752E-06  0.272E-03    3.14       6.6  T
   9    -59.5469485 -0.859265E-07  0.140E-03    3.14      12.8  T
  10    -59.5469486 -0.248488E-07  0.474E-04    3.14      37.9  T
  11    -59.5469486 -0.254266E-08  0.217E-04    3.14      82.7  T
     SCC iter.                  ...        0 min,  0.016 sec
     gradient                   ...        0 min,  0.016 sec
 * total energy  :   -58.9589213 Eh     change       -0.8535811E-02 Eh
   gradient norm :     0.0421899 Eh/α   predicted    -0.6664247E-02 ( -21.93%)
   displ. norm   :     0.1998611 α      lambda       -0.3896876E-02
   maximum displ.:     0.0766233 α      in ANC's #17, #7, #15, ...

........................................................................
.............................. CYCLE    3 ..............................
........................................................................

 iter      E             dE          RMSdq      gap      omega  full diag
   1    -59.5623567 -0.595624E+02  0.155E-01    3.22       0.0  T
   2    -59.5624864 -0.129700E-03  0.921E-02    3.18       1.0  T
   3    -59.5625124 -0.260804E-04  0.518E-02    3.20       1.0  T
   4    -59.5625274 -0.149877E-04  0.147E-02    3.19       1.2  T
   5    -59.5625309 -0.343234E-05  0.742E-03    3.19       2.4  T
   6    -59.5625312 -0.330742E-06  0.541E-03    3.19       3.3  T
   7    -59.5625314 -0.245018E-06  0.403E-03    3.19       4.5  T
   8    -59.5625317 -0.227516E-06  0.204E-03    3.19       8.8  T
   9    -59.5625317 -0.507680E-07  0.102E-03    3.19      17.6  T
  10    -59.5625317 -0.151249E-07  0.374E-04    3.19      48.0  T
  11    -59.5625317 -0.126889E-08  0.156E-04    3.19     115.0  T
     SCC iter.                  ...        0 min,  0.067 sec
     gradient                   ...        0 min,  0.016 sec
 * total energy  :   -58.9611418 Eh     change       -0.2220427E-02 Eh
   gradient norm :     0.0125120 Eh/α   predicted    -0.2027085E-02 (  -8.71%)
   displ. norm   :     0.1189915 α      lambda       -0.5414504E-03
   maximum displ.:     0.0504076 α      in ANC's #7, #15, #3, ...

........................................................................
.............................. CYCLE    4 ..............................
........................................................................

 iter      E             dE          RMSdq      gap      omega  full diag
   1    -59.5620592 -0.595621E+02  0.557E-02    3.21       0.0  T
   2    -59.5620698 -0.105905E-04  0.318E-02    3.20       1.0  T
   3    -59.5620693  0.533897E-06  0.168E-02    3.20       1.1  T
   4    -59.5620723 -0.298692E-05  0.407E-03    3.20       4.4  T
   5    -59.5620726 -0.317548E-06  0.183E-03    3.20       9.8  T
   6    -59.5620726 -0.254674E-07  0.839E-04    3.20      21.4  T
   7    -59.5620726 -0.524389E-08  0.470E-04    3.20      38.2  T
     SCC iter.                  ...        0 min,  0.010 sec
     gradient                   ...        0 min,  0.066 sec
 * total energy  :   -58.9615518 Eh     change       -0.4100890E-03 Eh
   gradient norm :     0.0095426 Eh/α   predicted    -0.2745684E-03 ( -33.05%)
   displ. norm   :     0.1910866 α      lambda       -0.5276960E-03
   maximum displ.:     0.0854266 α      in ANC's #7, #3, #1, ...

........................................................................
.............................. CYCLE    5 ..............................
........................................................................

 iter      E             dE          RMSdq      gap      omega  full diag
   1    -59.5603235 -0.595603E+02  0.751E-02    3.21       0.0  T
   2    -59.5603357 -0.121845E-04  0.438E-02    3.21       1.0  T
   3    -59.5603322  0.346649E-05  0.206E-02    3.21       1.0  T
   4    -59.5603389 -0.670466E-05  0.476E-03    3.21       3.8  T
   5    -59.5603392 -0.352401E-06  0.238E-03    3.21       7.5  T
   6    -59.5603393 -0.420543E-07  0.109E-03    3.21      16.5  T
   7    -59.5603393 -0.922781E-08  0.664E-04    3.21      27.0  T
   8    -59.5603393 -0.311710E-08  0.455E-04    3.21      39.4  T
     SCC iter.                  ...        0 min,  0.012 sec
     gradient                   ...        0 min,  0.016 sec
 * total energy  :   -58.9618964 Eh     change       -0.3445275E-03 Eh
   gradient norm :     0.0077844 Eh/α   predicted    -0.2734893E-03 ( -20.62%)
   displ. norm   :     0.1554720 α      lambda       -0.2197355E-03
   maximum displ.:     0.0844340 α      in ANC's #3, #1, #7, ...

........................................................................
.............................. CYCLE    6 ..............................
........................................................................

 iter      E             dE          RMSdq      gap      omega  full diag
   1    -59.5604064 -0.595604E+02  0.503E-02    3.22       0.0  T
   2    -59.5604099 -0.353920E-05  0.298E-02    3.22       1.0  T
   3    -59.5604080  0.190086E-05  0.124E-02    3.22       1.4  T
   4    -59.5604110 -0.296305E-05  0.284E-03    3.22       6.3  T
   5    -59.5604111 -0.107145E-06  0.152E-03    3.22      11.8  T
   6    -59.5604111 -0.118558E-07  0.670E-04    3.22      26.8  T
   7    -59.5604111 -0.398094E-08  0.413E-04    3.22      43.5  T
     SCC iter.                  ...        0 min,  0.055 sec
     gradient                   ...        0 min,  0.016 sec
 * total energy  :   -58.9620668 Eh     change       -0.1704386E-03 Eh
   gradient norm :     0.0069299 Eh/α   predicted    -0.1125726E-03 ( -33.95%)
   displ. norm   :     0.2401466 α      lambda       -0.2713285E-03
   maximum displ.:     0.1419936 α      in ANC's #3, #1, #7, ...

........................................................................
.............................. CYCLE    7 ..............................
........................................................................

 iter      E             dE          RMSdq      gap      omega  full diag
   1    -59.5615099 -0.595615E+02  0.710E-02    3.23       0.0  T
   2    -59.5615153 -0.541784E-05  0.421E-02    3.23       1.0  T
   3    -59.5615117  0.355160E-05  0.158E-02    3.23       1.1  T
   4    -59.5615170 -0.523323E-05  0.367E-03    3.23       4.9  T
   5    -59.5615171 -0.157672E-06  0.198E-03    3.23       9.1  T
   6    -59.5615172 -0.165748E-07  0.783E-04    3.23      22.9  T
   7    -59.5615172 -0.566306E-08  0.491E-04    3.23      36.6  T
     SCC iter.                  ...        0 min,  0.010 sec
     gradient                   ...        0 min,  0.016 sec
 * total energy  :   -58.9622662 Eh     change       -0.1993962E-03 Eh
   gradient norm :     0.0053482 Eh/α   predicted    -0.1435246E-03 ( -28.02%)
   displ. norm   :     0.2320646 α      lambda       -0.1847000E-03
   maximum displ.:     0.1479384 α      in ANC's #3, #1, #7, ...

........................................................................
.............................. CYCLE    8 ..............................
........................................................................

 iter      E             dE          RMSdq      gap      omega  full diag
   1    -59.5627500 -0.595628E+02  0.627E-02    3.24       0.0  T
   2    -59.5627533 -0.330386E-05  0.371E-02    3.24       1.0  T
   3    -59.5627515  0.185936E-05  0.116E-02    3.24       1.6  T
   4    -59.5627543 -0.284567E-05  0.311E-03    3.24       5.8  T
   5    -59.5627544 -0.969723E-07  0.178E-03    3.24      10.1  T
   6    -59.5627544 -0.144227E-07  0.787E-04    3.24      22.8  T
   7    -59.5627544 -0.471181E-08  0.559E-04    3.24      32.1  T
     SCC iter.                  ...        0 min,  0.010 sec
     gradient                   ...        0 min,  0.015 sec
 * total energy  :   -58.9623997 Eh     change       -0.1335274E-03 Eh
   gradient norm :     0.0040356 Eh/α   predicted    -0.9732384E-04 ( -27.11%)
   displ. norm   :     0.1900379 α      lambda       -0.1071030E-03
   maximum displ.:     0.1283025 α      in ANC's #3, #1, #6, ...

........................................................................
.............................. CYCLE    9 ..............................
........................................................................

 iter      E             dE          RMSdq      gap      omega  full diag
   1    -59.5637408 -0.595637E+02  0.468E-02    3.24       0.0  T
   2    -59.5637420 -0.120797E-05  0.277E-02    3.24       1.0  T
   3    -59.5637416  0.388537E-06  0.607E-03    3.24       3.0  T
   4    -59.5637424 -0.787197E-06  0.206E-03    3.24       8.7  T
   5    -59.5637424 -0.244381E-07  0.118E-03    3.24      15.3  T
   6    -59.5637425 -0.779850E-08  0.511E-04    3.24      35.1  T
   7    -59.5637425 -0.183953E-08  0.378E-04    3.24      47.5  T
     SCC iter.                  ...        0 min,  0.010 sec
     gradient                   ...        0 min,  0.061 sec
 * total energy  :   -58.9624782 Eh     change       -0.7843418E-04 Eh
   gradient norm :     0.0029625 Eh/α   predicted    -0.5551093E-04 ( -29.23%)
   displ. norm   :     0.1628601 α      lambda       -0.6704581E-04
   maximum displ.:     0.1131375 α      in ANC's #3, #1, #2, ...

........................................................................
.............................. CYCLE   10 ..............................
........................................................................

 iter      E             dE          RMSdq      gap      omega  full diag
   1    -59.5639615 -0.595640E+02  0.377E-02    3.24       0.0  T
   2    -59.5639621 -0.574664E-06  0.223E-02    3.24       1.0  T
   3    -59.5639620  0.463962E-07  0.369E-03    3.24       4.9  T
   4    -59.5639623 -0.264252E-06  0.156E-03    3.24      11.5  T
   5    -59.5639623 -0.865262E-08  0.875E-04    3.24      20.5  T
   6    -59.5639623 -0.561941E-08  0.396E-04    3.24      45.3  T
     SCC iter.                  ...        0 min,  0.009 sec
     gradient                   ...        0 min,  0.016 sec
 * total energy  :   -58.9625297 Eh     change       -0.5151184E-04 Eh
   gradient norm :     0.0027236 Eh/α   predicted    -0.3441385E-04 ( -33.19%)
   displ. norm   :     0.1504990 α      lambda       -0.5747100E-04
   maximum displ.:     0.1048978 α      in ANC's #3, #1, #2, ...

........................................................................
.............................. CYCLE   11 ..............................
........................................................................

 iter      E             dE          RMSdq      gap      omega  full diag
   1    -59.5642714 -0.595643E+02  0.330E-02    3.24       0.0  T
   2    -59.5642719 -0.473762E-06  0.195E-02    3.24       1.0  T
   3    -59.5642719  0.517467E-09  0.282E-03    3.24       6.4  T
   4    -59.5642720 -0.137893E-06  0.131E-03    3.24      13.7  T
   5    -59.5642720 -0.114821E-07  0.779E-04    3.24      23.0  T
   6    -59.5642720 -0.473762E-08  0.343E-04    3.24      52.4  T
     SCC iter.                  ...        0 min,  0.060 sec
     gradient                   ...        0 min,  0.016 sec
 * total energy  :   -58.9625728 Eh     change       -0.4312935E-04 Eh
   gradient norm :     0.0026426 Eh/α   predicted    -0.2938863E-04 ( -31.86%)
   displ. norm   :     0.1912039 α      lambda       -0.6210182E-04
   maximum displ.:     0.1287403 α      in ANC's #1, #3, #2, ...

........................................................................
.............................. CYCLE   12 ..............................
........................................................................

 iter      E             dE          RMSdq      gap      omega  full diag
   1    -59.5634891 -0.595635E+02  0.427E-02    3.24       0.0  T
   2    -59.5634897 -0.602746E-06  0.253E-02    3.24       1.0  T
   3    -59.5634897 -0.199328E-07  0.356E-03    3.24       5.0  T
   4    -59.5634899 -0.207584E-06  0.165E-03    3.24      10.9  T
   5    -59.5634899 -0.126816E-07  0.894E-04    3.24      20.1  T
   6    -59.5634899 -0.537779E-08  0.417E-04    3.24      43.0  T
     SCC iter.                  ...        0 min,  0.009 sec
     gradient                   ...        0 min,  0.015 sec
 * total energy  :   -58.9626135 Eh     change       -0.4071083E-04 Eh
   gradient norm :     0.0039020 Eh/α   predicted    -0.3218648E-04 ( -20.94%)
   displ. norm   :     0.1281280 α      lambda       -0.4366248E-04
   maximum displ.:     0.0879715 α      in ANC's #1, #3, #7, ...

........................................................................
.............................. CYCLE   13 ..............................
........................................................................

 iter      E             dE          RMSdq      gap      omega  full diag
   1    -59.5635523 -0.595636E+02  0.277E-02    3.24       0.0  T
   2    -59.5635526 -0.276779E-06  0.164E-02    3.24       1.1  T
   3    -59.5635526  0.699939E-08  0.233E-03    3.24       7.7  T
   4    -59.5635526 -0.942418E-07  0.103E-03    3.24      17.4  T
   5    -59.5635527 -0.529131E-08  0.558E-04    3.24      32.2  T
   6    -59.5635527 -0.180967E-08  0.268E-04    3.24      67.0  T
     SCC iter.                  ...        0 min,  0.048 sec
     gradient                   ...        0 min,  0.016 sec
 * total energy  :   -58.9626463 Eh     change       -0.3280720E-04 Eh
   gradient norm :     0.0022481 Eh/α   predicted    -0.2219186E-04 ( -32.36%)
   displ. norm   :     0.1961999 α      lambda       -0.4867904E-04
   maximum displ.:     0.1457376 α      in ANC's #1, #3, #7, ...

........................................................................
.............................. CYCLE   14 ..............................
........................................................................

 iter      E             dE          RMSdq      gap      omega  full diag
   1    -59.5638856 -0.595639E+02  0.423E-02    3.24       0.0  T
   2    -59.5638862 -0.537716E-06  0.251E-02    3.24       1.0  T
   3    -59.5638862 -0.367206E-08  0.313E-03    3.24       5.7  T
   4    -59.5638863 -0.175924E-06  0.140E-03    3.24      12.9  T
   5    -59.5638863 -0.758453E-08  0.714E-04    3.24      25.2  T
   6    -59.5638864 -0.341283E-08  0.317E-04    3.24      56.7  T
     SCC iter.                  ...        0 min,  0.009 sec
     gradient                   ...        0 min,  0.016 sec
 * total energy  :   -58.9626808 Eh     change       -0.3448273E-04 Eh
   gradient norm :     0.0029159 Eh/α   predicted    -0.2527726E-04 ( -26.70%)
   displ. norm   :     0.0978049 α      lambda       -0.2792535E-04
   maximum displ.:     0.0781169 α      in ANC's #1, #3, #5, ...

........................................................................
.............................. CYCLE   15 ..............................
........................................................................

 iter      E             dE          RMSdq      gap      omega  full diag
   1    -59.5639264 -0.595639E+02  0.221E-02    3.24       0.0  T
   2    -59.5639266 -0.225747E-06  0.130E-02    3.24       1.4  T
   3    -59.5639264  0.204881E-06  0.324E-03    3.24       5.6  T
   4    -59.5639267 -0.278660E-06  0.824E-04    3.24      21.8  T
   5    -59.5639267 -0.643711E-08  0.474E-04    3.24      37.9  T
     SCC iter.                  ...        0 min,  0.046 sec
     gradient                   ...        0 min,  0.016 sec
 * total energy  :   -58.9627029 Eh     change       -0.2208778E-04 Eh
   gradient norm :     0.0018531 Eh/α   predicted    -0.1410073E-04 ( -36.16%)
   displ. norm   :     0.1292051 α      lambda       -0.3059943E-04
   maximum displ.:     0.0999712 α      in ANC's #1, #5, #4, ...

........................................................................
.............................. CYCLE   16 ..............................
........................................................................

 iter      E             dE          RMSdq      gap      omega  full diag
   1    -59.5650848 -0.595651E+02  0.319E-02    3.25       0.0  T
   2    -59.5650851 -0.362670E-06  0.188E-02    3.24       1.0  T
   3    -59.5650851 -0.180703E-08  0.222E-03    3.24       8.1  T
   4    -59.5650852 -0.904595E-07  0.988E-04    3.24      18.2  T
   5    -59.5650852 -0.902502E-08  0.544E-04    3.24      33.0  T
     SCC iter.                  ...        0 min,  0.007 sec
     gradient                   ...        0 min,  0.016 sec
 * total energy  :   -58.9627365 Eh     change       -0.3358665E-04 Eh
   gradient norm :     0.0026743 Eh/α   predicted    -0.1541696E-04 ( -54.10%)
   displ. norm   :     0.0766265 α      lambda       -0.2592942E-04
   maximum displ.:     0.0631183 α      in ANC's #1, #5, #9, ...

........................................................................
.............................. CYCLE   17 ..............................
........................................................................

 iter      E             dE          RMSdq      gap      omega  full diag
   1    -59.5645457 -0.595645E+02  0.183E-02    3.24       0.0  T
   2    -59.5645458 -0.875735E-07  0.108E-02    3.24       1.7  T
   3    -59.5645458 -0.538577E-08  0.125E-03    3.24      14.4  T
   4    -59.5645458 -0.318164E-07  0.651E-04    3.24      27.6  T
   5    -59.5645458 -0.251398E-08  0.346E-04    3.24      51.8  T
     SCC iter.                  ...        0 min,  0.009 sec
     gradient                   ...        0 min,  0.015 sec
 * total energy  :   -58.9627589 Eh     change       -0.2238388E-04 Eh
   gradient norm :     0.0021249 Eh/α   predicted    -0.1304334E-04 ( -41.73%)
   displ. norm   :     0.1042881 α      lambda       -0.3307745E-04
   maximum displ.:     0.0786938 α      in ANC's #1, #5, #4, ...

........................................................................
.............................. CYCLE   18 ..............................
........................................................................

 iter      E             dE          RMSdq      gap      omega  full diag
   1    -59.5641479 -0.595641E+02  0.241E-02    3.24       0.0  T
   2    -59.5641481 -0.182659E-06  0.143E-02    3.24       1.3  T
   3    -59.5641481 -0.521532E-07  0.169E-03    3.24      10.6  T
   4    -59.5641481 -0.334109E-07  0.102E-03    3.24      17.6  T
   5    -59.5641481 -0.621453E-08  0.542E-04    3.24      33.1  T
   6    -59.5641481 -0.211185E-08  0.373E-04    3.24      48.2  T
     SCC iter.                  ...        0 min,  0.009 sec
     gradient                   ...        0 min,  0.015 sec
 * total energy  :   -58.9627860 Eh     change       -0.2709168E-04 Eh
   gradient norm :     0.0014529 Eh/α   predicted    -0.1671898E-04 ( -38.29%)
   displ. norm   :     0.1587614 α      lambda       -0.2775132E-04
   maximum displ.:     0.1279607 α      in ANC's #1, #5, #3, ...

........................................................................
.............................. CYCLE   19 ..............................
........................................................................

 iter      E             dE          RMSdq      gap      omega  full diag
   1    -59.5634304 -0.595634E+02  0.348E-02    3.24       0.0  T
   2    -59.5634309 -0.463471E-06  0.205E-02    3.24       1.0  T
   3    -59.5634310 -0.109362E-06  0.262E-03    3.24       6.9  T
   4    -59.5634310 -0.869118E-07  0.153E-03    3.24      11.7  T
   5    -59.5634311 -0.150832E-07  0.888E-04    3.24      20.2  T
   6    -59.5634311 -0.637230E-08  0.529E-04    3.24      33.9  T
     SCC iter.                  ...        0 min,  0.009 sec
     gradient                   ...        0 min,  0.016 sec
 * total energy  :   -58.9628155 Eh     change       -0.2950251E-04 Eh
   gradient norm :     0.0021064 Eh/α   predicted    -0.1403404E-04 ( -52.43%)
   displ. norm   :     0.0527049 α      lambda       -0.1452203E-04
   maximum displ.:     0.0476461 α      in ANC's #1, #5, #6, ...

........................................................................
.............................. CYCLE   20 ..............................
........................................................................

 iter      E             dE          RMSdq      gap      omega  full diag
   1    -59.5635176 -0.595635E+02  0.104E-02    3.24       0.0  T
   2    -59.5635176 -0.409619E-07  0.610E-03    3.24       2.9  T
   3    -59.5635177 -0.771746E-08  0.805E-04    3.24      22.3  T
   4    -59.5635177 -0.951101E-08  0.486E-04    3.24      37.0  T
     SCC iter.                  ...        0 min,  0.006 sec
     gradient                   ...        0 min,  0.060 sec
 * total energy  :   -58.9628293 Eh     change       -0.1379819E-04 Eh
   gradient norm :     0.0018278 Eh/α   predicted    -0.7285860E-05 ( -47.20%)
   displ. norm   :     0.1103663 α      lambda       -0.2654968E-04
   maximum displ.:     0.0951265 α      in ANC's #1, #2, #6, ...
 * RMSD in coord.:     0.4099521 α      energy gain  -0.1244374E-01 Eh

generating ANC from exact Hessian ...
Using Lindh-Hessian (1995)
 Shifting diagonal of input Hessian by    9.0631029674437830E-003
 Lowest  eigenvalues of input Hessian
    0.000000    0.000000    0.000000    0.000000    0.000000    0.000000
    0.010000    0.010197    0.010615    0.013268    0.014265    0.015456
    0.018227    0.019932    0.021975    0.025862    0.027758    0.031033
 Highest eigenvalues
    1.946998    2.014798    2.150979    2.193109    2.321835    2.347156


........................................................................
.............................. CYCLE   21 ..............................
........................................................................

 iter      E             dE          RMSdq      gap      omega  full diag
   1    -59.5640799 -0.595641E+02  0.221E-02    3.24       0.0  T
   2    -59.5640801 -0.172949E-06  0.130E-02    3.24       1.4  T
   3    -59.5640801 -0.315901E-07  0.168E-03    3.24      10.7  T
   4    -59.5640802 -0.370008E-07  0.988E-04    3.24      18.2  T
   5    -59.5640802 -0.723516E-08  0.541E-04    3.24      33.2  T
     SCC iter.                  ...        0 min,  0.007 sec
     gradient                   ...        0 min,  0.015 sec
 * total energy  :   -58.9628638 Eh     change       -0.3455362E-04 Eh
   gradient norm :     0.0014947 Eh/α   predicted     0.0000000E+00 (-100.00%)
   displ. norm   :     0.0463519 α      lambda       -0.1258188E-04
   maximum displ.:     0.0392623 α      in ANC's #1, #5, #3, ...

........................................................................
.............................. CYCLE   22 ..............................
........................................................................

 iter      E             dE          RMSdq      gap      omega  full diag
   1    -59.5642445 -0.595642E+02  0.118E-02    3.24       0.0  T
   2    -59.5642446 -0.701698E-07  0.697E-03    3.24       2.6  T
   3    -59.5642446  0.103501E-07  0.128E-03    3.24      14.0  T
   4    -59.5642446 -0.342555E-07  0.557E-04    3.24      32.3  T
   5    -59.5642446 -0.229700E-08  0.352E-04    3.24      51.0  T
     SCC iter.                  ...        0 min,  0.052 sec
     gradient                   ...        0 min,  0.016 sec
 * total energy  :   -58.9628814 Eh     change       -0.1754840E-04 Eh
   gradient norm :     0.0004868 Eh/α   predicted    -0.6599766E-05 ( -62.39%)
   displ. norm   :     0.0985471 α      lambda       -0.2211722E-04
   maximum displ.:     0.0747303 α      in ANC's #1, #5, #3, ...

........................................................................
.............................. CYCLE   23 ..............................
........................................................................

 iter      E             dE          RMSdq      gap      omega  full diag
   1    -59.5642618 -0.595643E+02  0.245E-02    3.24       0.0  T
   2    -59.5642620 -0.200327E-06  0.145E-02    3.24       1.2  T
   3    -59.5642619  0.333698E-07  0.227E-03    3.24       7.9  T
   4    -59.5642620 -0.116747E-06  0.938E-04    3.24      19.2  T
   5    -59.5642620 -0.450841E-08  0.498E-04    3.24      36.1  T
     SCC iter.                  ...        0 min,  0.007 sec
     gradient                   ...        0 min,  0.016 sec
 * total energy  :   -58.9629101 Eh     change       -0.2876779E-04 Eh
   gradient norm :     0.0010580 Eh/α   predicted    -0.1110811E-04 ( -61.39%)
   displ. norm   :     0.1454899 α      lambda       -0.2631548E-04
   maximum displ.:     0.1084904 α      in ANC's #1, #5, #3, ...

........................................................................
.............................. CYCLE   24 ..............................
........................................................................

 iter      E             dE          RMSdq      gap      omega  full diag
   1    -59.5640849 -0.595641E+02  0.355E-02    3.24       0.0  T
   2    -59.5640852 -0.303063E-06  0.211E-02    3.24       1.0  T
   3    -59.5640852 -0.142050E-07  0.267E-03    3.24       6.7  T
   4    -59.5640853 -0.131074E-06  0.123E-03    3.24      14.6  T
   5    -59.5640853 -0.584690E-08  0.502E-04    3.24      35.8  T
   6    -59.5640853 -0.144685E-08  0.324E-04    3.24      55.4  T
     SCC iter.                  ...        0 min,  0.009 sec
     gradient                   ...        0 min,  0.049 sec
 * total energy  :   -58.9629447 Eh     change       -0.3457089E-04 Eh
   gradient norm :     0.0015046 Eh/α   predicted    -0.1331410E-04 ( -61.49%)
   displ. norm   :     0.1609264 α      lambda       -0.2653330E-04
   maximum displ.:     0.1204055 α      in ANC's #1, #5, #3, ...

........................................................................
.............................. CYCLE   25 ..............................
........................................................................

 iter      E             dE          RMSdq      gap      omega  full diag
   1    -59.5639708 -0.595640E+02  0.378E-02    3.24       0.0  T
   2    -59.5639712 -0.359060E-06  0.224E-02    3.24       1.0  T
   3    -59.5639712 -0.525714E-07  0.279E-03    3.24       6.4  T
   4    -59.5639713 -0.123625E-06  0.142E-03    3.24      12.6  T
   5    -59.5639713 -0.858335E-08  0.638E-04    3.24      28.1  T
   6    -59.5639713 -0.244668E-08  0.429E-04    3.24      41.9  T
     SCC iter.                  ...        0 min,  0.009 sec
     gradient                   ...        0 min,  0.016 sec
 * total energy  :   -58.9629807 Eh     change       -0.3599522E-04 Eh
   gradient norm :     0.0015562 Eh/α   predicted    -0.1341969E-04 ( -62.72%)
   displ. norm   :     0.1674886 α      lambda       -0.2812849E-04
   maximum displ.:     0.1278973 α      in ANC's #1, #3, #2, ...

........................................................................
.............................. CYCLE   26 ..............................
........................................................................

 iter      E             dE          RMSdq      gap      omega  full diag
   1    -59.5639528 -0.595640E+02  0.385E-02    3.24       0.0  T
   2    -59.5639532 -0.400638E-06  0.227E-02    3.24       1.0  T
   3    -59.5639532 -0.704936E-07  0.274E-03    3.24       6.5  T
   4    -59.5639534 -0.109691E-06  0.145E-03    3.24      12.3  T
   5    -59.5639534 -0.107204E-07  0.734E-04    3.24      24.5  T
   6    -59.5639534 -0.359363E-08  0.459E-04    3.24      39.1  T
     SCC iter.                  ...        0 min,  0.059 sec
     gradient                   ...        0 min,  0.015 sec
 * total energy  :   -58.9630199 Eh     change       -0.3922758E-04 Eh
   gradient norm :     0.0012413 Eh/α   predicted    -0.1423999E-04 ( -63.70%)
   displ. norm   :     0.1700817 α      lambda       -0.3005279E-04
   maximum displ.:     0.1333328 α      in ANC's #1, #3, #2, ...

........................................................................
.............................. CYCLE   27 ..............................
........................................................................

 iter      E             dE          RMSdq      gap      omega  full diag
   1    -59.5640001 -0.595640E+02  0.372E-02    3.24       0.0  T
   2    -59.5640006 -0.416253E-06  0.218E-02    3.24       1.0  T
   3    -59.5640007 -0.112729E-06  0.252E-03    3.24       7.1  T
   4    -59.5640007 -0.721206E-07  0.149E-03    3.24      12.1  T
   5    -59.5640008 -0.117357E-07  0.802E-04    3.24      22.4  T
   6    -59.5640008 -0.471707E-08  0.506E-04    3.24      35.5  T
     SCC iter.                  ...        0 min,  0.009 sec
     gradient                   ...        0 min,  0.015 sec
 * total energy  :   -58.9630622 Eh     change       -0.4225885E-04 Eh
   gradient norm :     0.0009386 Eh/α   predicted    -0.1522168E-04 ( -63.98%)
   displ. norm   :     0.1758320 α      lambda       -0.3188873E-04
   maximum displ.:     0.1416471 α      in ANC's #1, #2, #3, ...

........................................................................
.............................. CYCLE   28 ..............................
........................................................................

 iter      E             dE          RMSdq      gap      omega  full diag
   1    -59.5640630 -0.595641E+02  0.370E-02    3.24       0.0  T
   2    -59.5640634 -0.417549E-06  0.217E-02    3.24       1.0  T
   3    -59.5640635 -0.134713E-06  0.234E-03    3.24       7.7  T
   4    -59.5640636 -0.486093E-07  0.146E-03    3.24      12.3  T
   5    -59.5640636 -0.114536E-07  0.806E-04    3.24      22.3  T
   6    -59.5640636 -0.525158E-08  0.518E-04    3.24      34.7  T
     SCC iter.                  ...        0 min,  0.048 sec
     gradient                   ...        0 min,  0.015 sec
 * total energy  :   -58.9631072 Eh     change       -0.4500627E-04 Eh
   gradient norm :     0.0008023 Eh/α   predicted    -0.1616548E-04 ( -64.08%)
   displ. norm   :     0.1709336 α      lambda       -0.3148080E-04
   maximum displ.:     0.1408375 α      in ANC's #1, #2, #3, ...

........................................................................
.............................. CYCLE   29 ..............................
........................................................................

 iter      E             dE          RMSdq      gap      omega  full diag
   1    -59.5640999 -0.595641E+02  0.341E-02    3.24       0.0  T
   2    -59.5641002 -0.370086E-06  0.199E-02    3.24       1.0  T
   3    -59.5641004 -0.141723E-06  0.203E-03    3.24       8.8  T
   4    -59.5641004 -0.252427E-07  0.135E-03    3.24      13.3  T
   5    -59.5641004 -0.849222E-08  0.773E-04    3.24      23.2  T
   6    -59.5641004 -0.494177E-08  0.511E-04    3.24      35.1  T
     SCC iter.                  ...        0 min,  0.009 sec
     gradient                   ...        0 min,  0.015 sec
 * total energy  :   -58.9631519 Eh     change       -0.4473489E-04 Eh
   gradient norm :     0.0009760 Eh/α   predicted    -0.1594509E-04 ( -64.36%)
   displ. norm   :     0.1590631 α      lambda       -0.3023180E-04
   maximum displ.:     0.1336672 α      in ANC's #1, #2, #3, ...

........................................................................
.............................. CYCLE   30 ..............................
........................................................................

 iter      E             dE          RMSdq      gap      omega  full diag
   1    -59.5642494 -0.595642E+02  0.310E-02    3.24       0.0  T
   2    -59.5642497 -0.280629E-06  0.181E-02    3.24       1.0  T
   3    -59.5642498 -0.102202E-06  0.176E-03    3.24      10.2  T
   4    -59.5642498 -0.239473E-07  0.116E-03    3.24      15.4  T
   5    -59.5642498 -0.592225E-08  0.671E-04    3.24      26.8  T
   6    -59.5642498 -0.429765E-08  0.452E-04    3.24      39.7  T
     SCC iter.                  ...        0 min,  0.048 sec
     gradient                   ...        0 min,  0.016 sec
 * total energy  :   -58.9631954 Eh     change       -0.4350744E-04 Eh
   gradient norm :     0.0010977 Eh/α   predicted    -0.1528659E-04 ( -64.86%)
   displ. norm   :     0.1500847 α      lambda       -0.2990140E-04
   maximum displ.:     0.1280044 α      in ANC's #1, #2, #3, ...

........................................................................
.............................. CYCLE   31 ..............................
........................................................................

 iter      E             dE          RMSdq      gap      omega  full diag
   1    -59.5643093 -0.595643E+02  0.287E-02    3.24       0.0  T
   2    -59.5643095 -0.238459E-06  0.167E-02    3.24       1.1  T
   3    -59.5643096 -0.708010E-07  0.176E-03    3.25      10.2  T
   4    -59.5643096 -0.368397E-07  0.114E-03    3.24      15.7  T
   5    -59.5643096 -0.669227E-08  0.696E-04    3.24      25.8  T
   6    -59.5643096 -0.486683E-08  0.434E-04    3.24      41.4  T
     SCC iter.                  ...        0 min,  0.009 sec
     gradient                   ...        0 min,  0.015 sec
 * total energy  :   -58.9632390 Eh     change       -0.4354828E-04 Eh
   gradient norm :     0.0011488 Eh/α   predicted    -0.1510125E-04 ( -65.32%)
   displ. norm   :     0.1427501 α      lambda       -0.3021685E-04
   maximum displ.:     0.1238215 α      in ANC's #1, #2, #5, ...

........................................................................
.............................. CYCLE   32 ..............................
........................................................................

 iter      E             dE          RMSdq      gap      omega  full diag
   1    -59.5644062 -0.595644E+02  0.278E-02    3.25       0.0  T
   2    -59.5644064 -0.211149E-06  0.163E-02    3.25       1.1  T
   3    -59.5644064 -0.129584E-07  0.203E-03    3.25       8.9  T
   4    -59.5644065 -0.828502E-07  0.113E-03    3.25      16.0  T
   5    -59.5644065 -0.672976E-08  0.702E-04    3.25      25.6  T
   6    -59.5644065 -0.421463E-08  0.412E-04    3.25      43.6  T
     SCC iter.                  ...        0 min,  0.054 sec
     gradient                   ...        0 min,  0.016 sec
 * total energy  :   -58.9632831 Eh     change       -0.4413713E-04 Eh
   gradient norm :     0.0010200 Eh/α   predicted    -0.1524618E-04 ( -65.46%)
   displ. norm   :     0.1410837 α      lambda       -0.3111070E-04
   maximum displ.:     0.1244438 α      in ANC's #1, #2, #5, ...

........................................................................
.............................. CYCLE   33 ..............................
........................................................................

 iter      E             dE          RMSdq      gap      omega  full diag
   1    -59.5644240 -0.595644E+02  0.284E-02    3.25       0.0  T
   2    -59.5644242 -0.213812E-06  0.167E-02    3.25       1.1  T
   3    -59.5644242 -0.131143E-07  0.210E-03    3.25       8.5  T
   4    -59.5644243 -0.839655E-07  0.115E-03    3.25      15.7  T
   5    -59.5644243 -0.663841E-08  0.692E-04    3.25      26.0  T
   6    -59.5644243 -0.415429E-08  0.411E-04    3.25      43.7  T
     SCC iter.                  ...        0 min,  0.009 sec
     gradient                   ...        0 min,  0.015 sec
 * total energy  :   -58.9633284 Eh     change       -0.4523899E-04 Eh
   gradient norm :     0.0008252 Eh/α   predicted    -0.1569358E-04 ( -65.31%)
   displ. norm   :     0.1356202 α      lambda       -0.3046204E-04
   maximum displ.:     0.1219956 α      in ANC's #1, #2, #5, ...

........................................................................
.............................. CYCLE   34 ..............................
........................................................................

 iter      E             dE          RMSdq      gap      omega  full diag
   1    -59.5644636 -0.595645E+02  0.278E-02    3.25       0.0  T
   2    -59.5644638 -0.208535E-06  0.164E-02    3.25       1.1  T
   3    -59.5644638  0.431779E-07  0.240E-03    3.25       7.5  T
   4    -59.5644639 -0.140425E-06  0.114E-03    3.25      15.8  T
   5    -59.5644639 -0.658570E-08  0.672E-04    3.25      26.7  T
   6    -59.5644639 -0.338373E-08  0.391E-04    3.25      45.9  T
     SCC iter.                  ...        0 min,  0.009 sec
     gradient                   ...        0 min,  0.042 sec
 * total energy  :   -58.9633724 Eh     change       -0.4408452E-04 Eh
   gradient norm :     0.0006680 Eh/α   predicted    -0.1535596E-04 ( -65.17%)
   displ. norm   :     0.1267475 α      lambda       -0.2839015E-04
   maximum displ.:     0.1161123 α      in ANC's #1, #2, #5, ...

........................................................................
.............................. CYCLE   35 ..............................
........................................................................

 iter      E             dE          RMSdq      gap      omega  full diag
   1    -59.5644560 -0.595645E+02  0.265E-02    3.25       0.0  T
   2    -59.5644562 -0.181590E-06  0.156E-02    3.25       1.1  T
   3    -59.5644562 -0.165668E-08  0.206E-03    3.25       8.7  T
   4    -59.5644563 -0.827162E-07  0.107E-03    3.25      16.9  T
   5    -59.5644563 -0.545693E-08  0.601E-04    3.25      29.9  T
   6    -59.5644563 -0.301073E-08  0.361E-04    3.25      49.7  T
     SCC iter.                  ...        0 min,  0.009 sec
     gradient                   ...        0 min,  0.015 sec
 * total energy  :   -58.9634136 Eh     change       -0.4119747E-04 Eh
   gradient norm :     0.0005515 Eh/α   predicted    -0.1429684E-04 ( -65.30%)
   displ. norm   :     0.1135875 α      lambda       -0.2538858E-04
   maximum displ.:     0.1055816 α      in ANC's #1, #2, #5, ...

........................................................................
.............................. CYCLE   36 ..............................
........................................................................

 iter      E             dE          RMSdq      gap      omega  full diag
   1    -59.5644900 -0.595645E+02  0.235E-02    3.25       0.0  T
   2    -59.5644901 -0.143441E-06  0.139E-02    3.25       1.3  T
   3    -59.5644901  0.223891E-07  0.198E-03    3.25       9.1  T
   4    -59.5644902 -0.911259E-07  0.941E-04    3.25      19.1  T
   5    -59.5644902 -0.442891E-08  0.499E-04    3.25      36.0  T
     SCC iter.                  ...        0 min,  0.058 sec
     gradient                   ...        0 min,  0.015 sec
 * total energy  :   -58.9634508 Eh     change       -0.3720572E-04 Eh
   gradient norm :     0.0005632 Eh/α   predicted    -0.1277161E-04 ( -65.67%)
   displ. norm   :     0.1023822 α      lambda       -0.2322743E-04
   maximum displ.:     0.0958422 α      in ANC's #1, #3, #2, ...

........................................................................
.............................. CYCLE   37 ..............................
........................................................................

 iter      E             dE          RMSdq      gap      omega  full diag
   1    -59.5644905 -0.595645E+02  0.208E-02    3.25       0.0  T
   2    -59.5644906 -0.111768E-06  0.123E-02    3.25       1.5  T
   3    -59.5644906 -0.105078E-07  0.156E-03    3.25      11.5  T
   4    -59.5644907 -0.421123E-07  0.843E-04    3.25      21.3  T
   5    -59.5644907 -0.353755E-08  0.450E-04    3.25      39.9  T
     SCC iter.                  ...        0 min,  0.007 sec
     gradient                   ...        0 min,  0.015 sec
 * total energy  :   -58.9634851 Eh     change       -0.3429742E-04 Eh
   gradient norm :     0.0006056 Eh/α   predicted    -0.1167101E-04 ( -65.97%)
   displ. norm   :     0.0976388 α      lambda       -0.2261927E-04
   maximum displ.:     0.0908006 α      in ANC's #1, #3, #6, ...

........................................................................
.............................. CYCLE   38 ..............................
........................................................................

 iter      E             dE          RMSdq      gap      omega  full diag
   1    -59.5645472 -0.595645E+02  0.196E-02    3.25       0.0  T
   2    -59.5645473 -0.926167E-07  0.115E-02    3.25       1.6  T
   3    -59.5645473 -0.123780E-07  0.136E-03    3.25      13.2  T
   4    -59.5645473 -0.315364E-07  0.762E-04    3.25      23.6  T
   5    -59.5645473 -0.325484E-08  0.382E-04    3.25      47.0  T
     SCC iter.                  ...        0 min,  0.007 sec
     gradient                   ...        0 min,  0.048 sec
 * total energy  :   -58.9635186 Eh     change       -0.3349560E-04 Eh
   gradient norm :     0.0006111 Eh/α   predicted    -0.1136061E-04 ( -66.08%)
   displ. norm   :     0.1016637 α      lambda       -0.2382808E-04
   maximum displ.:     0.0931446 α      in ANC's #1, #3, #6, ...

........................................................................
.............................. CYCLE   39 ..............................
........................................................................

 iter      E             dE          RMSdq      gap      omega  full diag
   1    -59.5645376 -0.595645E+02  0.200E-02    3.25       0.0  T
   2    -59.5645377 -0.933691E-07  0.118E-02    3.25       1.5  T
   3    -59.5645377 -0.219031E-07  0.128E-03    3.25      14.1  T
   4    -59.5645378 -0.211532E-07  0.733E-04    3.25      24.5  T
   5    -59.5645378 -0.280725E-08  0.359E-04    3.25      50.1  T
     SCC iter.                  ...        0 min,  0.007 sec
     gradient                   ...        0 min,  0.015 sec
 * total energy  :   -58.9635539 Eh     change       -0.3526166E-04 Eh
   gradient norm :     0.0006273 Eh/α   predicted    -0.1197190E-04 ( -66.05%)
   displ. norm   :     0.1119112 α      lambda       -0.2611221E-04
   maximum displ.:     0.1008242 α      in ANC's #1, #3, #6, ...

........................................................................
.............................. CYCLE   40 ..............................
........................................................................

 iter      E             dE          RMSdq      gap      omega  full diag
   1    -59.5645693 -0.595646E+02  0.219E-02    3.25       0.0  T
   2    -59.5645694 -0.108437E-06  0.129E-02    3.25       1.4  T
   3    -59.5645695 -0.318795E-07  0.125E-03    3.25      14.3  T
   4    -59.5645695 -0.165485E-07  0.764E-04    3.25      23.5  T
   5    -59.5645695 -0.320671E-08  0.388E-04    3.25      46.3  T
     SCC iter.                  ...        0 min,  0.007 sec
     gradient                   ...        0 min,  0.061 sec
 * total energy  :   -58.9635924 Eh     change       -0.3845311E-04 Eh
   gradient norm :     0.0006001 Eh/α   predicted    -0.1313073E-04 ( -65.85%)
   displ. norm   :     0.1259862 α      lambda       -0.2883232E-04
   maximum displ.:     0.1124042 α      in ANC's #1, #3, #6, ...

........................................................................
.............................. CYCLE   41 ..............................
........................................................................

 iter      E             dE          RMSdq      gap      omega  full diag
   1    -59.5645557 -0.595646E+02  0.247E-02    3.25       0.0  T
   2    -59.5645558 -0.128868E-06  0.146E-02    3.25       1.2  T
   3    -59.5645559 -0.412042E-07  0.138E-03    3.25      13.0  T
   4    -59.5645559 -0.176857E-07  0.830E-04    3.25      21.6  T
   5    -59.5645559 -0.336657E-08  0.411E-04    3.25      43.7  T
     SCC iter.                  ...        0 min,  0.007 sec
     gradient                   ...        0 min,  0.016 sec
 * total energy  :   -58.9636345 Eh     change       -0.4216647E-04 Eh
   gradient norm :     0.0005878 Eh/α   predicted    -0.1452078E-04 ( -65.56%)
   displ. norm   :     0.1394786 α      lambda       -0.3091678E-04
   maximum displ.:     0.1241860 α      in ANC's #1, #3, #6, ...

........................................................................
.............................. CYCLE   42 ..............................
........................................................................

 iter      E             dE          RMSdq      gap      omega  full diag
   1    -59.5645750 -0.595646E+02  0.273E-02    3.25       0.0  T
   2    -59.5645752 -0.162098E-06  0.161E-02    3.25       1.1  T
   3    -59.5645753 -0.568533E-07  0.142E-03    3.25      12.6  T
   4    -59.5645753 -0.146884E-07  0.890E-04    3.25      20.2  T
   5    -59.5645753 -0.370473E-08  0.460E-04    3.25      39.1  T
     SCC iter.                  ...        0 min,  0.007 sec
     gradient                   ...        0 min,  0.054 sec
 * total energy  :   -58.9636796 Eh     change       -0.4506643E-04 Eh
   gradient norm :     0.0005346 Eh/α   predicted    -0.1559669E-04 ( -65.39%)
   displ. norm   :     0.1484659 α      lambda       -0.3178014E-04
   maximum displ.:     0.1331619 α      in ANC's #1, #3, #5, ...
 * RMSD in coord.:     0.4777937 α      energy gain  -0.8503238E-03 Eh

generating ANC from exact Hessian ...
Using Lindh-Hessian (1995)
 Shifting diagonal of input Hessian by    9.1436275082315173E-003
 Lowest  eigenvalues of input Hessian
    0.000000    0.000000    0.000000    0.000000    0.000000    0.000000
    0.010000    0.010281    0.010559    0.013447    0.014048    0.015757
    0.017900    0.020004    0.022257    0.025926    0.028104    0.030920
 Highest eigenvalues
    1.945114    2.013757    2.148280    2.190628    2.322442    2.344586


........................................................................
.............................. CYCLE   43 ..............................
........................................................................

 iter      E             dE          RMSdq      gap      omega  full diag
   1    -59.5645868 -0.595646E+02  0.289E-02    3.25       0.0  T
   2    -59.5645870 -0.173639E-06  0.171E-02    3.25       1.1  T
   3    -59.5645871 -0.666729E-07  0.148E-03    3.25      12.1  T
   4    -59.5645871 -0.134489E-07  0.945E-04    3.25      19.0  T
   5    -59.5645871 -0.451855E-08  0.486E-04    3.25      37.0  T
     SCC iter.                  ...        0 min,  0.007 sec
     gradient                   ...        0 min,  0.016 sec
 * total energy  :   -58.9637260 Eh     change       -0.4642638E-04 Eh
   gradient norm :     0.0005177 Eh/α   predicted     0.0000000E+00 (-100.00%)
   displ. norm   :     0.0526865 α      lambda       -0.1277670E-04
   maximum displ.:     0.0515560 α      in ANC's #1, #3, #2, ...

........................................................................
.............................. CYCLE   44 ..............................
........................................................................

 iter      E             dE          RMSdq      gap      omega  full diag
   1    -59.5648106 -0.595648E+02  0.110E-02    3.25       0.0  T
   2    -59.5648106 -0.335139E-07  0.648E-03    3.25       2.8  T
   3    -59.5648106 -0.705469E-08  0.783E-04    3.25      22.9  T
   4    -59.5648106 -0.899953E-08  0.466E-04    3.25      38.5  T
     SCC iter.                  ...        0 min,  0.006 sec
     gradient                   ...        0 min,  0.015 sec
 * total energy  :   -58.9637448 Eh     change       -0.1877757E-04 Eh
   gradient norm :     0.0004086 Eh/α   predicted    -0.6402747E-05 ( -65.90%)
   displ. norm   :     0.0618813 α      lambda       -0.1458466E-04
   maximum displ.:     0.0572483 α      in ANC's #1, #3, #2, ...

........................................................................
.............................. CYCLE   45 ..............................
........................................................................

 iter      E             dE          RMSdq      gap      omega  full diag
   1    -59.5648932 -0.595649E+02  0.130E-02    3.25       0.0  T
   2    -59.5648933 -0.460874E-07  0.763E-03    3.25       2.4  T
   3    -59.5648933 -0.171222E-07  0.812E-04    3.25      22.1  T
   4    -59.5648933 -0.573203E-08  0.533E-04    3.25      33.7  T
     SCC iter.                  ...        0 min,  0.006 sec
     gradient                   ...        0 min,  0.067 sec
 * total energy  :   -58.9637664 Eh     change       -0.2162878E-04 Eh
   gradient norm :     0.0004201 Eh/α   predicted    -0.7305445E-05 ( -66.22%)
   displ. norm   :     0.0809922 α      lambda       -0.1843653E-04
   maximum displ.:     0.0709213 α      in ANC's #1, #3, #2, ...

........................................................................
.............................. CYCLE   46 ..............................
........................................................................

 iter      E             dE          RMSdq      gap      omega  full diag
   1    -59.5648210 -0.595648E+02  0.172E-02    3.25       0.0  T
   2    -59.5648211 -0.823707E-07  0.101E-02    3.25       1.8  T
   3    -59.5648211 -0.310525E-07  0.102E-03    3.25      17.6  T
   4    -59.5648211 -0.792848E-08  0.655E-04    3.25      27.4  T
   5    -59.5648211 -0.184116E-08  0.344E-04    3.25      52.2  T
     SCC iter.                  ...        0 min,  0.007 sec
     gradient                   ...        0 min,  0.016 sec
 * total energy  :   -58.9637937 Eh     change       -0.2727375E-04 Eh
   gradient norm :     0.0003990 Eh/α   predicted    -0.9245553E-05 ( -66.10%)
   displ. norm   :     0.1064300 α      lambda       -0.2324692E-04
   maximum displ.:     0.0899359 α      in ANC's #1, #3, #2, ...

........................................................................
.............................. CYCLE   47 ..............................
........................................................................

 iter      E             dE          RMSdq      gap      omega  full diag
   1    -59.5647392 -0.595647E+02  0.225E-02    3.25       0.0  T
   2    -59.5647393 -0.152648E-06  0.132E-02    3.25       1.4  T
   3    -59.5647394 -0.523527E-07  0.137E-03    3.25      13.1  T
   4    -59.5647394 -0.166835E-07  0.858E-04    3.25      20.9  T
   5    -59.5647394 -0.284466E-08  0.449E-04    3.25      40.0  T
     SCC iter.                  ...        0 min,  0.007 sec
     gradient                   ...        0 min,  0.061 sec
 * total energy  :   -58.9638279 Eh     change       -0.3415791E-04 Eh
   gradient norm :     0.0003865 Eh/α   predicted    -0.1168348E-04 ( -65.80%)
   displ. norm   :     0.1304112 α      lambda       -0.2719945E-04
   maximum displ.:     0.1084581 α      in ANC's #1, #3, #2, ...

........................................................................
.............................. CYCLE   48 ..............................
........................................................................

 iter      E             dE          RMSdq      gap      omega  full diag
   1    -59.5646654 -0.595647E+02  0.276E-02    3.25       0.0  T
   2    -59.5646656 -0.234216E-06  0.162E-02    3.25       1.1  T
   3    -59.5646657 -0.737362E-07  0.169E-03    3.25      10.6  T
   4    -59.5646657 -0.278356E-07  0.104E-03    3.25      17.2  T
   5    -59.5646657 -0.380755E-08  0.567E-04    3.25      31.7  T
   6    -59.5646657 -0.326121E-08  0.380E-04    3.25      47.3  T
     SCC iter.                  ...        0 min,  0.009 sec
     gradient                   ...        0 min,  0.016 sec
 * total energy  :   -58.9638676 Eh     change       -0.3971549E-04 Eh
   gradient norm :     0.0004314 Eh/α   predicted    -0.1370408E-04 ( -65.49%)
   displ. norm   :     0.1414428 α      lambda       -0.2824109E-04
   maximum displ.:     0.1176851 α      in ANC's #1, #3, #2, ...

........................................................................
.............................. CYCLE   49 ..............................
........................................................................

 iter      E             dE          RMSdq      gap      omega  full diag
   1    -59.5645916 -0.595646E+02  0.298E-02    3.25       0.0  T
   2    -59.5645919 -0.276620E-06  0.175E-02    3.25       1.0  T
   3    -59.5645920 -0.787826E-07  0.187E-03    3.25       9.6  T
   4    -59.5645920 -0.388688E-07  0.114E-03    3.25      15.7  T
   5    -59.5645920 -0.471202E-08  0.649E-04    3.25      27.7  T
   6    -59.5645920 -0.461691E-08  0.406E-04    3.25      44.2  T
     SCC iter.                  ...        0 min,  0.009 sec
     gradient                   ...        0 min,  0.016 sec
 * total energy  :   -58.9639087 Eh     change       -0.4112056E-04 Eh
   gradient norm :     0.0005321 Eh/α   predicted    -0.1424752E-04 ( -65.35%)
   displ. norm   :     0.1359123 α      lambda       -0.2638915E-04
   maximum displ.:     0.1145519 α      in ANC's #1, #3, #2, ...

........................................................................
.............................. CYCLE   50 ..............................
........................................................................

 iter      E             dE          RMSdq      gap      omega  full diag
   1    -59.5646036 -0.595646E+02  0.286E-02    3.25       0.0  T
   2    -59.5646038 -0.246810E-06  0.168E-02    3.25       1.1  T
   3    -59.5646039 -0.713761E-07  0.175E-03    3.25      10.3  T
   4    -59.5646039 -0.332046E-07  0.107E-03    3.25      16.7  T
   5    -59.5646039 -0.414099E-08  0.609E-04    3.25      29.5  T
   6    -59.5646039 -0.410690E-08  0.389E-04    3.25      46.2  T
     SCC iter.                  ...        0 min,  0.009 sec
     gradient                   ...        0 min,  0.016 sec
 * total energy  :   -58.9639473 Eh     change       -0.3856018E-04 Eh
   gradient norm :     0.0005689 Eh/α   predicted    -0.1330368E-04 ( -65.50%)
   displ. norm   :     0.1201878 α      lambda       -0.2328342E-04
   maximum displ.:     0.1034354 α      in ANC's #1, #3, #2, ...

........................................................................
.............................. CYCLE   51 ..............................
........................................................................

 iter      E             dE          RMSdq      gap      omega  full diag
   1    -59.5646497 -0.595646E+02  0.250E-02    3.25       0.0  T
   2    -59.5646499 -0.191758E-06  0.146E-02    3.25       1.2  T
   3    -59.5646499 -0.602451E-07  0.152E-03    3.25      11.8  T
   4    -59.5646499 -0.225003E-07  0.965E-04    3.25      18.6  T
   5    -59.5646499 -0.312347E-08  0.560E-04    3.25      32.1  T
     SCC iter.                  ...        0 min,  0.007 sec
     gradient                   ...        0 min,  0.015 sec
 * total energy  :   -58.9639815 Eh     change       -0.3426576E-04 Eh
   gradient norm :     0.0005444 Eh/α   predicted    -0.1171730E-04 ( -65.80%)
   displ. norm   :     0.1025898 α      lambda       -0.2044916E-04
   maximum displ.:     0.0907629 α      in ANC's #1, #2, #3, ...

........................................................................
.............................. CYCLE   52 ..............................
........................................................................

 iter      E             dE          RMSdq      gap      omega  full diag
   1    -59.5647637 -0.595648E+02  0.213E-02    3.25       0.0  T
   2    -59.5647639 -0.133594E-06  0.125E-02    3.25       1.4  T
   3    -59.5647639 -0.443791E-07  0.129E-03    3.25      13.9  T
   4    -59.5647639 -0.152159E-07  0.836E-04    3.25      21.5  T
   5    -59.5647639 -0.246798E-08  0.483E-04    3.25      37.2  T
     SCC iter.                  ...        0 min,  0.007 sec
     gradient                   ...        0 min,  0.015 sec
 * total energy  :   -58.9640117 Eh     change       -0.3023277E-04 Eh
   gradient norm :     0.0004737 Eh/α   predicted    -0.1027374E-04 ( -66.02%)
   displ. norm   :     0.0893445 α      lambda       -0.1851438E-04
   maximum displ.:     0.0812077 α      in ANC's #1, #2, #3, ...

........................................................................
.............................. CYCLE   53 ..............................
........................................................................

 iter      E             dE          RMSdq      gap      omega  full diag
   1    -59.5648552 -0.595649E+02  0.184E-02    3.25       0.0  T
   2    -59.5648553 -0.994881E-07  0.107E-02    3.25       1.7  T
   3    -59.5648553 -0.374335E-07  0.111E-03    3.25      16.2  T
   4    -59.5648553 -0.854311E-08  0.739E-04    3.25      24.3  T
   5    -59.5648553 -0.205392E-08  0.420E-04    3.25      42.7  T
     SCC iter.                  ...        0 min,  0.007 sec
     gradient                   ...        0 min,  0.067 sec
 * total energy  :   -58.9640393 Eh     change       -0.2750231E-04 Eh
   gradient norm :     0.0004237 Eh/α   predicted    -0.9291195E-05 ( -66.22%)
   displ. norm   :     0.0806606 α      lambda       -0.1739636E-04
   maximum displ.:     0.0748160 α      in ANC's #1, #2, #3, ...

........................................................................
.............................. CYCLE   54 ..............................
........................................................................

 iter      E             dE          RMSdq      gap      omega  full diag
   1    -59.5649349 -0.595649E+02  0.164E-02    3.25       0.0  T
   2    -59.5649350 -0.766646E-07  0.961E-03    3.25       1.9  T
   3    -59.5649350 -0.249774E-07  0.101E-03    3.25      17.7  T
   4    -59.5649350 -0.972344E-08  0.670E-04    3.25      26.8  T
   5    -59.5649350 -0.211373E-08  0.403E-04    3.25      44.6  T
     SCC iter.                  ...        0 min,  0.007 sec
     gradient                   ...        0 min,  0.016 sec
 * total energy  :   -58.9640651 Eh     change       -0.2588608E-04 Eh
   gradient norm :     0.0004107 Eh/α   predicted    -0.8723873E-05 ( -66.30%)
   displ. norm   :     0.0773298 α      lambda       -0.1712899E-04
   maximum displ.:     0.0722889 α      in ANC's #1, #2, #6, ...

........................................................................
.............................. CYCLE   55 ..............................
........................................................................

 iter      E             dE          RMSdq      gap      omega  full diag
   1    -59.5650023 -0.595650E+02  0.157E-02    3.25       0.0  T
   2    -59.5650024 -0.661306E-07  0.916E-03    3.25       2.0  T
   3    -59.5650024 -0.191514E-07  0.101E-03    3.25      17.8  T
   4    -59.5650024 -0.115571E-07  0.639E-04    3.25      28.1  T
   5    -59.5650024 -0.215606E-08  0.367E-04    3.25      48.9  T
     SCC iter.                  ...        0 min,  0.007 sec
     gradient                   ...        0 min,  0.055 sec
 * total energy  :   -58.9640907 Eh     change       -0.2553689E-04 Eh
   gradient norm :     0.0004187 Eh/α   predicted    -0.8587681E-05 ( -66.37%)
   displ. norm   :     0.0785700 α      lambda       -0.1757777E-04
   maximum displ.:     0.0729693 α      in ANC's #1, #2, #3, ...

........................................................................
.............................. CYCLE   56 ..............................
........................................................................

 iter      E             dE          RMSdq      gap      omega  full diag
   1    -59.5650424 -0.595650E+02  0.156E-02    3.25       0.0  T
   2    -59.5650424 -0.643968E-07  0.915E-03    3.25       2.0  T
   3    -59.5650424 -0.110072E-07  0.109E-03    3.25      16.4  T
   4    -59.5650425 -0.186376E-07  0.630E-04    3.25      28.5  T
   5    -59.5650425 -0.211301E-08  0.356E-04    3.25      50.4  T
     SCC iter.                  ...        0 min,  0.007 sec
     gradient                   ...        0 min,  0.016 sec
 * total energy  :   -58.9641169 Eh     change       -0.2620463E-04 Eh
   gradient norm :     0.0004185 Eh/α   predicted    -0.8813601E-05 ( -66.37%)
   displ. norm   :     0.0837874 α      lambda       -0.1866066E-04
   maximum displ.:     0.0766124 α      in ANC's #1, #2, #3, ...

........................................................................
.............................. CYCLE   57 ..............................
........................................................................

 iter      E             dE          RMSdq      gap      omega  full diag
   1    -59.5650726 -0.595651E+02  0.164E-02    3.26       0.0  T
   2    -59.5650727 -0.683906E-07  0.965E-03    3.26       1.9  T
   3    -59.5650727 -0.639189E-08  0.120E-03    3.26      14.9  T
   4    -59.5650727 -0.252282E-07  0.644E-04    3.26      27.9  T
   5    -59.5650727 -0.209870E-08  0.354E-04    3.26      50.7  T
     SCC iter.                  ...        0 min,  0.007 sec
     gradient                   ...        0 min,  0.016 sec
 * total energy  :   -58.9641447 Eh     change       -0.2778279E-04 Eh
   gradient norm :     0.0004135 Eh/α   predicted    -0.9359742E-05 ( -66.31%)
   displ. norm   :     0.0920085 α      lambda       -0.2018692E-04
   maximum displ.:     0.0825802 α      in ANC's #1, #3, #2, ...

........................................................................
.............................. CYCLE   58 ..............................
........................................................................

 iter      E             dE          RMSdq      gap      omega  full diag
   1    -59.5650798 -0.595651E+02  0.179E-02    3.26       0.0  T
   2    -59.5650799 -0.771527E-07  0.105E-02    3.26       1.7  T
   3    -59.5650799 -0.482678E-08  0.132E-03    3.26      13.6  T
   4    -59.5650799 -0.306690E-07  0.678E-04    3.26      26.5  T
   5    -59.5650799 -0.219311E-08  0.362E-04    3.26      49.6  T
     SCC iter.                  ...        0 min,  0.007 sec
     gradient                   ...        0 min,  0.016 sec
 * total energy  :   -58.9641746 Eh     change       -0.2998153E-04 Eh
   gradient norm :     0.0003923 Eh/α   predicted    -0.1013178E-04 ( -66.21%)
   displ. norm   :     0.1018958 α      lambda       -0.2185862E-04
   maximum displ.:     0.0899214 α      in ANC's #1, #3, #2, ...

........................................................................
.............................. CYCLE   59 ..............................
........................................................................

 iter      E             dE          RMSdq      gap      omega  full diag
   1    -59.5650793 -0.595651E+02  0.194E-02    3.26       0.0  T
   2    -59.5650794 -0.901093E-07  0.115E-02    3.26       1.6  T
   3    -59.5650794 -0.246672E-09  0.147E-03    3.26      12.2  T
   4    -59.5650794 -0.405315E-07  0.727E-04    3.26      24.7  T
   5    -59.5650794 -0.261566E-08  0.386E-04    3.26      46.5  T
     SCC iter.                  ...        0 min,  0.008 sec
     gradient                   ...        0 min,  0.066 sec
 * total energy  :   -58.9642070 Eh     change       -0.3236340E-04 Eh
   gradient norm :     0.0003790 Eh/α   predicted    -0.1098010E-04 ( -66.07%)
   displ. norm   :     0.1112409 α      lambda       -0.2323527E-04
   maximum displ.:     0.0970863 α      in ANC's #1, #3, #2, ...

........................................................................
.............................. CYCLE   60 ..............................
........................................................................

 iter      E             dE          RMSdq      gap      omega  full diag
   1    -59.5650568 -0.595651E+02  0.212E-02    3.26       0.0  T
   2    -59.5650569 -0.101822E-06  0.125E-02    3.26       1.4  T
   3    -59.5650569 -0.730895E-08  0.151E-03    3.26      11.9  T
   4    -59.5650569 -0.381965E-07  0.768E-04    3.26      23.4  T
   5    -59.5650569 -0.278119E-08  0.404E-04    3.26      44.4  T
     SCC iter.                  ...        0 min,  0.007 sec
     gradient                   ...        0 min,  0.016 sec
 * total energy  :   -58.9642413 Eh     change       -0.3431467E-04 Eh
   gradient norm :     0.0003715 Eh/α   predicted    -0.1168226E-04 ( -65.96%)
   displ. norm   :     0.1175944 α      lambda       -0.2387454E-04
   maximum displ.:     0.1021263 α      in ANC's #1, #3, #2, ...

........................................................................
[...]
     |                    University of Bonn                     |     
      -----------------------------------------------------------      

   * xtb version 6.7.1 (edcfbbe) compiled by 'conda@3ef47c1a292c' on 2024-11-25

   xtb is free software: you can redistribute it and/or modify it under
   the terms of the GNU Lesser General Public License as published by
   the Free Software Foundation, either version 3 of the License, or
   (at your option) any later version.
   
   xtb is distributed in the hope that it will be useful,
   but WITHOUT ANY WARRANTY; without even the implied warranty of
   MERCHANTABILITY or FITNESS FOR A PARTICULAR PURPOSE.  See the
   GNU Lesser General Public License for more details.
   
   Cite this work as:
   * C. Bannwarth, E. Caldeweyher, S. Ehlert, A. Hansen, P. Pracht,
     J. Seibert, S. Spicher, S. Grimme, WIREs Comput. Mol. Sci., 2020, 11,
     e01493. DOI: 10.1002/wcms.1493
   
   for GFN2-xTB:
   * C. Bannwarth, S. Ehlert and S. Grimme., J. Chem. Theory Comput., 2019,
     15, 1652-1671. DOI: 10.1021/acs.jctc.8b01176
   for GFN1-xTB:
   * S. Grimme, C. Bannwarth, P. Shushkov, J. Chem. Theory Comput., 2017,
     13, 1989-2009. DOI: 10.1021/acs.jctc.7b00118
   for GFN0-xTB:
   * P. Pracht, E. Caldeweyher, S. Ehlert, S. Grimme, ChemRxiv, 2019, preprint.
     DOI: 10.26434/chemrxiv.8326202.v1
   for GFN-FF:
   * S. Spicher and S. Grimme, Angew. Chem. Int. Ed., 2020, 59, 15665-15673.
     DOI: 10.1002/anie.202004239
   
   for ALPB and GBSA implicit solvation:
   * S. Ehlert, M. Stahn, S. Spicher, S. Grimme, J. Chem. Theory Comput.,
     2021, 17, 4250-4261. DOI: 10.1021/acs.jctc.1c00471
   
   for ddCOSMO and CPCM-X implicit solvation:
   * M. Stahn, S. Ehlert, S. Grimme, J. Phys. Chem. A,
     2023, XX, XXXX-XXXX. DOI: 10.1021/acs.jpca.3c04382
   
   for DFT-D4:
   * E. Caldeweyher, C. Bannwarth and S. Grimme, J. Chem. Phys., 2017,
     147, 034112. DOI: 10.1063/1.4993215
   * E. Caldeweyher, S. Ehlert, A. Hansen, H. Neugebauer, S. Spicher,
     C. Bannwarth and S. Grimme, J. Chem. Phys., 2019, 150, 154122.
     DOI: 10.1063/1.5090222
   * E. Caldeweyher, J.-M. Mewes, S. Ehlert and S. Grimme, Phys. Chem. Chem. Phys.
     2020, 22, 8499-8512. DOI: 10.1039/D0CP00502A
   
   for sTDA-xTB:
   * S. Grimme and C. Bannwarth, J. Chem. Phys., 2016, 145, 054103.
     DOI: 10.1063/1.4959605
   
   in the mass-spec context:
   * V. Asgeirsson, C. Bauer and S. Grimme, Chem. Sci., 2017, 8, 4879.
     DOI: 10.1039/c7sc00601b
   * J. Koopman and S. Grimme, ACS Omega 2019, 4, 12, 15120-15133.
     DOI: 10.1021/acsomega.9b02011
   
   for metadynamics refer to:
   * S. Grimme, J. Chem. Theory Comput., 2019, 155, 2847-2862
     DOI: 10.1021/acs.jctc.9b00143
   
   for SPH calculations refer to:
   * S. Spicher and S. Grimme, J. Chem. Theory Comput., 2021, 17, 1701-1714
     DOI: 10.1021/acs.jctc.0c01306
   
   for ONIOM refer to:
   * C. Plett, A. Katbashev, S. Ehlert, S. Grimme, M. Bursch,
     Phys. Chem. Chem. Phys., 2023, 25, 17860-17868. DOI: 10.1039/D3CP02178E
   
   for DIPRO refer to:
   * J. Kohn, N. Gildemeister, S. Grimme, D. Fazzi, A. Hansen,
     J. Chem. Phys., 2023, just accepted.
   
   for PTB refer to:
   * S. Grimme, M. Mueller, A. Hansen, J. Chem. Phys., 2023, 158, 124111.
     DOI: 10.1063/5.0137838
   
   with help from (in alphabetical order)
   P. Atkinson, C. Bannwarth, F. Bohle, G. Brandenburg, E. Caldeweyher
   M. Checinski, S. Dohm, S. Ehlert, S. Ehrlich, I. Gerasimov, C. Hölzer
   A. Katbashev, J. Kohn, J. Koopman, C. Lavigne, S. Lehtola, F. März, M. Müller,
   F. Musil, H. Neugebauer, J. Pisarek, C. Plett, P. Pracht, F. Pultar,
   J. Seibert, P. Shushkov, S. Spicher, M. Stahn, M. Steiner, T. Strunk,
   J. Stückrath, T. Rose, and J. Unsleber
   
 * started run on 2025/05/15 at 16:29:59.392     
   ID    Z sym.   atoms
    1    7 N      1, 3, 6, 9, 11
    2    6 C      2, 4, 7, 8, 10, 12-15, 17
    3   17 Cl     5
    4    8 O      16, 18, 19
    5    1 H      20-31

           -------------------------------------------------
          |                Calculation Setup                |
           -------------------------------------------------

          program call               : xtb /rds/general/user/hgt20/home/callum/QDESCP/Cladribine_rdkit_conf_10/Cladribine_rdkit_conf_10.xyz --acc 1 --gfn 2 --chrg 0 --uhf 2 --etemp 300 --input /rds/general/user/hgt20/home/callum/QDESCP/Cladribine_rdkit_conf_10/Cladribine_rdkit_conf_10_xtb.inp -P 1
          hostname                   : login-c
          coordinate file            : /rds/general/user/hgt20/home/callum/QDESCP/Cladribine_rdkit_conf_10/Cladribine_rdkit_conf_10.xyz
          omp threads                :                     1


           -------------------------------------------------
          |                 G F N 2 - x T B                 |
           -------------------------------------------------

        Reference                      10.1021/acs.jctc.8b01176
      * Hamiltonian:
        H0-scaling (s, p, d)           1.850000    2.230000    2.230000
        zeta-weighting                 0.500000
      * Dispersion:
        s8                             2.700000
        a1                             0.520000
        a2                             5.000000
        s9                             5.000000
      * Repulsion:
        kExp                           1.500000    1.000000
        rExp                           1.000000
      * Coulomb:
        alpha                          2.000000
        third order                    shell-resolved
        anisotropic                    true
        a3                             3.000000
        a5                             4.000000
        cn-shift                       1.200000
        cn-exp                         4.000000
        max-rad                        5.000000


          ...................................................
          :                      SETUP                      :
          :.................................................:
          :  # basis functions                  94          :
          :  # atomic orbitals                  93          :
          :  # shells                           51          :
          :  # electrons                       102          :
          :  max. iterations                   250          :
          :  Hamiltonian                  GFN2-xTB          :
          :  restarted?                      false          :
          :  GBSA solvation                  false          :
          :  PC potential                    false          :
          :  electronic temp.          300.0000000     K    :
          :  accuracy                    1.0000000          :
          :  -> integral cutoff          0.2500000E+02      :
          :  -> integral neglect         0.1000000E-07      :
          :  -> SCF convergence          0.1000000E-05 Eh   :
          :  -> wf. convergence          0.1000000E-03 e    :
          :  Broyden damping             0.4000000          :
          :  net charge                          0          :
          :  unpaired electrons                  2          :
          ...................................................

 iter      E             dE          RMSdq      gap      omega  full diag
   1    -59.1825939 -0.591826E+02  0.451E+00    0.37       0.0  T
   2    -59.3334836 -0.150890E+00  0.300E+00    0.83       1.0  T
   3    -59.3589838 -0.255001E-01  0.210E+00    0.57       1.0  T
   4    -59.2994762  0.595076E-01  0.178E+00    0.74       1.0  T
   5    -59.3839457 -0.844695E-01  0.116E+00    0.34       1.0  T
   6    -59.4312215 -0.472758E-01  0.439E-01    0.39       1.0  T
   7    -59.4350191 -0.379760E-02  0.244E-01    0.38       1.0  T
   8    -59.4364362 -0.141711E-02  0.115E-01    0.39       1.0  T
   9    -59.4366104 -0.174257E-03  0.791E-02    0.39       1.0  T
  10    -59.4366606 -0.501812E-04  0.486E-02    0.38       1.0  T
  11    -59.4367111 -0.504555E-04  0.254E-02    0.38       1.0  T
  12    -59.4367073  0.378255E-05  0.261E-02    0.38       1.0  T
  13    -59.4367112 -0.392785E-05  0.220E-02    0.38       1.0  T
  14    -59.4367218 -0.105685E-04  0.607E-03    0.38       3.0  T
  15    -59.4367226 -0.806834E-06  0.293E-03    0.38       6.1  T
  16    -59.4367226 -0.110504E-08  0.277E-03    0.38       6.5  T
  17    -59.4367228 -0.157782E-06  0.966E-04    0.38      18.6  T
  18    -59.4367228 -0.242468E-08  0.876E-04    0.38      20.5  T

   *** convergence criteria satisfied after 18 iterations ***

         #    Occupation            Energy/Eh            Energy/eV
      -------------------------------------------------------------
         1        2.0000           -1.0594720             -28.8297
       ...           ...                  ...                  ...
        46        2.0000           -0.4289777             -11.6731
        47        2.0000           -0.4270966             -11.6219
        48        2.0000           -0.4199568             -11.4276
        49        2.0000           -0.4158913             -11.3170
        50        1.5632           -0.3974619             -10.8155
        51        1.4368           -0.3969787             -10.8023
        52        0.9994           -0.2595921              -7.0639 (HOMO)
        53        0.0006           -0.2454754              -6.6797 (LUMO)
        54                         -0.2084818              -5.6731
        55                         -0.1407338              -3.8296
        56                         -0.1160101              -3.1568
        57                         -0.0385242              -1.0483
       ...                                ...                  ...
        93                          0.6398875              17.4122
      -------------------------------------------------------------
                  HL-Gap            0.0141167 Eh            0.3841 eV
             Fermi-level           -0.3248770 Eh           -8.8404 eV

 transition dipole moment (au) for excitation:          51          52
     X       Y       Z   
  -0.1316   0.0252   0.0604  total (au/Debye):    0.147   0.374
 dE (eV)             :    3.738
 oscillator strength :  0.27975E-02

 SCC (total)                   0 d,  0 h,  0 min,  0.111 sec
 SCC setup                      ...        0 min,  0.000 sec (  0.277%)
 Dispersion                     ...        0 min,  0.000 sec (  0.260%)
 classical contributions        ...        0 min,  0.000 sec (  0.081%)
 integral evaluation            ...        0 min,  0.006 sec (  5.418%)
 iterations                     ...        0 min,  0.082 sec ( 73.735%)
 molecular gradient             ...        0 min,  0.016 sec ( 14.837%)
 printout                       ...        0 min,  0.006 sec (  5.386%)

         :::::::::::::::::::::::::::::::::::::::::::::::::::::
         ::                     SUMMARY                     ::
         :::::::::::::::::::::::::::::::::::::::::::::::::::::
         :: total energy             -58.835831420435 Eh    ::
         :: gradient norm              0.129560151880 Eh/a0 ::
         :: HOMO-LUMO gap              0.384135697153 eV    ::
         ::.................................................::
         :: SCC energy               -59.436218462326 Eh    ::
         :: -> isotropic ES            0.103147647220 Eh    ::
         :: -> anisotropic ES         -0.001589113689 Eh    ::
         :: -> anisotropic XC          0.010009085143 Eh    ::
         :: -> dispersion             -0.034801447581 Eh    ::
         :: repulsion energy           0.600387041891 Eh    ::
         :: add. restraining           0.000000000000 Eh    ::
         :: total charge               0.000000000000 e     ::
         :::::::::::::::::::::::::::::::::::::::::::::::::::::

           -------------------------------------------------
          |                Property Printout                |
           -------------------------------------------------

    * Orbital Energies and Occupations

         #    Occupation            Energy/Eh            Energy/eV
      -------------------------------------------------------------
         1        2.0000           -1.0594720             -28.8297
       ...           ...                  ...                  ...
        40        2.0000           -0.4625744             -12.5873
        41        2.0000           -0.4586231             -12.4798
        42        2.0000           -0.4462961             -12.1443
        43        2.0000           -0.4435620             -12.0699
        44        2.0000           -0.4409608             -11.9992
        45        2.0000           -0.4348484             -11.8328
        46        2.0000           -0.4289777             -11.6731
        47        2.0000           -0.4270966             -11.6219
        48        2.0000           -0.4199568             -11.4276
        49        2.0000           -0.4158913             -11.3170
        50        1.5632           -0.3974619             -10.8155
        51        1.4368           -0.3969787             -10.8023
        52        0.9994           -0.2595921              -7.0639 (HOMO)
        53        0.0006           -0.2454754              -6.6797 (LUMO)
        54                         -0.2084818              -5.6731
        55                         -0.1407338              -3.8296
        56                         -0.1160101              -3.1568
        57                         -0.0385242              -1.0483
        58                         -0.0317618              -0.8643
        59                         -0.0023981              -0.0653
        60                          0.0103784               0.2824
        61                          0.0137359               0.3738
        62                          0.0138809               0.3777
        63                          0.0146915               0.3998
       ...                                ...                  ...
        93                          0.6398875              17.4122
      -------------------------------------------------------------
                  HL-Gap            0.0141167 Eh            0.3841 eV
             Fermi-level           -0.3248770 Eh           -8.8404 eV

     #   Z          covCN         q      C6AA      α(0)
     1   7 N        2.647    -0.226    25.942     7.565
     2   6 C        2.882     0.121    25.350     8.254
     3   7 N        1.926    -0.255    27.475     7.772
     4   6 C        2.910     0.225    23.273     7.910
     5  17 Cl       1.051    -0.124   103.030    15.529
     6   7 N        1.909    -0.287    28.279     7.884
     7   6 C        3.159     0.142    24.634     8.114
     8   6 C        3.230     0.033    26.473     8.355
     9   7 N        1.881    -0.247    27.301     7.746
    10   6 C        3.192     0.077    25.798     8.283
    11   7 N        2.823    -0.082    22.825     7.096
    12   6 C        3.735     0.179    17.818     6.024
    13   6 C        3.818    -0.094    22.281     6.718
    14   6 C        3.749     0.114    18.776     6.180
    15   6 C        3.783     0.087    19.155     6.234
    16   8 O        1.702    -0.323    19.391     5.945
    17   6 C        3.674     0.073    19.582     6.341
    18   8 O        1.656    -0.428    21.397     6.244
    19   8 O        1.657    -0.434    21.520     6.262
    20   1 H        0.861     0.200     1.107     1.648
    21   1 H        0.860     0.202     1.097     1.640
    22   1 H        0.926     0.051     2.305     2.374
    23   1 H        0.923     0.055     2.254     2.348
    24   1 H        0.924     0.069     2.099     2.266
    25   1 H        0.925     0.082     1.955     2.187
    26   1 H        0.923     0.019     2.755     2.596
    27   1 H        0.924     0.076     2.025     2.225
    28   1 H        0.924     0.062     2.178     2.308
    29   1 H        0.923     0.024     2.670     2.555
    30   1 H        0.805     0.303     0.712     1.326
    31   1 H        0.805     0.305     0.705     1.319

 Mol. C6AA /au·bohr⁶  :      12592.993819
 Mol. C8AA /au·bohr⁸  :     307974.898208
 Mol. α(0) /au        :        169.250101


Wiberg/Mayer (AO) data.
largest (>0.10) Wiberg bond orders for each atom

 ---------------------------------------------------------------------------
     #   Z sym  total        # sym  WBO       # sym  WBO       # sym  WBO
 ---------------------------------------------------------------------------
     1   7 N    3.272 --     2 C    1.224    20 H    0.944    21 H    0.940
     2   6 C    3.868 --     3 N    1.282     1 N    1.224     8 C    1.092
     3   7 N    3.048 --     4 C    1.402     2 C    1.282
     4   6 C    3.842 --     3 N    1.402     6 N    1.199     5 Cl   0.988
     5  17 Cl   1.144 --     4 C    0.988
     6   7 N    2.886 --     7 C    1.286     4 C    1.199
     7   6 C    3.903 --     6 N    1.286     8 C    1.217    11 N    1.189
     8   6 C    3.829 --     9 N    1.307     7 C    1.217     2 C    1.092
     9   7 N    3.018 --    10 C    1.400     8 C    1.307
    10   6 C    3.802 --     9 N    1.400    11 N    1.154    22 H    0.963
    11   7 N    3.570 --     7 C    1.189    10 C    1.154    12 C    0.946
    12   6 C    3.943 --    16 O    0.996    13 C    0.989    23 H    0.948
                            11 N    0.946
    13   6 C    3.983 --    12 C    0.989    14 C    0.979    24 H    0.971
                            25 H    0.957
    14   6 C    3.962 --    19 O    1.006    13 C    0.979    15 C    0.971
                            26 H    0.961
    15   6 C    3.937 --    17 C    0.981    14 C    0.971    27 H    0.957
                            16 O    0.951
    16   8 O    2.087 --    12 C    0.996    15 C    0.951
    17   6 C    3.964 --    18 O    1.014    15 C    0.981    28 H    0.969
                            29 H    0.965
    18   8 O    1.967 --    17 C    1.014    30 H    0.891
    19   8 O    1.968 --    14 C    1.006    31 H    0.891
    20   1 H    0.959 --     1 N    0.944
    21   1 H    0.957 --     1 N    0.940
    22   1 H    0.996 --    10 C    0.963
    23   1 H    0.994 --    12 C    0.948
    24   1 H    0.994 --    13 C    0.971
    25   1 H    0.992 --    13 C    0.957
    26   1 H    1.000 --    14 C    0.961
    27   1 H    0.994 --    15 C    0.957
    28   1 H    0.996 --    17 C    0.969
    29   1 H    0.999 --    17 C    0.965
    30   1 H    0.908 --    18 O    0.891
    31   1 H    0.906 --    19 O    0.891
 ---------------------------------------------------------------------------

Topologies differ in total number of bonds
Writing topology from bond orders to xtbtopo.mol

molecular dipole:
                 x           y           z       tot (Debye)
 q only:        0.423      -0.268       0.502
   full:        0.584      -0.086       0.810       2.548
molecular quadrupole (traceless):
                xx          xy          yy          xz          yz          zz
 q only:        3.593     -20.392      -3.844       0.785      -1.195       0.251
  q+dip:        2.384     -24.511      -6.318      -1.730       0.719       3.934
   full:        0.762     -23.369      -5.956      -0.803       0.628       5.194


           -------------------------------------------------
          | TOTAL ENERGY              -58.835831420435 Eh   |
          | GRADIENT NORM               0.129560151880 Eh/α |
          | HOMO-LUMO GAP               0.384135697153 eV   |
           -------------------------------------------------

------------------------------------------------------------------------
 * finished run on 2025/05/15 at 16:29:59.515     
------------------------------------------------------------------------
 total:
 * wall-time:     0 d,  0 h,  0 min,  0.123 sec
 *  cpu-time:     0 d,  0 h,  0 min,  0.067 sec
 * ratio c/w:     0.545 speedup
 SCF:
 * wall-time:     0 d,  0 h,  0 min,  0.111 sec
 *  cpu-time:     0 d,  0 h,  0 min,  0.057 sec
 * ratio c/w:     0.510 speedup


