66
 energy: -102.674950231099 gnorm: 0.000362477600 xtb: 6.7.1 (edcfbbe)
C           -6.36994605112230       -0.68171774272902       -1.01941662792536
C           -5.59915813969559       -1.33394148072219        0.12049207953970
C           -5.63981817645616       -0.46930222387946        1.39024121752121
C           -4.92586621514898        0.82017151795266        1.20232217812036
N           -5.47259132294207        1.99916719875450        0.99583964441212
C           -4.47271715922148        2.89829681741514        0.84416199875215
C           -4.71648652511798        4.33952447484619        0.59649227510042
C           -3.25367944930464        2.25177331494010        0.95805263150647
N           -3.57993985811492        0.92439790005311        1.18460126823784
N           -2.60640471495390       -0.01666205931664        1.36063827903628
C           -1.31082158646014        0.37509200445922        1.23329277333194
C           -0.26612066414624       -0.65327118345011        1.37465813359714
C           -0.45646928224732       -2.01960394211003        1.08190472264380
C            0.62325735367645       -2.89412073696271        1.19563651464313
C            1.86500547422766       -2.43527045304343        1.59475819201308
C            2.04170662349170       -1.09829135013137        1.89173112110371
S            3.67322382696796       -0.50369640464923        2.35790849055204
O            4.48791663993396       -1.64809895248747        2.64597825752451
N            4.28151816939165        0.20321916081105        0.98967761933309
C            3.66846526506878        1.43641740789073        0.55704475817698
C            4.60825253597090        2.13243821716594       -0.42381023751682
N            4.87118808817824        1.25724560456138       -1.55430349444553
C            5.50138512102537        0.03548832830191       -1.08609239476815
C            4.57064570782944       -0.68092674742810       -0.11119554695369
C            5.64477256946041        1.92405484600730       -2.59002655183580
C            5.57320920425401        1.18477368839611       -3.92167625091562
O            3.52808933862487        0.51465669805872        3.35077637470131
C            0.99149137730372       -0.21479397180451        1.78242984851401
O           -1.70910163317200       -2.41312013994437        0.71256435433950
C           -1.92582714154784       -3.69833787620459        0.14318558434904
C           -1.36465414345409       -3.81563372303825       -1.26779145621386
N           -0.94052877751832        1.58584390180595        1.02157195585456
C           -1.85091769128115        2.63401851906495        0.86913200616967
O           -1.46685781423480        3.76441262354189        0.66581938752582
H           -5.97350533940182        0.30872738344772       -1.22801733582922
H           -6.30154068645118       -1.28336951848209       -1.92277290460184
H           -7.41819045718052       -0.57433217957217       -0.75310181466636
H           -6.03410180476001       -2.31020933065028        0.34634233847152
H           -4.56184610197961       -1.49394304759683       -0.18772093897696
H           -6.67605732212880       -0.24110339615683        1.63817985392971
H           -5.19579299337621       -1.01645863679470        2.22792864815298
H           -5.33145736453433        4.46713011000932       -0.29249593905590
H           -5.25193482757235        4.77672677350671        1.43753573017489
H           -3.76585168851400        4.84801305360265        0.46506164609985
H           -2.87828406681003       -0.98729714166225        1.43209815862342
H            0.50244547199542       -3.94369340265293        0.98236493951324
H            2.70305449930119       -3.10619656496134        1.69613153852049
H            3.50619060202139        2.05027522432784        1.44231145657823
H            2.70736120519550        1.24449777099558        0.05791046857758
H            5.53959244326509        2.40472072488557        0.10233754030790
H            4.12952566410043        3.04342576488646       -0.78821072638878
H            6.45847345485033        0.24601750047766       -0.57675348642384
H            5.69224062170722       -0.61708811095542       -1.93849128101260
H            5.04695210718509       -1.57036128035224        0.30149564119867
H            3.64607025091492       -0.96599793539035       -0.63760861774916
H            5.21200383106117        2.91837661658453       -2.72379627934993
H            6.69932190622152        2.05314981337891       -2.28913838767038
H            4.53696741967952        0.96274760293723       -4.16037282533632
H            6.13376190921019        0.25428209933866       -3.89666095717463
H            5.98949168435183        1.80891227049655       -4.70819765158167
H            1.12100157926543        0.82766607960455        2.02186425548873
H           -1.52868009969092       -4.48155566532133        0.79763795379673
H           -3.01526606970784       -3.79278122592804        0.12051949038981
H           -1.62215951705045       -4.78686013476077       -1.68022378635058
H           -0.28301294615880       -3.70695091166751       -1.26963839850592
H           -1.78879431434273       -3.04077354160263       -1.90181743515210
