62
 energy: -94.881510499420 gnorm: 0.000524267993 xtb: 6.7.1 (edcfbbe)
C           -7.12484405976340       -0.39952037389842        0.60126825247279
C           -6.56073540254916        0.91078229381566        0.13330543127268
C           -5.08461723776102        1.07454415792817        0.32277799335390
C           -4.56203376749633        2.19196247541087        0.90571120572158
C           -5.40101178100692        3.30892796117416        1.43856309741402
C           -3.14284725047071        2.28667277159276        1.04184797149690
C           -2.46046561466961        3.36861717554753        1.61961336650740
N           -1.15821646012733        3.43247628956515        1.71100085935205
C           -0.45597432197166        2.39776509571037        1.20658225203687
N            0.88021528905980        2.54475525754337        1.31879026374913
C            1.93458375281540        1.73248266342148        0.93283459793379
N            3.11446308234554        2.15310880656454        1.37561707183986
C            4.19802409484697        1.46264156230181        1.08463311793465
C            4.19722188480105        0.28529306479044        0.32453597423884
C            2.94495218730470       -0.12752143539233       -0.15758712620139
C            1.80957656898444        0.59276536403785        0.13889354006791
N            5.34919848335541       -0.40123038030065       -0.01158812339400
C            6.64751784308509        0.18182136185111        0.25429879767608
C            7.67097468852827       -0.40747452399191       -0.73132318603026
N            7.72847802887651       -1.85466178646702       -0.69932680146433
C            6.40552942449072       -2.40514243306174       -0.91950779771125
C            5.37616867143945       -1.84972722495901        0.07261245142414
N           -0.98480842893730        1.31530841994348        0.64973183016103
C           -2.31320514785346        1.24231755519441        0.56824117090313
N           -2.86466158064440        0.12956972504865        0.01294165706539
C           -1.97809847557486       -0.94531018107129       -0.43099790833992
C           -1.93259772235421       -1.08748895516559       -1.96116939199305
C           -1.66882224509250       -2.57352408030703       -2.17906956024164
C           -2.54871957718387       -3.22447584718213       -1.11593905274203
C           -2.34811245408340       -2.34020943159622        0.11730470694302
C           -4.23850734524255       -0.00533547544420       -0.18176397593753
O           -4.67384189107781       -0.98554522610025       -0.76027984279921
O           -7.24544426475960        1.78312508812198       -0.34836112165193
H           -8.21052256928887       -0.36811726162881        0.57005388331306
H           -6.77839289120768       -0.62331756002020        1.60812673550815
H           -6.75784611751430       -1.18190765747882       -0.06112466580776
H           -6.45731058340243        3.12082925474501        1.28336580232900
H           -5.21354640911219        3.44304310930745        2.50358601014248
H           -5.14413258561842        4.23606285675433        0.92843942631525
H           -2.99533039574908        4.21699395921377        2.02328208074110
H            1.16834363925000        3.37994764314021        1.81466543732166
H            5.10868878587162        1.87333776952210        1.49690876365969
H            2.86430467256091       -1.00127911401171       -0.78666910346651
H            0.84658475246171        0.30328449901517       -0.24032464949933
H            6.97397256949892       -0.01789416696580        1.28967034927350
H            6.59710838318413        1.26005788666096        0.10201869167570
H            7.39112333574716       -0.11555942854628       -1.74763517303082
H            8.66357373782520       -0.00842064215685       -0.51410472744413
H            8.07885826505559       -2.16263164036082        0.20481733651377
H            6.45511582267693       -3.49278324410413       -0.83778129903151
H            6.10547617780348       -2.14191009249005       -1.93772979666663
H            5.66037943411835       -2.15942779296987        1.09462726226854
H            4.39036349691820       -2.25823895777420       -0.14097423739388
H           -0.99591380204880       -0.66211229509087       -0.05374160287857
H           -1.17439169336279       -0.44347988032802       -2.40582142908204
H           -2.90378566095596       -0.82801113801275       -2.38055193425070
H           -1.92095750577653       -2.89537806670966       -3.18787495547882
H           -0.61718109348371       -2.80168294736609       -1.99247811526436
H           -3.59005661182848       -3.17232679450552       -1.43022678743967
H           -2.28609794031217       -4.26401635354864       -0.92578410159034
H           -1.52648296987077       -2.71534757993948        0.72931159171822
H           -3.24138321475776       -2.30768409899383        0.73675748648170
