----- Optimization -----
      -----------------------------------------------------------      
     |                   =====================                   |     
     |                           x T B                           |     
     |                   =====================                   |     
     |                         S. Grimme                         |     
     |          Mulliken Center for Theoretical Chemistry        |     
     |                    University of Bonn                     |     
      -----------------------------------------------------------      

   * xtb version 6.7.1 (edcfbbe) compiled by 'conda@3ef47c1a292c' on 2024-11-25

   xtb is free software: you can redistribute it and/or modify it under
   the terms of the GNU Lesser General Public License as published by
   the Free Software Foundation, either version 3 of the License, or
   (at your option) any later version.
   
   xtb is distributed in the hope that it will be useful,
   but WITHOUT ANY WARRANTY; without even the implied warranty of
   MERCHANTABILITY or FITNESS FOR A PARTICULAR PURPOSE.  See the
   GNU Lesser General Public License for more details.
   
   Cite this work as:
   * C. Bannwarth, E. Caldeweyher, S. Ehlert, A. Hansen, P. Pracht,
     J. Seibert, S. Spicher, S. Grimme, WIREs Comput. Mol. Sci., 2020, 11,
     e01493. DOI: 10.1002/wcms.1493
   
   for GFN2-xTB:
   * C. Bannwarth, S. Ehlert and S. Grimme., J. Chem. Theory Comput., 2019,
     15, 1652-1671. DOI: 10.1021/acs.jctc.8b01176
   for GFN1-xTB:
   * S. Grimme, C. Bannwarth, P. Shushkov, J. Chem. Theory Comput., 2017,
     13, 1989-2009. DOI: 10.1021/acs.jctc.7b00118
   for GFN0-xTB:
   * P. Pracht, E. Caldeweyher, S. Ehlert, S. Grimme, ChemRxiv, 2019, preprint.
     DOI: 10.26434/chemrxiv.8326202.v1
   for GFN-FF:
   * S. Spicher and S. Grimme, Angew. Chem. Int. Ed., 2020, 59, 15665-15673.
     DOI: 10.1002/anie.202004239
   
   for ALPB and GBSA implicit solvation:
   * S. Ehlert, M. Stahn, S. Spicher, S. Grimme, J. Chem. Theory Comput.,
     2021, 17, 4250-4261. DOI: 10.1021/acs.jctc.1c00471
   
   for ddCOSMO and CPCM-X implicit solvation:
   * M. Stahn, S. Ehlert, S. Grimme, J. Phys. Chem. A,
     2023, XX, XXXX-XXXX. DOI: 10.1021/acs.jpca.3c04382
   
   for DFT-D4:
   * E. Caldeweyher, C. Bannwarth and S. Grimme, J. Chem. Phys., 2017,
     147, 034112. DOI: 10.1063/1.4993215
   * E. Caldeweyher, S. Ehlert, A. Hansen, H. Neugebauer, S. Spicher,
     C. Bannwarth and S. Grimme, J. Chem. Phys., 2019, 150, 154122.
     DOI: 10.1063/1.5090222
   * E. Caldeweyher, J.-M. Mewes, S. Ehlert and S. Grimme, Phys. Chem. Chem. Phys.
     2020, 22, 8499-8512. DOI: 10.1039/D0CP00502A
   
   for sTDA-xTB:
   * S. Grimme and C. Bannwarth, J. Chem. Phys., 2016, 145, 054103.
     DOI: 10.1063/1.4959605
   
   in the mass-spec context:
   * V. Asgeirsson, C. Bauer and S. Grimme, Chem. Sci., 2017, 8, 4879.
     DOI: 10.1039/c7sc00601b
   * J. Koopman and S. Grimme, ACS Omega 2019, 4, 12, 15120-15133.
     DOI: 10.1021/acsomega.9b02011
   
   for metadynamics refer to:
   * S. Grimme, J. Chem. Theory Comput., 2019, 155, 2847-2862
     DOI: 10.1021/acs.jctc.9b00143
   
   for SPH calculations refer to:
   * S. Spicher and S. Grimme, J. Chem. Theory Comput., 2021, 17, 1701-1714
     DOI: 10.1021/acs.jctc.0c01306
   
   for ONIOM refer to:
   * C. Plett, A. Katbashev, S. Ehlert, S. Grimme, M. Bursch,
     Phys. Chem. Chem. Phys., 2023, 25, 17860-17868. DOI: 10.1039/D3CP02178E
   
   for DIPRO refer to:
   * J. Kohn, N. Gildemeister, S. Grimme, D. Fazzi, A. Hansen,
     J. Chem. Phys., 2023, just accepted.
   
   for PTB refer to:
   * S. Grimme, M. Mueller, A. Hansen, J. Chem. Phys., 2023, 158, 124111.
     DOI: 10.1063/5.0137838
   
   with help from (in alphabetical order)
   P. Atkinson, C. Bannwarth, F. Bohle, G. Brandenburg, E. Caldeweyher
   M. Checinski, S. Dohm, S. Ehlert, S. Ehrlich, I. Gerasimov, C. Hölzer
   A. Katbashev, J. Kohn, J. Koopman, C. Lavigne, S. Lehtola, F. März, M. Müller,
   F. Musil, H. Neugebauer, J. Pisarek, C. Plett, P. Pracht, F. Pultar,
   J. Seibert, P. Shushkov, S. Spicher, M. Stahn, M. Steiner, T. Strunk,
   J. Stückrath, T. Rose, and J. Unsleber
   
 * started run on 2025/05/15 at 16:04:42.820     
   ID    Z sym.   atoms
    1    6 C      1-7, 9, 11, 13-16, 18, 19, 21, 22, 24, 26-31
    2    7 N      8, 10, 12, 17, 20, 23, 25
    3    8 O      32, 33
    4    1 H      34-62

           -------------------------------------------------
          |                Calculation Setup                |
           -------------------------------------------------

          program call               : xtb /rds/general/user/hgt20/home/callum/QDESCP/Palbociclib_rdkit_conf_5/Palbociclib_rdkit_conf_5.xyz --opt normal --acc 1 --gfn 2 --chrg 0 --uhf 0 -P 1
          hostname                   : login-c
          coordinate file            : /rds/general/user/hgt20/home/callum/QDESCP/Palbociclib_rdkit_conf_5/Palbociclib_rdkit_conf_5.xyz
          omp threads                :                     1


           -------------------------------------------------
          |                 G F N 2 - x T B                 |
           -------------------------------------------------

        Reference                      10.1021/acs.jctc.8b01176
      * Hamiltonian:
        H0-scaling (s, p, d)           1.850000    2.230000    2.230000
        zeta-weighting                 0.500000
      * Dispersion:
        s8                             2.700000
        a1                             0.520000
        a2                             5.000000
        s9                             5.000000
      * Repulsion:
        kExp                           1.500000    1.000000
        rExp                           1.000000
      * Coulomb:
        alpha                          2.000000
        third order                    shell-resolved
        anisotropic                    true
        a3                             3.000000
        a5                             4.000000
        cn-shift                       1.200000
        cn-exp                         4.000000
        max-rad                        5.000000


          ...................................................
          :                      SETUP                      :
          :.................................................:
          :  # basis functions                 161          :
          :  # atomic orbitals                 161          :
          :  # shells                           95          :
          :  # electrons                       172          :
          :  max. iterations                   250          :
          :  Hamiltonian                  GFN2-xTB          :
          :  restarted?                      false          :
          :  GBSA solvation                  false          :
          :  PC potential                    false          :
          :  electronic temp.          300.0000000     K    :
          :  accuracy                    1.0000000          :
          :  -> integral cutoff          0.2500000E+02      :
          :  -> integral neglect         0.1000000E-07      :
          :  -> SCF convergence          0.1000000E-05 Eh   :
          :  -> wf. convergence          0.1000000E-03 e    :
          :  Broyden damping             0.4000000          :
          :  net charge                          0          :
          :  unpaired electrons                  0          :
          ...................................................

 iter      E             dE          RMSdq      gap      omega  full diag
   1    -95.9220911 -0.959221E+02  0.381E+00    1.83       0.0  T
   2    -96.0713423 -0.149251E+00  0.224E+00    1.95       1.0  T
   3    -96.0796083 -0.826609E-02  0.121E+00    1.84       1.0  T
   4    -96.0878290 -0.822063E-02  0.337E-01    1.63       1.0  T
   5    -96.0926766 -0.484760E-02  0.137E-01    1.72       1.0  T
   6    -96.0934560 -0.779445E-03  0.538E-02    1.71       1.0  T
   7    -96.0935283 -0.722989E-04  0.209E-02    1.71       1.0  T
   8    -96.0935318 -0.347443E-05  0.884E-03    1.72       1.4  T
   9    -96.0935330 -0.114925E-05  0.358E-03    1.72       3.6  T
  10    -96.0935333 -0.328206E-06  0.142E-03    1.72       8.9  T
  11    -96.0935333 -0.584427E-07  0.642E-04    1.72      19.8  T
  12    -96.0935333 -0.547581E-08  0.262E-04    1.72      48.4  T

   *** convergence criteria satisfied after 12 iterations ***

         #    Occupation            Energy/Eh            Energy/eV
      -------------------------------------------------------------
         1        2.0000           -0.7021822             -19.1074
       ...           ...                  ...                  ...
        80        2.0000           -0.4034254             -10.9778
        81        2.0000           -0.3972800             -10.8105
        82        2.0000           -0.3908046             -10.6343
        83        2.0000           -0.3808024             -10.3622
        84        2.0000           -0.3779964             -10.2858
        85        2.0000           -0.3758932             -10.2286
        86        2.0000           -0.3572045              -9.7200 (HOMO)
        87                         -0.2941269              -8.0036 (LUMO)
        88                         -0.2725402              -7.4162
        89                         -0.2551452              -6.9429
        90                         -0.2456881              -6.6855
        91                         -0.2365491              -6.4368
       ...                                ...                  ...
       161                          0.6832840              18.5931
      -------------------------------------------------------------
                  HL-Gap            0.0630777 Eh            1.7164 eV
             Fermi-level           -0.3256657 Eh           -8.8618 eV

 SCC (total)                   0 d,  0 h,  0 min,  0.254 sec
 SCC setup                      ...        0 min,  0.001 sec (  0.264%)
 Dispersion                     ...        0 min,  0.001 sec (  0.375%)
 classical contributions        ...        0 min,  0.000 sec (  0.125%)
 integral evaluation            ...        0 min,  0.013 sec (  5.279%)
 iterations                     ...        0 min,  0.087 sec ( 34.307%)
 molecular gradient             ...        0 min,  0.100 sec ( 39.413%)
 printout                       ...        0 min,  0.051 sec ( 20.234%)

         :::::::::::::::::::::::::::::::::::::::::::::::::::::
         ::                     SUMMARY                     ::
         :::::::::::::::::::::::::::::::::::::::::::::::::::::
         :: total energy             -94.855224080157 Eh    ::
         :: gradient norm              0.127395922554 Eh/a0 ::
         :: HOMO-LUMO gap              1.716430577526 eV    ::
         ::.................................................::
         :: SCC energy               -96.093508838917 Eh    ::
         :: -> isotropic ES            0.110751702703 Eh    ::
         :: -> anisotropic ES          0.010893688211 Eh    ::
         :: -> anisotropic XC          0.055923683123 Eh    ::
         :: -> dispersion             -0.069928622781 Eh    ::
         :: repulsion energy           1.238284758760 Eh    ::
         :: add. restraining           0.000000000000 Eh    ::
         :: total charge               0.000000000000 e     ::
         :::::::::::::::::::::::::::::::::::::::::::::::::::::

      ----------------------------------------------------------- 
     |                   =====================                   |
     |                        A N C O P T                        |
     |                   =====================                   |
     |               Approximate Normal Coordinate               |
     |                Rational Function Optimizer                |
      ----------------------------------------------------------- 
      ----------------------------------------------------------- 
     |                   =====================                   |
     |                        A N C O P T                        |
     |                   =====================                   |
     |               Approximate Normal Coordinate               |
     |                Rational Function Optimizer                |
      ----------------------------------------------------------- 

          ...................................................
          :                      SETUP                      :
          :.................................................:
          :   optimization level            normal          :
          :   max. optcycles                   200          :
          :   ANC micro-cycles                  20          :
          :   degrees of freedom               180          :
          :.................................................:
          :   RF solver                   davidson          :
          :   write xtbopt.log                true          :
          :   linear?                        false          :
          :   energy convergence         0.5000000E-05 Eh   :
          :   grad. convergence          0.1000000E-02 Eh/α :
          :   maxmium RF displ.          1.0000000          :
          :   Hlow (freq-cutoff)         0.1000000E-01      :
          :   Hmax (freq-cutoff)         5.0000000          :
          :   S6 in model hess.         20.0000000          :
          ...................................................

generating ANC from exact Hessian ...
Using Lindh-Hessian (1995)
 Shifting diagonal of input Hessian by    9.8847551281976160E-003
 Lowest  eigenvalues of input Hessian
    0.000000    0.000000    0.000000    0.000000    0.000000    0.000000
    0.010000    0.010119    0.010324    0.010445    0.010910    0.011089
    0.011261    0.011631    0.011942    0.012338    0.012968    0.014274
 Highest eigenvalues
    2.051871    2.062206    2.117054    2.217874    2.268922    2.295439


........................................................................
.............................. CYCLE    1 ..............................
........................................................................

 iter      E             dE          RMSdq      gap      omega  full diag
   1    -96.0935333 -0.960935E+02  0.831E-05    1.72       0.0  T
   2    -96.0935333 -0.122313E-09  0.529E-05    1.72     239.9  T
   3    -96.0935333 -0.740386E-10  0.321E-05    1.72     396.0  T
     SCC iter.                  ...        0 min,  0.061 sec
     gradient                   ...        0 min,  0.103 sec
 * total energy  :   -94.8552241 Eh     change       -0.9345058E-09 Eh
   gradient norm :     0.1273971 Eh/α   predicted     0.0000000E+00 (-100.00%)
   displ. norm   :     0.3914927 α      lambda       -0.2135691E-01
   maximum displ.:     0.1052139 α      in ANC's #22, #36, #20, ...

........................................................................
.............................. CYCLE    2 ..............................
........................................................................

 iter      E             dE          RMSdq      gap      omega  full diag
   1    -96.1400842 -0.961401E+02  0.182E-01    1.71       0.0  T
   2    -96.1403432 -0.259065E-03  0.111E-01    1.78       1.0  T
   3    -96.1403483 -0.506445E-05  0.605E-02    1.77       1.0  T
   4    -96.1404104 -0.620981E-04  0.161E-02    1.77       1.0  T
   5    -96.1404243 -0.138975E-04  0.528E-03    1.78       2.4  T
   6    -96.1404253 -0.101958E-05  0.248E-03    1.78       5.1  T
   7    -96.1404254 -0.704647E-07  0.978E-04    1.78      13.0  T
   8    -96.1404254 -0.246194E-07  0.304E-04    1.78      41.8  T
     SCC iter.                  ...        0 min,  0.081 sec
     gradient                   ...        0 min,  0.100 sec
 * total energy  :   -94.8705899 Eh     change       -0.1536585E-01 Eh
   gradient norm :     0.0578202 Eh/α   predicted    -0.1234342E-01 ( -19.67%)
   displ. norm   :     0.4313505 α      lambda       -0.9021625E-02
   maximum displ.:     0.1443187 α      in ANC's #22, #13, #16, ...

........................................................................
.............................. CYCLE    3 ..............................
........................................................................

 iter      E             dE          RMSdq      gap      omega  full diag
   1    -96.1723560 -0.961724E+02  0.136E-01    1.73       0.0  T
   2    -96.1725436 -0.187601E-03  0.834E-02    1.80       1.0  T
   3    -96.1725787 -0.350616E-04  0.489E-02    1.79       1.0  T
   4    -96.1726057 -0.269790E-04  0.145E-02    1.80       1.0  T
   5    -96.1726172 -0.115499E-04  0.419E-03    1.80       3.0  T
   6    -96.1726180 -0.795833E-06  0.175E-03    1.80       7.3  T
   7    -96.1726181 -0.301858E-07  0.678E-04    1.80      18.7  T
   8    -96.1726181 -0.956815E-08  0.206E-04    1.80      61.6  T
     SCC iter.                  ...        0 min,  0.085 sec
     gradient                   ...        0 min,  0.102 sec
 * total energy  :   -94.8761850 Eh     change       -0.5595031E-02 Eh
   gradient norm :     0.0192012 Eh/α   predicted    -0.5354004E-02 (  -4.31%)
   displ. norm   :     0.3365508 α      lambda       -0.2086958E-02
   maximum displ.:     0.1689280 α      in ANC's #13, #16, #14, ...

........................................................................
.............................. CYCLE    4 ..............................
........................................................................

 iter      E             dE          RMSdq      gap      omega  full diag
   1    -96.1816474 -0.961816E+02  0.653E-02    1.76       0.0  T
   2    -96.1816741 -0.267014E-04  0.395E-02    1.78       1.0  T
   3    -96.1816703  0.379915E-05  0.239E-02    1.78       1.0  T
   4    -96.1816833 -0.129945E-04  0.604E-03    1.79       2.1  T
   5    -96.1816854 -0.212030E-05  0.173E-03    1.79       7.3  T
   6    -96.1816855 -0.118283E-06  0.757E-04    1.79      16.8  T
   7    -96.1816855 -0.591510E-08  0.243E-04    1.79      52.2  T
     SCC iter.                  ...        0 min,  0.081 sec
     gradient                   ...        0 min,  0.101 sec
 * total energy  :   -94.8777059 Eh     change       -0.1520918E-02 Eh
   gradient norm :     0.0135878 Eh/α   predicted    -0.1161722E-02 ( -23.62%)
   displ. norm   :     0.3823930 α      lambda       -0.1328761E-02
   maximum displ.:     0.2165611 α      in ANC's #13, #14, #16, ...

........................................................................
.............................. CYCLE    5 ..............................
........................................................................

 iter      E             dE          RMSdq      gap      omega  full diag
   1    -96.1859021 -0.961859E+02  0.651E-02    1.76       0.0  T
   2    -96.1859166 -0.144684E-04  0.389E-02    1.77       1.0  T
   3    -96.1859072  0.934700E-05  0.180E-02    1.77       1.0  T
   4    -96.1859198 -0.125621E-04  0.434E-03    1.77       2.9  T
   5    -96.1859208 -0.995567E-06  0.160E-03    1.78       7.9  T
   6    -96.1859208 -0.673537E-07  0.747E-04    1.78      17.0  T
   7    -96.1859208 -0.626032E-08  0.215E-04    1.78      59.0  T
     SCC iter.                  ...        0 min,  0.030 sec
     gradient                   ...        0 min,  0.153 sec
 * total energy  :   -94.8786049 Eh     change       -0.8990353E-03 Eh
   gradient norm :     0.0085154 Eh/α   predicted    -0.7615343E-03 ( -15.29%)
   displ. norm   :     0.2932098 α      lambda       -0.5431124E-03
   maximum displ.:     0.1691739 α      in ANC's #13, #5, #14, ...

........................................................................
.............................. CYCLE    6 ..............................
........................................................................

 iter      E             dE          RMSdq      gap      omega  full diag
   1    -96.1869186 -0.961869E+02  0.504E-02    1.76       0.0  T
   2    -96.1869219 -0.338532E-05  0.295E-02    1.77       1.0  T
   3    -96.1869189  0.299944E-05  0.877E-03    1.77       1.4  T
   4    -96.1869227 -0.379736E-05  0.202E-03    1.77       6.3  T
   5    -96.1869229 -0.138421E-06  0.971E-04    1.77      13.1  T
   6    -96.1869229 -0.151744E-07  0.462E-04    1.77      27.5  T
     SCC iter.                  ...        0 min,  0.026 sec
     gradient                   ...        0 min,  0.103 sec
 * total energy  :   -94.8790024 Eh     change       -0.3975069E-03 Eh
   gradient norm :     0.0073419 Eh/α   predicted    -0.2949029E-03 ( -25.81%)
   displ. norm   :     0.3253906 α      lambda       -0.4583351E-03
   maximum displ.:     0.1613612 α      in ANC's #13, #5, #14, ...

........................................................................
.............................. CYCLE    7 ..............................
........................................................................

 iter      E             dE          RMSdq      gap      omega  full diag
   1    -96.1867410 -0.961867E+02  0.588E-02    1.76       0.0  T
   2    -96.1867433 -0.231451E-05  0.344E-02    1.76       1.0  T
   3    -96.1867411  0.222475E-05  0.734E-03    1.76       1.7  T
   4    -96.1867440 -0.297205E-05  0.166E-03    1.76       7.6  T
   5    -96.1867441 -0.453103E-07  0.853E-04    1.76      14.9  T
   6    -96.1867441 -0.565701E-08  0.393E-04    1.76      32.3  T
     SCC iter.                  ...        0 min,  0.025 sec
     gradient                   ...        0 min,  0.099 sec
 * total energy  :   -94.8793490 Eh     change       -0.3465392E-03 Eh
   gradient norm :     0.0077436 Eh/α   predicted    -0.2534345E-03 ( -26.87%)
   displ. norm   :     0.3520622 α      lambda       -0.4439597E-03
   maximum displ.:     0.1777983 α      in ANC's #5, #13, #2, ...

........................................................................
.............................. CYCLE    8 ..............................
........................................................................

 iter      E             dE          RMSdq      gap      omega  full diag
   1    -96.1860138 -0.961860E+02  0.683E-02    1.75       0.0  T
   2    -96.1860165 -0.271799E-05  0.401E-02    1.76       1.0  T
   3    -96.1860117  0.481867E-05  0.966E-03    1.76       1.3  T
   4    -96.1860176 -0.597736E-05  0.184E-03    1.76       6.9  T
   5    -96.1860177 -0.524837E-07  0.105E-03    1.76      12.1  T
   6    -96.1860177 -0.172048E-07  0.477E-04    1.76      26.6  T
   7    -96.1860177 -0.681717E-08  0.177E-04    1.76      71.8  T
     SCC iter.                  ...        0 min,  0.081 sec
     gradient                   ...        0 min,  0.102 sec
 * total energy  :   -94.8796921 Eh     change       -0.3431662E-03 Eh
   gradient norm :     0.0082775 Eh/α   predicted    -0.2494944E-03 ( -27.30%)
   displ. norm   :     0.3873367 α      lambda       -0.4552301E-03
   maximum displ.:     0.2053271 α      in ANC's #5, #2, #4, ...

........................................................................
.............................. CYCLE    9 ..............................
........................................................................

 iter      E             dE          RMSdq      gap      omega  full diag
   1    -96.1855624 -0.961856E+02  0.746E-02    1.75       0.0  T
   2    -96.1855662 -0.380226E-05  0.438E-02    1.75       1.0  T
   3    -96.1855577  0.847358E-05  0.129E-02    1.75       1.0  T
   4    -96.1855680 -0.103008E-04  0.220E-03    1.75       5.8  T
   5    -96.1855681 -0.102633E-06  0.127E-03    1.75      10.0  T
   6    -96.1855681 -0.288994E-07  0.577E-04    1.75      22.0  T
   7    -96.1855681 -0.872541E-08  0.202E-04    1.75      62.9  T
     SCC iter.                  ...        0 min,  0.075 sec
     gradient                   ...        0 min,  0.102 sec
 * total energy  :   -94.8800437 Eh     change       -0.3516098E-03 Eh
   gradient norm :     0.0079019 Eh/α   predicted    -0.2617667E-03 ( -25.55%)
   displ. norm   :     0.3946675 α      lambda       -0.4295947E-03
   maximum displ.:     0.2146815 α      in ANC's #5, #2, #4, ...

........................................................................
.............................. CYCLE   10 ..............................
........................................................................

 iter      E             dE          RMSdq      gap      omega  full diag
   1    -96.1860565 -0.961861E+02  0.727E-02    1.74       0.0  T
   2    -96.1860613 -0.474391E-05  0.424E-02    1.74       1.0  T
   3    -96.1860505  0.107960E-04  0.154E-02    1.75       1.0  T
   4    -96.1860635 -0.130272E-04  0.255E-03    1.75       5.0  T
   5    -96.1860637 -0.207076E-06  0.135E-03    1.75       9.4  T
   6    -96.1860638 -0.363512E-07  0.618E-04    1.75      20.5  T
   7    -96.1860638 -0.802008E-08  0.205E-04    1.75      61.9  T
     SCC iter.                  ...        0 min,  0.081 sec
     gradient                   ...        0 min,  0.097 sec
 * total energy  :   -94.8803670 Eh     change       -0.3232742E-03 Eh
   gradient norm :     0.0066709 Eh/α   predicted    -0.2482555E-03 ( -23.21%)
   displ. norm   :     0.3856183 α      lambda       -0.3237794E-03
   maximum displ.:     0.2099218 α      in ANC's #5, #2, #4, ...

........................................................................
.............................. CYCLE   11 ..............................
........................................................................

 iter      E             dE          RMSdq      gap      omega  full diag
   1    -96.1861879 -0.961862E+02  0.627E-02    1.72       0.0  T
   2    -96.1861920 -0.407736E-05  0.366E-02    1.73       1.0  T
   3    -96.1861832  0.882591E-05  0.147E-02    1.74       1.0  T
   4    -96.1861939 -0.107501E-04  0.244E-03    1.74       5.2  T
   5    -96.1861942 -0.212727E-06  0.122E-03    1.74      10.4  T
   6    -96.1861942 -0.247078E-07  0.582E-04    1.74      21.8  T
   7    -96.1861942 -0.635823E-08  0.164E-04    1.74      77.4  T
     SCC iter.                  ...        0 min,  0.081 sec
     gradient                   ...        0 min,  0.102 sec
 * total energy  :   -94.8805951 Eh     change       -0.2281049E-03 Eh
   gradient norm :     0.0068289 Eh/α   predicted    -0.1859678E-03 ( -18.47%)
   displ. norm   :     0.2928067 α      lambda       -0.2604480E-03
   maximum displ.:     0.1622967 α      in ANC's #5, #2, #4, ...

........................................................................
.............................. CYCLE   12 ..............................
........................................................................

 iter      E             dE          RMSdq      gap      omega  full diag
   1    -96.1897705 -0.961898E+02  0.477E-02    1.71       0.0  T
   2    -96.1897745 -0.397695E-05  0.273E-02    1.72       1.0  T
   3    -96.1897693  0.518938E-05  0.121E-02    1.72       1.0  T
   4    -96.1897758 -0.643177E-05  0.241E-03    1.72       5.3  T
   5    -96.1897760 -0.230461E-06  0.106E-03    1.72      12.0  T
   6    -96.1897760 -0.206183E-07  0.501E-04    1.72      25.4  T
   7    -96.1897760 -0.453272E-08  0.160E-04    1.72      79.5  T
     SCC iter.                  ...        0 min,  0.081 sec
     gradient                   ...        0 min,  0.102 sec
 * total energy  :   -94.8806971 Eh     change       -0.1019670E-03 Eh
   gradient norm :     0.0066523 Eh/α   predicted    -0.1413907E-03 (  38.66%)
   displ. norm   :     0.2838872 α      lambda       -0.1869778E-03
   maximum displ.:     0.1553170 α      in ANC's #5, #2, #4, ...

........................................................................
.............................. CYCLE   13 ..............................
........................................................................

 iter      E             dE          RMSdq      gap      omega  full diag
   1    -96.1865329 -0.961865E+02  0.421E-02    1.71       0.0  T
   2    -96.1865355 -0.252614E-05  0.246E-02    1.71       1.0  T
   3    -96.1865326  0.280820E-05  0.883E-03    1.71       1.4  T
   4    -96.1865362 -0.354334E-05  0.198E-03    1.71       6.4  T
   5    -96.1865363 -0.128684E-06  0.954E-04    1.71      13.3  T
   6    -96.1865363 -0.866295E-08  0.476E-04    1.71      26.7  T
     SCC iter.                  ...        0 min,  0.025 sec
     gradient                   ...        0 min,  0.103 sec
 * total energy  :   -94.8807815 Eh     change       -0.8445014E-04 Eh
   gradient norm :     0.0056872 Eh/α   predicted    -0.1010264E-03 (  19.63%)
   displ. norm   :     0.0696742 α      lambda       -0.8126102E-04
   maximum displ.:     0.0418524 α      in ANC's #11, #12, #9, ...

........................................................................
.............................. CYCLE   14 ..............................
........................................................................

 iter      E             dE          RMSdq      gap      omega  full diag
   1    -96.1890410 -0.961890E+02  0.233E-02    1.72       0.0  T
   2    -96.1890426 -0.158381E-05  0.136E-02    1.71       1.0  T
   3    -96.1890413  0.123243E-05  0.589E-03    1.71       2.2  T
   4    -96.1890428 -0.149707E-05  0.149E-03    1.71       8.5  T
   5    -96.1890429 -0.105728E-06  0.485E-04    1.71      26.2  T
   6    -96.1890429 -0.714090E-08  0.232E-04    1.71      54.7  T
     SCC iter.                  ...        0 min,  0.025 sec
     gradient                   ...        0 min,  0.101 sec
 * total energy  :   -94.8808362 Eh     change       -0.5462380E-04 Eh
   gradient norm :     0.0048952 Eh/α   predicted    -0.4083230E-04 ( -25.25%)
   displ. norm   :     0.1556526 α      lambda       -0.1150752E-03
   maximum displ.:     0.0708433 α      in ANC's #5, #2, #11, ...

........................................................................
.............................. CYCLE   15 ..............................
........................................................................

 iter      E             dE          RMSdq      gap      omega  full diag
   1    -96.1896602 -0.961897E+02  0.323E-02    1.71       0.0  T
   2    -96.1896612 -0.107520E-05  0.187E-02    1.71       1.0  T
   3    -96.1896604  0.860223E-06  0.471E-03    1.71       2.7  T
   4    -96.1896615 -0.109351E-05  0.121E-03    1.71      10.5  T
   5    -96.1896615 -0.478549E-07  0.532E-04    1.71      23.9  T
   6    -96.1896615 -0.617820E-08  0.263E-04    1.71      48.3  T
     SCC iter.                  ...        0 min,  0.072 sec
     gradient                   ...        0 min,  0.096 sec
 * total energy  :   -94.8809111 Eh     change       -0.7493583E-04 Eh
   gradient norm :     0.0032480 Eh/α   predicted    -0.5893283E-04 ( -21.36%)
   displ. norm   :     0.2476865 α      lambda       -0.8083560E-04
   maximum displ.:     0.1259851 α      in ANC's #5, #2, #4, ...

........................................................................
.............................. CYCLE   16 ..............................
........................................................................

 iter      E             dE          RMSdq      gap      omega  full diag
   1    -96.1893713 -0.961894E+02  0.386E-02    1.70       0.0  T
   2    -96.1893720 -0.736315E-06  0.225E-02    1.70       1.0  T
   3    -96.1893717  0.322443E-06  0.317E-03    1.70       4.0  T
   4    -96.1893722 -0.489333E-06  0.119E-03    1.70      10.6  T
   5    -96.1893722 -0.446653E-07  0.497E-04    1.70      25.6  T
   6    -96.1893722 -0.358649E-08  0.186E-04    1.70      68.4  T
     SCC iter.                  ...        0 min,  0.077 sec
     gradient                   ...        0 min,  0.102 sec
 * total energy  :   -94.8809705 Eh     change       -0.5936510E-04 Eh
   gradient norm :     0.0049286 Eh/α   predicted    -0.4289863E-04 ( -27.74%)
   displ. norm   :     0.2535539 α      lambda       -0.7480659E-04
   maximum displ.:     0.1240305 α      in ANC's #5, #2, #4, ...

........................................................................
.............................. CYCLE   17 ..............................
........................................................................

 iter      E             dE          RMSdq      gap      omega  full diag
   1    -96.1886440 -0.961886E+02  0.408E-02    1.70       0.0  T
   2    -96.1886446 -0.641100E-06  0.238E-02    1.70       1.0  T
   3    -96.1886446  0.398416E-07  0.239E-03    1.70       5.3  T
   4    -96.1886448 -0.225078E-06  0.103E-03    1.70      12.4  T
   5    -96.1886448 -0.185591E-07  0.525E-04    1.70      24.2  T
   6    -96.1886448 -0.681462E-08  0.161E-04    1.70      78.7  T
     SCC iter.                  ...        0 min,  0.078 sec
     gradient                   ...        0 min,  0.097 sec
 * total energy  :   -94.8810242 Eh     change       -0.5378354E-04 Eh
   gradient norm :     0.0039338 Eh/α   predicted    -0.3980978E-04 ( -25.98%)
   displ. norm   :     0.1803213 α      lambda       -0.5325737E-04
   maximum displ.:     0.0878156 α      in ANC's #2, #9, #4, ...

........................................................................
.............................. CYCLE   18 ..............................
........................................................................

 iter      E             dE          RMSdq      gap      omega  full diag
   1    -96.1888046 -0.961888E+02  0.336E-02    1.70       0.0  T
   2    -96.1888052 -0.613218E-06  0.196E-02    1.70       1.0  T
   3    -96.1888050  0.218009E-06  0.271E-03    1.70       4.7  T
   4    -96.1888053 -0.351331E-06  0.101E-03    1.70      12.5  T
   5    -96.1888054 -0.348370E-07  0.488E-04    1.70      26.0  T
   6    -96.1888054 -0.347870E-08  0.183E-04    1.70      69.3  T
     SCC iter.                  ...        0 min,  0.026 sec
     gradient                   ...        0 min,  0.155 sec
 * total energy  :   -94.8810627 Eh     change       -0.3842152E-04 Eh
   gradient norm :     0.0021994 Eh/α   predicted    -0.2749622E-04 ( -28.44%)
   displ. norm   :     0.1447347 α      lambda       -0.4094273E-04
   maximum displ.:     0.0708856 α      in ANC's #2, #4, #9, ...

........................................................................
.............................. CYCLE   19 ..............................
........................................................................

 iter      E             dE          RMSdq      gap      omega  full diag
   1    -96.1891054 -0.961891E+02  0.293E-02    1.70       0.0  T
   2    -96.1891060 -0.614848E-06  0.171E-02    1.70       1.0  T
   3    -96.1891054  0.541209E-06  0.358E-03    1.70       3.5  T
   4    -96.1891061 -0.662066E-06  0.110E-03    1.70      11.6  T
   5    -96.1891061 -0.534545E-07  0.456E-04    1.70      27.8  T
   6    -96.1891061 -0.241138E-08  0.199E-04    1.70      63.9  T
     SCC iter.                  ...        0 min,  0.025 sec
     gradient                   ...        0 min,  0.103 sec
 * total energy  :   -94.8810929 Eh     change       -0.3027101E-04 Eh
   gradient norm :     0.0019595 Eh/α   predicted    -0.2090295E-04 ( -30.95%)
   displ. norm   :     0.2181365 α      lambda       -0.3981460E-04
   maximum displ.:     0.1001848 α      in ANC's #2, #4, #9, ...

........................................................................
.............................. CYCLE   20 ..............................
........................................................................

 iter      E             dE          RMSdq      gap      omega  full diag
   1    -96.1897510 -0.961898E+02  0.483E-02    1.70       0.0  T
   2    -96.1897524 -0.131180E-05  0.282E-02    1.70       1.0  T
   3    -96.1897491  0.323581E-05  0.805E-03    1.70       1.6  T
   4    -96.1897529 -0.378357E-05  0.158E-03    1.70       8.0  T
   5    -96.1897530 -0.868263E-07  0.741E-04    1.70      17.1  T
   6    -96.1897530 -0.572123E-08  0.337E-04    1.70      37.7  T
     SCC iter.                  ...        0 min,  0.025 sec
     gradient                   ...        0 min,  0.103 sec
 * total energy  :   -94.8811299 Eh     change       -0.3691934E-04 Eh
   gradient norm :     0.0037454 Eh/α   predicted    -0.2033182E-04 ( -44.93%)
   displ. norm   :     0.0916489 α      lambda       -0.2982512E-04
   maximum displ.:     0.0429980 α      in ANC's #4, #2, #12, ...
 * RMSD in coord.:     0.5002736 α      energy gain  -0.2590577E-01 Eh

generating ANC from exact Hessian ...
Using Lindh-Hessian (1995)
 Shifting diagonal of input Hessian by    9.8753544621188027E-003
 Lowest  eigenvalues of input Hessian
    0.000000    0.000000    0.000000    0.000000    0.000000    0.000000
    0.010000    0.010100    0.010306    0.010488    0.010956    0.011183
    0.011427    0.011712    0.011991    0.012467    0.013145    0.014471
 Highest eigenvalues
    2.114490    2.169947    2.217995    2.301950    2.356867    2.388866


........................................................................
.............................. CYCLE   21 ..............................
........................................................................

 iter      E             dE          RMSdq      gap      omega  full diag
   1    -96.1896502 -0.961897E+02  0.201E-02    1.70       0.0  T
   2    -96.1896505 -0.305976E-06  0.118E-02    1.70       1.1  T
   3    -96.1896495  0.938419E-06  0.427E-03    1.70       3.0  T
   4    -96.1896506 -0.108856E-05  0.655E-04    1.70      19.4  T
   5    -96.1896506 -0.124651E-07  0.314E-04    1.70      40.4  T
   6    -96.1896506 -0.137132E-08  0.163E-04    1.70      78.0  T
     SCC iter.                  ...        0 min,  0.077 sec
     gradient                   ...        0 min,  0.097 sec
 * total energy  :   -94.8811548 Eh     change       -0.2499446E-04 Eh
   gradient norm :     0.0032612 Eh/α   predicted     0.0000000E+00 (-100.00%)
   displ. norm   :     0.0273515 α      lambda       -0.1122252E-04
   maximum displ.:     0.0119050 α      in ANC's #14, #5, #13, ...

........................................................................
.............................. CYCLE   22 ..............................
........................................................................

 iter      E             dE          RMSdq      gap      omega  full diag
   1    -96.1900015 -0.961900E+02  0.648E-03    1.70       0.0  T
   2    -96.1900016 -0.125420E-06  0.378E-03    1.70       3.4  T
   3    -96.1900015  0.710592E-07  0.149E-03    1.70       8.5  T
   4    -96.1900016 -0.838365E-07  0.469E-04    1.70      27.1  T
   5    -96.1900016 -0.117222E-07  0.129E-04    1.70      98.3  T
     SCC iter.                  ...        0 min,  0.021 sec
     gradient                   ...        0 min,  0.104 sec
 * total energy  :   -94.8811718 Eh     change       -0.1699441E-04 Eh
   gradient norm :     0.0017269 Eh/α   predicted    -0.1028515E-04 ( -39.48%)
   displ. norm   :     0.1312921 α      lambda       -0.3895037E-04
   maximum displ.:     0.0553097 α      in ANC's #14, #5, #13, ...

........................................................................
.............................. CYCLE   23 ..............................
........................................................................

 iter      E             dE          RMSdq      gap      omega  full diag
   1    -96.1903708 -0.961904E+02  0.278E-02    1.70       0.0  T
   2    -96.1903720 -0.113413E-05  0.162E-02    1.70       1.0  T
   3    -96.1903711  0.876850E-06  0.470E-03    1.70       2.7  T
   4    -96.1903721 -0.102150E-05  0.141E-03    1.70       9.0  T
   5    -96.1903722 -0.999140E-07  0.465E-04    1.70      27.3  T
   6    -96.1903722 -0.377314E-08  0.216E-04    1.70      58.8  T
     SCC iter.                  ...        0 min,  0.025 sec
     gradient                   ...        0 min,  0.097 sec
 * total energy  :   -94.8811990 Eh     change       -0.2716681E-04 Eh
   gradient norm :     0.0032464 Eh/α   predicted    -0.1962467E-04 ( -27.76%)
   displ. norm   :     0.0329857 α      lambda       -0.1152681E-04
   maximum displ.:     0.0143931 α      in ANC's #5, #13, #14, ...

........................................................................
.............................. CYCLE   24 ..............................
........................................................................

 iter      E             dE          RMSdq      gap      omega  full diag
   1    -96.1902555 -0.961903E+02  0.664E-03    1.70       0.0  T
   2    -96.1902555 -0.403537E-07  0.388E-03    1.70       3.3  T
   3    -96.1902555  0.255643E-07  0.879E-04    1.70      14.4  T
   4    -96.1902555 -0.338164E-07  0.211E-04    1.70      60.1  T
     SCC iter.                  ...        0 min,  0.068 sec
     gradient                   ...        0 min,  0.096 sec
 * total energy  :   -94.8812102 Eh     change       -0.1120501E-04 Eh
   gradient norm :     0.0026427 Eh/α   predicted    -0.6086094E-05 ( -45.68%)
   displ. norm   :     0.1931667 α      lambda       -0.5705206E-04
   maximum displ.:     0.0818107 α      in ANC's #5, #13, #6, ...

........................................................................
.............................. CYCLE   25 ..............................
........................................................................

 iter      E             dE          RMSdq      gap      omega  full diag
   1    -96.1896335 -0.961896E+02  0.382E-02    1.70       0.0  T
   2    -96.1896346 -0.114510E-05  0.223E-02    1.70       1.0  T
   3    -96.1896340  0.644101E-06  0.454E-03    1.70       2.8  T
   4    -96.1896349 -0.894594E-06  0.104E-03    1.70      12.2  T
   5    -96.1896349 -0.272627E-07  0.480E-04    1.70      26.4  T
   6    -96.1896349 -0.351889E-09  0.220E-04    1.70      57.8  T
     SCC iter.                  ...        0 min,  0.026 sec
     gradient                   ...        0 min,  0.096 sec
 * total energy  :   -94.8812453 Eh     change       -0.3507055E-04 Eh
   gradient norm :     0.0016723 Eh/α   predicted    -0.2961362E-04 ( -15.56%)
   displ. norm   :     0.1364783 α      lambda       -0.1199689E-04
   maximum displ.:     0.0582060 α      in ANC's #5, #6, #3, ...

........................................................................
.............................. CYCLE   26 ..............................
........................................................................

 iter      E             dE          RMSdq      gap      omega  full diag
   1    -96.1896246 -0.961896E+02  0.259E-02    1.70       0.0  T
   2    -96.1896249 -0.380406E-06  0.151E-02    1.70       1.0  T
   3    -96.1896246  0.343053E-06  0.295E-03    1.70       4.3  T
   4    -96.1896250 -0.448957E-06  0.703E-04    1.70      18.1  T
   5    -96.1896251 -0.135159E-07  0.372E-04    1.70      34.2  T
     SCC iter.                  ...        0 min,  0.021 sec
     gradient                   ...        0 min,  0.097 sec
 * total energy  :   -94.8812581 Eh     change       -0.1279001E-04 Eh
   gradient norm :     0.0020356 Eh/α   predicted    -0.6066400E-05 ( -52.57%)
   displ. norm   :     0.0894398 α      lambda       -0.1597820E-04
   maximum displ.:     0.0364711 α      in ANC's #5, #3, #6, ...

........................................................................
.............................. CYCLE   27 ..............................
........................................................................

 iter      E             dE          RMSdq      gap      omega  full diag
   1    -96.1900780 -0.961901E+02  0.172E-02    1.70       0.0  T
   2    -96.1900782 -0.158512E-06  0.101E-02    1.70       1.3  T
   3    -96.1900778  0.324060E-06  0.253E-03    1.70       5.0  T
   4    -96.1900782 -0.384284E-06  0.525E-04    1.70      24.2  T
   5    -96.1900782 -0.846526E-08  0.265E-04    1.70      48.0  T
     SCC iter.                  ...        0 min,  0.066 sec
     gradient                   ...        0 min,  0.051 sec
 * total energy  :   -94.8812715 Eh     change       -0.1339657E-04 Eh
   gradient norm :     0.0013573 Eh/α   predicted    -0.8056888E-05 ( -39.86%)
   displ. norm   :     0.2973990 α      lambda       -0.2788236E-04
   maximum displ.:     0.1218916 α      in ANC's #3, #5, #6, ...

........................................................................
.............................. CYCLE   28 ..............................
........................................................................

 iter      E             dE          RMSdq      gap      omega  full diag
   1    -96.1899562 -0.961900E+02  0.584E-02    1.70       0.0  T
   2    -96.1899574 -0.121433E-05  0.342E-02    1.71       1.0  T
   3    -96.1899521  0.532762E-05  0.991E-03    1.70       1.3  T
   4    -96.1899583 -0.617394E-05  0.148E-03    1.71       8.6  T
   5    -96.1899583 -0.360879E-07  0.830E-04    1.71      15.3  T
   6    -96.1899583 -0.894319E-08  0.357E-04    1.71      35.6  T
     SCC iter.                  ...        0 min,  0.025 sec
     gradient                   ...        0 min,  0.095 sec
 * total energy  :   -94.8812969 Eh     change       -0.2546877E-04 Eh
   gradient norm :     0.0018744 Eh/α   predicted    -0.1450039E-04 ( -43.07%)
   displ. norm   :     0.1269950 α      lambda       -0.1454142E-04
   maximum displ.:     0.0602462 α      in ANC's #3, #1, #6, ...

........................................................................
.............................. CYCLE   29 ..............................
........................................................................

 iter      E             dE          RMSdq      gap      omega  full diag
   1    -96.1905881 -0.961906E+02  0.280E-02    1.71       0.0  T
   2    -96.1905885 -0.398452E-06  0.164E-02    1.71       1.0  T
   3    -96.1905877  0.810897E-06  0.400E-03    1.71       3.2  T
   4    -96.1905886 -0.953015E-06  0.865E-04    1.71      14.7  T
   5    -96.1905887 -0.240698E-07  0.385E-04    1.71      33.0  T
     SCC iter.                  ...        0 min,  0.066 sec
     gradient                   ...        0 min,  0.096 sec
 * total energy  :   -94.8813131 Eh     change       -0.1611305E-04 Eh
   gradient norm :     0.0018294 Eh/α   predicted    -0.7323705E-05 ( -54.55%)
   displ. norm   :     0.2780743 α      lambda       -0.2179241E-04
   maximum displ.:     0.1277954 α      in ANC's #3, #1, #6, ...

........................................................................
.............................. CYCLE   30 ..............................
........................................................................

 iter      E             dE          RMSdq      gap      omega  full diag
   1    -96.1895105 -0.961895E+02  0.595E-02    1.71       0.0  T
   2    -96.1895115 -0.101670E-05  0.349E-02    1.71       1.0  T
   3    -96.1895075  0.399729E-05  0.864E-03    1.71       1.5  T
   4    -96.1895122 -0.469526E-05  0.140E-03    1.71       9.0  T
   5    -96.1895122 -0.221198E-07  0.700E-04    1.71      18.1  T
   6    -96.1895122 -0.558724E-08  0.254E-04    1.71      50.1  T
     SCC iter.                  ...        0 min,  0.025 sec
     gradient                   ...        0 min,  0.096 sec
 * total energy  :   -94.8813325 Eh     change       -0.1940802E-04 Eh
   gradient norm :     0.0021474 Eh/α   predicted    -0.1129003E-04 ( -41.83%)
   displ. norm   :     0.0629081 α      lambda       -0.1549655E-04
   maximum displ.:     0.0304536 α      in ANC's #3, #1, #11, ...

........................................................................
.............................. CYCLE   31 ..............................
........................................................................

 iter      E             dE          RMSdq      gap      omega  full diag
   1    -96.1902862 -0.961903E+02  0.152E-02    1.71       0.0  T
   2    -96.1902864 -0.187825E-06  0.887E-03    1.71       1.4  T
   3    -96.1902862  0.188492E-06  0.197E-03    1.71       6.4  T
   4    -96.1902864 -0.238264E-06  0.502E-04    1.71      25.3  T
   5    -96.1902864 -0.746635E-08  0.239E-04    1.71      53.2  T
     SCC iter.                  ...        0 min,  0.021 sec
     gradient                   ...        0 min,  0.097 sec
 * total energy  :   -94.8813436 Eh     change       -0.1117959E-04 Eh
   gradient norm :     0.0009383 Eh/α   predicted    -0.7779993E-05 ( -30.41%)
   displ. norm   :     0.1379717 α      lambda       -0.1004046E-04
   maximum displ.:     0.0738235 α      in ANC's #3, #1, #2, ...

........................................................................
.............................. CYCLE   32 ..............................
........................................................................

 iter      E             dE          RMSdq      gap      omega  full diag
   1    -96.1907865 -0.961908E+02  0.294E-02    1.71       0.0  T
   2    -96.1907870 -0.476485E-06  0.172E-02    1.71       1.0  T
   3    -96.1907864  0.518159E-06  0.320E-03    1.71       4.0  T
   4    -96.1907871 -0.664227E-06  0.882E-04    1.71      14.4  T
   5    -96.1907871 -0.190950E-07  0.429E-04    1.71      29.6  T
     SCC iter.                  ...        0 min,  0.066 sec
     gradient                   ...        0 min,  0.097 sec
 * total energy  :   -94.8813527 Eh     change       -0.9032218E-05 Eh
   gradient norm :     0.0011304 Eh/α   predicted    -0.5063053E-05 ( -43.94%)
   displ. norm   :     0.0743731 α      lambda       -0.5088724E-05
   maximum displ.:     0.0420643 α      in ANC's #3, #1, #2, ...

........................................................................
.............................. CYCLE   33 ..............................
........................................................................

 iter      E             dE          RMSdq      gap      omega  full diag
   1    -96.1907782 -0.961908E+02  0.152E-02    1.71       0.0  T
   2    -96.1907783 -0.829109E-07  0.885E-03    1.71       1.4  T
   3    -96.1907781  0.196442E-06  0.192E-03    1.71       6.6  T
   4    -96.1907784 -0.241302E-06  0.392E-04    1.71      32.4  T
   5    -96.1907784 -0.123019E-08  0.190E-04    1.71      66.7  T
     SCC iter.                  ...        0 min,  0.021 sec
     gradient                   ...        0 min,  0.091 sec
 * total energy  :   -94.8813593 Eh     change       -0.6581029E-05 Eh
   gradient norm :     0.0008443 Eh/α   predicted    -0.2554011E-05 ( -61.19%)
   displ. norm   :     0.1138493 α      lambda       -0.9711734E-05
   maximum displ.:     0.0652087 α      in ANC's #3, #1, #2, ...

........................................................................
.............................. CYCLE   34 ..............................
........................................................................

 iter      E             dE          RMSdq      gap      omega  full diag
   1    -96.1907445 -0.961907E+02  0.241E-02    1.71       0.0  T
   2    -96.1907447 -0.258332E-06  0.140E-02    1.71       1.0  T
   3    -96.1907444  0.367134E-06  0.278E-03    1.71       4.6  T
   4    -96.1907448 -0.471760E-06  0.655E-04    1.71      19.4  T
   5    -96.1907448 -0.689576E-08  0.274E-04    1.71      46.4  T
     SCC iter.                  ...        0 min,  0.021 sec
     gradient                   ...        0 min,  0.085 sec
 * total energy  :   -94.8813700 Eh     change       -0.1070251E-04 Eh
   gradient norm :     0.0008912 Eh/α   predicted    -0.4885091E-05 ( -54.36%)
   displ. norm   :     0.1221877 α      lambda       -0.7652828E-05
   maximum displ.:     0.0737229 α      in ANC's #3, #1, #2, ...

........................................................................
.............................. CYCLE   35 ..............................
........................................................................

 iter      E             dE          RMSdq      gap      omega  full diag
   1    -96.1906525 -0.961907E+02  0.255E-02    1.71       0.0  T
   2    -96.1906528 -0.247742E-06  0.148E-02    1.71       1.0  T
   3    -96.1906520  0.750508E-06  0.376E-03    1.71       3.4  T
   4    -96.1906529 -0.901379E-06  0.649E-04    1.71      19.6  T
   5    -96.1906529 -0.313530E-08  0.291E-04    1.71      43.7  T
     SCC iter.                  ...        0 min,  0.021 sec
     gradient                   ...        0 min,  0.091 sec
 * total energy  :   -94.8813783 Eh     change       -0.8363257E-05 Eh
   gradient norm :     0.0010378 Eh/α   predicted    -0.3853677E-05 ( -53.92%)
   displ. norm   :     0.1094656 α      lambda       -0.6228854E-05
   maximum displ.:     0.0672789 α      in ANC's #3, #1, #2, ...

........................................................................
.............................. CYCLE   36 ..............................
........................................................................

 iter      E             dE          RMSdq      gap      omega  full diag
   1    -96.1905373 -0.961905E+02  0.224E-02    1.71       0.0  T
   2    -96.1905375 -0.207067E-06  0.131E-02    1.71       1.0  T
   3    -96.1905371  0.341234E-06  0.265E-03    1.71       4.8  T
   4    -96.1905376 -0.430832E-06  0.593E-04    1.71      21.4  T
   5    -96.1905376 -0.523188E-08  0.248E-04    1.71      51.2  T
     SCC iter.                  ...        0 min,  0.021 sec
     gradient                   ...        0 min,  0.097 sec
 * total energy  :   -94.8813864 Eh     change       -0.8051482E-05 Eh
   gradient norm :     0.0007915 Eh/α   predicted    -0.3135085E-05 ( -61.06%)
   displ. norm   :     0.1319270 α      lambda       -0.8514377E-05
   maximum displ.:     0.0822776 α      in ANC's #3, #1, #2, ...

........................................................................
.............................. CYCLE   37 ..............................
........................................................................

 iter      E             dE          RMSdq      gap      omega  full diag
   1    -96.1908054 -0.961908E+02  0.269E-02    1.71       0.0  T
   2    -96.1908056 -0.291921E-06  0.156E-02    1.71       1.0  T
   3    -96.1908053  0.360589E-06  0.278E-03    1.71       4.6  T
   4    -96.1908058 -0.470956E-06  0.735E-04    1.71      17.3  T
   5    -96.1908058 -0.112847E-07  0.308E-04    1.71      41.2  T
     SCC iter.                  ...        0 min,  0.021 sec
     gradient                   ...        0 min,  0.096 sec
 * total energy  :   -94.8813972 Eh     change       -0.1084280E-04 Eh
   gradient norm :     0.0006190 Eh/α   predicted    -0.4293116E-05 ( -60.41%)
   displ. norm   :     0.1657947 α      lambda       -0.9129539E-05
   maximum displ.:     0.1056410 α      in ANC's #3, #1, #2, ...

........................................................................
.............................. CYCLE   38 ..............................
........................................................................

 iter      E             dE          RMSdq      gap      omega  full diag
   1    -96.1906723 -0.961907E+02  0.342E-02    1.71       0.0  T
   2    -96.1906727 -0.426352E-06  0.199E-02    1.71       1.0  T
   3    -96.1906723  0.391638E-06  0.305E-03    1.71       4.2  T
   4    -96.1906728 -0.551611E-06  0.910E-04    1.71      14.0  T
   5    -96.1906729 -0.159006E-07  0.365E-04    1.71      34.8  T
     SCC iter.                  ...        0 min,  0.021 sec
     gradient                   ...        0 min,  0.088 sec
 * total energy  :   -94.8814082 Eh     change       -0.1096031E-04 Eh
   gradient norm :     0.0007158 Eh/α   predicted    -0.4622620E-05 ( -57.82%)
   displ. norm   :     0.1410250 α      lambda       -0.6515208E-05
   maximum displ.:     0.0916634 α      in ANC's #3, #1, #2, ...

........................................................................
.............................. CYCLE   39 ..............................
........................................................................

 iter      E             dE          RMSdq      gap      omega  full diag
   1    -96.1908927 -0.961909E+02  0.291E-02    1.71       0.0  T
   2    -96.1908930 -0.293806E-06  0.169E-02    1.71       1.0  T
   3    -96.1908928  0.115834E-06  0.200E-03    1.71       6.4  T
   4    -96.1908931 -0.215165E-06  0.764E-04    1.71      16.6  T
   5    -96.1908931 -0.117471E-07  0.300E-04    1.71      42.4  T
     SCC iter.                  ...        0 min,  0.021 sec
     gradient                   ...        0 min,  0.091 sec
 * total energy  :   -94.8814164 Eh     change       -0.8179324E-05 Eh
   gradient norm :     0.0008293 Eh/α   predicted    -0.3289839E-05 ( -59.78%)
   displ. norm   :     0.1430504 α      lambda       -0.6584868E-05
   maximum displ.:     0.0946063 α      in ANC's #3, #1, #2, ...

........................................................................
.............................. CYCLE   40 ..............................
........................................................................

 iter      E             dE          RMSdq      gap      omega  full diag
   1    -96.1909485 -0.961909E+02  0.295E-02    1.71       0.0  T
   2    -96.1909487 -0.278476E-06  0.171E-02    1.71       1.0  T
   3    -96.1909487  0.756793E-08  0.156E-03    1.71       8.1  T
   4    -96.1909488 -0.100061E-06  0.739E-04    1.71      17.2  T
   5    -96.1909488 -0.106905E-07  0.282E-04    1.71      45.1  T
     SCC iter.                  ...        0 min,  0.021 sec
     gradient                   ...        0 min,  0.091 sec
 * total energy  :   -94.8814251 Eh     change       -0.8713239E-05 Eh
   gradient norm :     0.0007284 Eh/α   predicted    -0.3323396E-05 ( -61.86%)
   displ. norm   :     0.1756064 α      lambda       -0.8879623E-05
   maximum displ.:     0.1176448 α      in ANC's #3, #1, #2, ...

........................................................................
.............................. CYCLE   41 ..............................
........................................................................

 iter      E             dE          RMSdq      gap      omega  full diag
   1    -96.1909120 -0.961909E+02  0.354E-02    1.71       0.0  T
   2    -96.1909124 -0.408928E-06  0.206E-02    1.71       1.0  T
   3    -96.1909124 -0.404217E-07  0.170E-03    1.71       7.5  T
   4    -96.1909125 -0.915542E-07  0.847E-04    1.71      15.0  T
   5    -96.1909125 -0.123195E-07  0.346E-04    1.71      36.7  T
     SCC iter.                  ...        0 min,  0.060 sec
     gradient                   ...        0 min,  0.088 sec
 * total energy  :   -94.8814370 Eh     change       -0.1190611E-04 Eh
   gradient norm :     0.0007149 Eh/α   predicted    -0.4504268E-05 ( -62.17%)
   displ. norm   :     0.2672491 α      lambda       -0.1351756E-04
   maximum displ.:     0.1792531 α      in ANC's #3, #1, #2, ...

........................................................................
.............................. CYCLE   42 ..............................
........................................................................

 iter      E             dE          RMSdq      gap      omega  full diag
   1    -96.1906804 -0.961907E+02  0.526E-02    1.70       0.0  T
   2    -96.1906813 -0.941712E-06  0.306E-02    1.71       1.0  T
   3    -96.1906815 -0.184951E-06  0.225E-03    1.71       5.7  T
   4    -96.1906816 -0.106939E-06  0.117E-03    1.71      10.9  T
   5    -96.1906816 -0.202240E-07  0.451E-04    1.71      28.2  T
   6    -96.1906817 -0.602402E-08  0.142E-04    1.71      89.7  T
     SCC iter.                  ...        0 min,  0.026 sec
     gradient                   ...        0 min,  0.085 sec
 * total energy  :   -94.8814544 Eh     change       -0.1738781E-04 Eh
   gradient norm :     0.0008257 Eh/α   predicted    -0.6977050E-05 ( -59.87%)
   displ. norm   :     0.3968093 α      lambda       -0.1764603E-04
   maximum displ.:     0.2661364 α      in ANC's #1, #3, #2, ...
 * RMSD in coord.:     0.3446085 α      energy gain  -0.3245073E-03 Eh

generating ANC from exact Hessian ...
Using Lindh-Hessian (1995)
 Shifting diagonal of input Hessian by    9.8737598017284295E-003
 Lowest  eigenvalues of input Hessian
    0.000000    0.000000    0.000000    0.000000    0.000000    0.000000
    0.010000    0.010106    0.010308    0.010503    0.010974    0.011180
    0.011367    0.011645    0.012007    0.012478    0.013154    0.014428
 Highest eigenvalues
    2.114163    2.172106    2.217249    2.300540    2.354777    2.387008


........................................................................
.............................. CYCLE   43 ..............................
........................................................................

 iter      E             dE          RMSdq      gap      omega  full diag
   1    -96.1898386 -0.961898E+02  0.765E-02    1.70       0.0  T
   2    -96.1898406 -0.204415E-05  0.444E-02    1.70       1.0  T
   3    -96.1898410 -0.386411E-06  0.327E-03    1.70       3.9  T
   4    -96.1898412 -0.223601E-06  0.171E-03    1.70       7.4  T
   5    -96.1898413 -0.447133E-07  0.704E-04    1.70      18.0  T
   6    -96.1898413 -0.142957E-07  0.209E-04    1.70      60.8  T
     SCC iter.                  ...        0 min,  0.025 sec
     gradient                   ...        0 min,  0.086 sec
 * total energy  :   -94.8814737 Eh     change       -0.1936574E-04 Eh
   gradient norm :     0.0013489 Eh/α   predicted     0.0000000E+00 (-100.00%)
   displ. norm   :     0.0229528 α      lambda       -0.1716676E-05
   maximum displ.:     0.0123509 α      in ANC's #8, #1, #13, ...

........................................................................
.............................. CYCLE   44 ..............................
........................................................................

 iter      E             dE          RMSdq      gap      omega  full diag
   1    -96.1910984 -0.961911E+02  0.540E-03    1.70       0.0  T
   2    -96.1910985 -0.712259E-07  0.314E-03    1.70       4.0  T
   3    -96.1910985  0.872708E-08  0.757E-04    1.70      16.8  T
   4    -96.1910985 -0.150542E-07  0.213E-04    1.70      59.5  T
     SCC iter.                  ...        0 min,  0.017 sec
     gradient                   ...        0 min,  0.090 sec
 * total energy  :   -94.8814806 Eh     change       -0.6901435E-05 Eh
   gradient norm :     0.0005438 Eh/α   predicted    -0.3576331E-05 ( -48.18%)
   displ. norm   :     0.0415380 α      lambda       -0.5382507E-05
   maximum displ.:     0.0251378 α      in ANC's #8, #1, #13, ...

........................................................................
.............................. CYCLE   45 ..............................
........................................................................

 iter      E             dE          RMSdq      gap      omega  full diag
   1    -96.1915961 -0.961916E+02  0.750E-03    1.70       0.0  T
   2    -96.1915961 -0.453851E-07  0.436E-03    1.70       2.9  T
   3    -96.1915961  0.215699E-07  0.753E-04    1.70      16.9  T
   4    -96.1915962 -0.303296E-07  0.223E-04    1.70      56.8  T
     SCC iter.                  ...        0 min,  0.050 sec
     gradient                   ...        0 min,  0.050 sec
 * total energy  :   -94.8814869 Eh     change       -0.6247711E-05 Eh
   gradient norm :     0.0006761 Eh/α   predicted    -0.2697837E-05 ( -56.82%)
   displ. norm   :     0.0785102 α      lambda       -0.7413277E-05
   maximum displ.:     0.0442801 α      in ANC's #8, #1, #3, ...

........................................................................
.............................. CYCLE   46 ..............................
........................................................................

 iter      E             dE          RMSdq      gap      omega  full diag
   1    -96.1914965 -0.961915E+02  0.125E-02    1.70       0.0  T
   2    -96.1914966 -0.970769E-07  0.730E-03    1.70       1.7  T
   3    -96.1914966  0.635177E-07  0.124E-03    1.70      10.2  T
   4    -96.1914967 -0.877198E-07  0.385E-04    1.70      32.9  T
   5    -96.1914967 -0.470759E-08  0.178E-04    1.70      71.2  T
     SCC iter.                  ...        0 min,  0.021 sec
     gradient                   ...        0 min,  0.084 sec
 * total energy  :   -94.8814948 Eh     change       -0.7903046E-05 Eh
   gradient norm :     0.0009770 Eh/α   predicted    -0.3734705E-05 ( -52.74%)
   displ. norm   :     0.0802968 α      lambda       -0.5662231E-05
   maximum displ.:     0.0453587 α      in ANC's #8, #1, #3, ...

........................................................................
.............................. CYCLE   47 ..............................
........................................................................

 iter      E             dE          RMSdq      gap      omega  full diag
   1    -96.1911969 -0.961912E+02  0.113E-02    1.71       0.0  T
   2    -96.1911970 -0.761313E-07  0.656E-03    1.71       1.9  T
   3    -96.1911970  0.221518E-07  0.972E-04    1.71      13.1  T
   4    -96.1911970 -0.417431E-07  0.324E-04    1.71      39.1  T
     SCC iter.                  ...        0 min,  0.017 sec
     gradient                   ...        0 min,  0.076 sec
 * total energy  :   -94.8815007 Eh     change       -0.5924210E-05 Eh
   gradient norm :     0.0008725 Eh/α   predicted    -0.2839771E-05 ( -52.06%)
   displ. norm   :     0.0860202 α      lambda       -0.4835541E-05
   maximum displ.:     0.0449941 α      in ANC's #8, #1, #3, ...

........................................................................
.............................. CYCLE   48 ..............................
........................................................................

 iter      E             dE          RMSdq      gap      omega  full diag
   1    -96.1908097 -0.961908E+02  0.114E-02    1.71       0.0  T
   2    -96.1908098 -0.878256E-07  0.663E-03    1.71       1.9  T
   3    -96.1908096  0.193703E-06  0.205E-03    1.71       6.2  T
   4    -96.1908099 -0.230814E-06  0.380E-04    1.71      33.4  T
   5    -96.1908099 -0.365860E-08  0.187E-04    1.71      67.9  T
     SCC iter.                  ...        0 min,  0.021 sec
     gradient                   ...        0 min,  0.072 sec
 * total energy  :   -94.8815059 Eh     change       -0.5164723E-05 Eh
   gradient norm :     0.0005806 Eh/α   predicted    -0.2427172E-05 ( -53.00%)
   displ. norm   :     0.0814241 α      lambda       -0.4225487E-05
   maximum displ.:     0.0387008 α      in ANC's #8, #3, #1, ...

........................................................................
.............................. CYCLE   49 ..............................
........................................................................

 iter      E             dE          RMSdq      gap      omega  full diag
   1    -96.1906283 -0.961906E+02  0.107E-02    1.71       0.0  T
   2    -96.1906284 -0.943127E-07  0.621E-03    1.71       2.0  T
   3    -96.1906282  0.194049E-06  0.210E-03    1.71       6.0  T
   4    -96.1906284 -0.232868E-06  0.386E-04    1.71      32.9  T
   5    -96.1906285 -0.397891E-08  0.195E-04    1.71      65.3  T
     SCC iter.                  ...        0 min,  0.061 sec
     gradient                   ...        0 min,  0.052 sec
 * total energy  :   -94.8815105 Eh     change       -0.4632405E-05 Eh
   gradient norm :     0.0005239 Eh/α   predicted    -0.2119739E-05 ( -54.24%)
   displ. norm   :     0.0752901 α      lambda       -0.3797295E-05
   maximum displ.:     0.0362926 α      in ANC's #3, #1, #8, ...

   *** GEOMETRY OPTIMIZATION CONVERGED AFTER 49 ITERATIONS ***

------------------------------------------------------------------------
 total energy gain   :        -0.0262864 Eh      -16.4950 kcal/mol
 total RMSD          :         0.6857215 a0        0.3629 Å
 total power (kW/mol):        -1.4084690 (step)   -8.4630 (real)
------------------------------------------------------------------------

 ANCopt (total)                0 d,  0 h,  0 min,  8.155 sec
 optimizer setup                ...        0 min,  0.000 sec (  0.001%)
 model hessian                  ...        0 min,  0.124 sec (  1.520%)
 ANC generation                 ...        0 min,  0.010 sec (  0.121%)
 coordinate transformation      ...        0 min,  0.001 sec (  0.010%)
 single point calculation       ...        0 min,  8.002 sec ( 98.124%)
 optimization log               ...        0 min,  0.009 sec (  0.116%)
 hessian update                 ...        0 min,  0.001 sec (  0.014%)
 rational function              ...        0 min,  0.005 sec (  0.059%)

================
 final structure:
================
62
 xtb: 6.7.1 (edcfbbe)
C           -7.12484405976340       -0.39952037389842        0.60126825247279
C           -6.56073540254916        0.91078229381566        0.13330543127268
C           -5.08461723776102        1.07454415792817        0.32277799335390
C           -4.56203376749633        2.19196247541087        0.90571120572158
C           -5.40101178100692        3.30892796117416        1.43856309741402
C           -3.14284725047071        2.28667277159276        1.04184797149690
C           -2.46046561466961        3.36861717554753        1.61961336650740
N           -1.15821646012733        3.43247628956515        1.71100085935205
C           -0.45597432197166        2.39776509571037        1.20658225203687
N            0.88021528905980        2.54475525754337        1.31879026374913
C            1.93458375281540        1.73248266342148        0.93283459793379
N            3.11446308234554        2.15310880656454        1.37561707183986
C            4.19802409484697        1.46264156230181        1.08463311793465
C            4.19722188480105        0.28529306479044        0.32453597423884
C            2.94495218730470       -0.12752143539233       -0.15758712620139
C            1.80957656898444        0.59276536403785        0.13889354006791
N            5.34919848335541       -0.40123038030065       -0.01158812339400
C            6.64751784308509        0.18182136185111        0.25429879767608
C            7.67097468852827       -0.40747452399191       -0.73132318603026
N            7.72847802887651       -1.85466178646702       -0.69932680146433
C            6.40552942449072       -2.40514243306174       -0.91950779771125
C            5.37616867143945       -1.84972722495901        0.07261245142414
N           -0.98480842893730        1.31530841994348        0.64973183016103
C           -2.31320514785346        1.24231755519441        0.56824117090313
N           -2.86466158064440        0.12956972504865        0.01294165706539
C           -1.97809847557486       -0.94531018107129       -0.43099790833992
C           -1.93259772235421       -1.08748895516559       -1.96116939199305
C           -1.66882224509250       -2.57352408030703       -2.17906956024164
C           -2.54871957718387       -3.22447584718213       -1.11593905274203
C           -2.34811245408340       -2.34020943159622        0.11730470694302
C           -4.23850734524255       -0.00533547544420       -0.18176397593753
O           -4.67384189107781       -0.98554522610025       -0.76027984279921
O           -7.24544426475960        1.78312508812198       -0.34836112165193
H           -8.21052256928887       -0.36811726162881        0.57005388331306
H           -6.77839289120768       -0.62331756002020        1.60812673550815
H           -6.75784611751430       -1.18190765747882       -0.06112466580776
H           -6.45731058340243        3.12082925474501        1.28336580232900
H           -5.21354640911219        3.44304310930745        2.50358601014248
H           -5.14413258561842        4.23606285675433        0.92843942631525
H           -2.99533039574908        4.21699395921377        2.02328208074110
H            1.16834363925000        3.37994764314021        1.81466543732166
H            5.10868878587162        1.87333776952210        1.49690876365969
H            2.86430467256091       -1.00127911401171       -0.78666910346651
H            0.84658475246171        0.30328449901517       -0.24032464949933
H            6.97397256949892       -0.01789416696580        1.28967034927350
H            6.59710838318413        1.26005788666096        0.10201869167570
H            7.39112333574716       -0.11555942854628       -1.74763517303082
H            8.66357373782520       -0.00842064215685       -0.51410472744413
H            8.07885826505559       -2.16263164036082        0.20481733651377
H            6.45511582267693       -3.49278324410413       -0.83778129903151
H            6.10547617780348       -2.14191009249005       -1.93772979666663
H            5.66037943411835       -2.15942779296987        1.09462726226854
H            4.39036349691820       -2.25823895777420       -0.14097423739388
H           -0.99591380204880       -0.66211229509087       -0.05374160287857
H           -1.17439169336279       -0.44347988032802       -2.40582142908204
H           -2.90378566095596       -0.82801113801275       -2.38055193425070
H           -1.92095750577653       -2.89537806670966       -3.18787495547882
H           -0.61718109348371       -2.80168294736609       -1.99247811526436
H           -3.59005661182848       -3.17232679450552       -1.43022678743967
H           -2.28609794031217       -4.26401635354864       -0.92578410159034
H           -1.52648296987077       -2.71534757993948        0.72931159171822
H           -3.24138321475776       -2.30768409899383        0.73675748648170

 Bond Distances (Angstroems)
 ---------------------------
C1-C2=1.5014         C1-H34=1.0866        C1-H35=1.0881        C1-H36=1.0888        C2-C1=1.5014         C2-C3=1.4972         
C2-O33=1.2091        C3-C2=1.4972         C3-C4=1.3644         C3-C31=1.4617        C4-C3=1.3644         C4-C5=1.4951         
C4-C6=1.4288         C5-C4=1.4951         C5-H37=1.0841        C5-H38=1.0897        C5-H39=1.0889        C6-C4=1.4288         
C6-C7=1.4036         C6-C24=1.4154        C7-C6=1.4036         C7-N8=1.3070         C7-H40=1.0811        N8-C7=1.3070         
N8-C9=1.3484         C9-N8=1.3484         C9-N10=1.3489        C9-N23=1.3272        N10-C9=1.3489        N10-C11=1.3858       
N10-H41=1.0131       C11-N10=1.3858       C11-N12=1.3286       C11-C16=1.3946       N12-C11=1.3286       N12-C13=1.3174       
C13-N12=1.3174       C13-C14=1.4014       C13-H42=1.0807       C14-C13=1.4014       C14-C15=1.4039       C14-N17=1.3825       
C15-C14=1.4039       C15-C16=1.3769       C15-H43=1.0797       C16-C11=1.3946       C16-C15=1.3769       C16-H44=1.0747       
N17-C14=1.3825       N17-C18=1.4479       N17-C22=1.4512       C18-N17=1.4479       C18-C19=1.5382       C18-H45=1.1038       
C18-H46=1.0901       C19-C18=1.5382       C19-N20=1.4487       C19-H47=1.0938       C19-H48=1.0916       N20-C19=1.4487       
N20-C21=1.4497       N20-H49=1.0174       C21-N20=1.4497       C21-C22=1.5337       C21-H50=1.0918       C21-H51=1.0937       
C22-N17=1.4512       C22-C21=1.5337       C22-H52=1.1051       C22-H53=1.0883       N23-C9=1.3272        N23-C24=1.3329       
C24-C6=1.4154        C24-N23=1.3329       C24-N25=1.3604       N25-C24=1.3604       N25-C26=1.4623       N25-C31=1.3941       
C26-N25=1.4623       C26-C27=1.5374       C26-C30=1.5438       C26-H54=1.0896       C27-C26=1.5374       C27-C28=1.5249       
C27-H55=1.0897       C27-H56=1.0892       C28-C27=1.5249       C28-C29=1.5258       C28-H57=1.0885       C28-H58=1.0922       
C29-C28=1.5258       C29-C30=1.5307       C29-H59=1.0890       C29-H60=1.0889       C30-C26=1.5438       C30-C29=1.5307       
C30-H61=1.0910       C30-H62=1.0875       C31-C3=1.4617        C31-N25=1.3941       C31-O32=1.2186       O32-C31=1.2186       
O33-C2=1.2091        H34-C1=1.0866        H35-C1=1.0881        H36-C1=1.0888        H37-C5=1.0841        H38-C5=1.0897        
H39-C5=1.0889        H40-C7=1.0811        H41-N10=1.0131       H42-C13=1.0807       H43-C15=1.0797       H44-C16=1.0747       
H45-C18=1.1038       H46-C18=1.0901       H47-C19=1.0938       H48-C19=1.0916       H49-N20=1.0174       H50-C21=1.0918       
H51-C21=1.0937       H52-C22=1.1051       H53-C22=1.0883       H54-C26=1.0896       H55-C27=1.0897       H56-C27=1.0892       
H57-C28=1.0885       H58-C28=1.0922       H59-C29=1.0890       H60-C29=1.0889       H61-C30=1.0910       H62-C30=1.0875       
 C  H  Rav=1.0891 sigma=0.0061  Rmin=1.0747  Rmax=1.1051    27
 C  C  Rav=1.4673 sigma=0.0626  Rmin=1.3644  Rmax=1.5438    19
 N  H  Rav=1.0153 sigma=0.0021  Rmin=1.0131  Rmax=1.0174     2
 N  C  Rav=1.3808 sigma=0.0533  Rmin=1.3070  Rmax=1.4623    16
 O  C  Rav=1.2138 sigma=0.0048  Rmin=1.2091  Rmax=1.2186     2

 selected bond angles (degree)
 --------------------
H34-C1-C2=109.95               H35-C1-C2=110.38               H35-C1-H34=110.53              H36-C1-C2=108.11               
H36-C1-H34=109.88              H36-C1-H35=107.93              C3-C2-C1=115.24                O33-C2-C1=122.76               
O33-C2-C3=121.99               C4-C3-C2=121.42                C31-C3-C2=116.50               C31-C3-C4=122.06               
C5-C4-C3=123.31                C6-C4-C3=118.39                C6-C4-C5=118.29                H37-C5-C4=111.48               
H38-C5-C4=110.10               H38-C5-H37=109.20              H39-C5-C4=109.68               H39-C5-H37=108.09              
H39-C5-H38=108.21              C7-C6-C4=124.97                C24-C6-C4=120.09               C24-C6-C7=114.93               
N8-C7-C6=123.42                H40-C7-C6=121.20               H40-C7-N8=115.37               C9-N8-C7=117.08                
N10-C9-N8=113.65               N23-C9-N8=125.12               N23-C9-N10=121.23              C11-N10-C9=131.81              
H41-N10-C9=114.35              H41-N10-C11=113.77             

 selected dihedral angles (degree)
 ---------------------------------
C3-C2-C1-H34=171.13           C3-C2-C1-H35= 48.93           C3-C2-C1-H36=291.09           O33-C2-C1-H34=351.99          
O33-C2-C1-H35=229.79          O33-C2-C1-H36=111.95          C4-C3-C2-C1=229.31            C4-C3-C2-O33= 48.46           
C31-C3-C2-C1= 50.95           C31-C3-C2-O33=230.09          C5-C4-C3-C2=  2.11            C5-C4-C3-C31=180.39           
C6-C4-C3-C2=180.63            C6-C4-C3-C31=358.91           H37-C5-C4-C3=358.90           H37-C5-C4-C6=180.38           
H38-C5-C4-C3=120.26           H38-C5-C4-C6=301.74           H39-C5-C4-C3=239.23           H39-C5-C4-C6= 60.71           
C7-C6-C4-C3=180.10            C7-C6-C4-C5=358.69            C24-C6-C4-C3=  0.50           C24-C6-C4-C5=179.10           
N8-C7-C6-C4=181.04            N8-C7-C6-C24=  0.66           H40-C7-C6-C4=  1.00           H40-C7-C6-C24=180.61          
C9-N8-C7-C6=  0.57            C9-N8-C7-H40=180.61           N10-C9-N8-C7=179.02           N23-C9-N8-C7=358.72           
C11-N10-C9-N8=180.21          C11-N10-C9-N23=  0.50         H41-N10-C9-N8=  3.58          H41-N10-C9-N23=183.87         
           -------------------------------------------------
          |                Final Singlepoint                |
           -------------------------------------------------

          ...................................................
          :                      SETUP                      :
          :.................................................:
          :  # basis functions                 161          :
          :  # atomic orbitals                 161          :
          :  # shells                           95          :
          :  # electrons                       172          :
          :  max. iterations                   250          :
          :  Hamiltonian                  GFN2-xTB          :
          :  restarted?                      false          :
          :  GBSA solvation                  false          :
[...]
    2    7 N      8, 10, 12, 17, 20, 23, 25
    3    8 O      32, 33
    4    1 H      34-62

           -------------------------------------------------
          |                Calculation Setup                |
           -------------------------------------------------

          program call               : xtb /rds/general/user/hgt20/home/callum/QDESCP/Palbociclib_rdkit_conf_5/Palbociclib_rdkit_conf_5.xyz --acc 1 --gfn 2 --chrg 0 --uhf 2 --etemp 300 --input /rds/general/user/hgt20/home/callum/QDESCP/Palbociclib_rdkit_conf_5/Palbociclib_rdkit_conf_5_xtb.inp -P 1
          hostname                   : login-c
          coordinate file            : /rds/general/user/hgt20/home/callum/QDESCP/Palbociclib_rdkit_conf_5/Palbociclib_rdkit_conf_5.xyz
          omp threads                :                     1


           -------------------------------------------------
          |                 G F N 2 - x T B                 |
           -------------------------------------------------

        Reference                      10.1021/acs.jctc.8b01176
      * Hamiltonian:
        H0-scaling (s, p, d)           1.850000    2.230000    2.230000
        zeta-weighting                 0.500000
      * Dispersion:
        s8                             2.700000
        a1                             0.520000
        a2                             5.000000
        s9                             5.000000
      * Repulsion:
        kExp                           1.500000    1.000000
        rExp                           1.000000
      * Coulomb:
        alpha                          2.000000
        third order                    shell-resolved
        anisotropic                    true
        a3                             3.000000
        a5                             4.000000
        cn-shift                       1.200000
        cn-exp                         4.000000
        max-rad                        5.000000


          ...................................................
          :                      SETUP                      :
          :.................................................:
          :  # basis functions                 161          :
          :  # atomic orbitals                 161          :
          :  # shells                           95          :
          :  # electrons                       172          :
          :  max. iterations                   250          :
          :  Hamiltonian                  GFN2-xTB          :
          :  restarted?                      false          :
          :  GBSA solvation                  false          :
          :  PC potential                    false          :
          :  electronic temp.          300.0000000     K    :
          :  accuracy                    1.0000000          :
          :  -> integral cutoff          0.2500000E+02      :
          :  -> integral neglect         0.1000000E-07      :
          :  -> SCF convergence          0.1000000E-05 Eh   :
          :  -> wf. convergence          0.1000000E-03 e    :
          :  Broyden damping             0.4000000          :
          :  net charge                          0          :
          :  unpaired electrons                  2          :
          ...................................................

 iter      E             dE          RMSdq      gap      omega  full diag
   1    -95.8295614 -0.958296E+02  0.361E+00    0.85       0.0  T
   2    -95.6900287  0.139533E+00  0.269E+00    0.46       1.0  T
   3    -95.7895135 -0.994848E-01  0.190E+00    0.82       1.0  T
   4    -96.0168171 -0.227304E+00  0.112E+00    0.27       1.0  T
   5    -96.0484406 -0.316235E-01  0.726E-01    0.65       1.0  T
   6    -96.0482225  0.218133E-03  0.651E-01    0.56       1.0  T
   7    -96.0821198 -0.338973E-01  0.384E-01    0.36       1.0  T
   8    -96.0897902 -0.767040E-02  0.313E-01    0.48       1.0  T
   9    -96.1009144 -0.111243E-01  0.166E-01    0.34       1.0  T
  10    -96.0974663  0.344813E-02  0.188E-01    0.35       1.0  T
  11    -96.1020743 -0.460803E-02  0.946E-02    0.36       1.0  T
  12    -96.1025614 -0.487108E-03  0.576E-02    0.36       1.0  T
  13    -96.1026505 -0.890068E-04  0.399E-02    0.34       1.0  T
  14    -96.1029209 -0.270412E-03  0.134E-02    0.35       1.0  T
  15    -96.1029081  0.128014E-04  0.132E-02    0.36       1.0  T
  16    -96.1029312 -0.230891E-04  0.471E-03    0.35       2.7  T
  17    -96.1029339 -0.272699E-05  0.102E-03    0.35      12.4  T
  18    -96.1029340 -0.132148E-06  0.544E-04    0.35      23.3  T
  19    -96.1029340 -0.329027E-07  0.269E-04    0.35      47.3  T

   *** convergence criteria satisfied after 19 iterations ***

         #    Occupation            Energy/Eh            Energy/eV
      -------------------------------------------------------------
         1        2.0000           -0.6938082             -18.8795
       ...           ...                  ...                  ...
        81        2.0000           -0.3903442             -10.6218
        82        2.0000           -0.3848640             -10.4727
        83        2.0000           -0.3784868             -10.2991
        84        1.8974           -0.3693311             -10.0500
        85        1.7864           -0.3685090             -10.0276
        86        1.3162           -0.3665376              -9.9740
        87        0.9989           -0.2704520              -7.3594 (HOMO)
        88        0.0011           -0.2574645              -7.0060 (LUMO)
        89                         -0.2476598              -6.7392
        90                         -0.2353208              -6.4034
        91                         -0.2143061              -5.8316
        92                         -0.1988354              -5.4106
       ...                                ...                  ...
       161                          0.7130630              19.4034
      -------------------------------------------------------------
                  HL-Gap            0.0129874 Eh            0.3534 eV
             Fermi-level           -0.3156144 Eh           -8.5883 eV

 transition dipole moment (au) for excitation:          86          87
     X       Y       Z   
   2.3625   0.4906   0.3885  total (au/Debye):    2.444   6.212
 dE (eV)             :    2.615
 oscillator strength :  0.54110E+00

 SCC (total)                   0 d,  0 h,  0 min,  0.251 sec
 SCC setup                      ...        0 min,  0.001 sec (  0.263%)
 Dispersion                     ...        0 min,  0.001 sec (  0.369%)
 classical contributions        ...        0 min,  0.000 sec (  0.122%)
 integral evaluation            ...        0 min,  0.044 sec ( 17.356%)
 iterations                     ...        0 min,  0.115 sec ( 45.987%)
 molecular gradient             ...        0 min,  0.079 sec ( 31.444%)
 printout                       ...        0 min,  0.011 sec (  4.456%)

         :::::::::::::::::::::::::::::::::::::::::::::::::::::
         ::                     SUMMARY                     ::
         :::::::::::::::::::::::::::::::::::::::::::::::::::::
         :: total energy             -94.793816095643 Eh    ::
         :: gradient norm              0.097900228505 Eh/a0 ::
         :: HOMO-LUMO gap              0.353406045289 eV    ::
         ::.................................................::
         :: SCC energy               -96.102845517623 Eh    ::
         :: -> isotropic ES            0.109424415931 Eh    ::
         :: -> anisotropic ES          0.006477374033 Eh    ::
         :: -> anisotropic XC          0.048410972307 Eh    ::
         :: -> dispersion             -0.071421623172 Eh    ::
         :: repulsion energy           1.309029421980 Eh    ::
         :: add. restraining           0.000000000000 Eh    ::
         :: total charge               0.000000000001 e     ::
         :::::::::::::::::::::::::::::::::::::::::::::::::::::

           -------------------------------------------------
          |                Property Printout                |
           -------------------------------------------------

    * Orbital Energies and Occupations

         #    Occupation            Energy/Eh            Energy/eV
      -------------------------------------------------------------
         1        2.0000           -0.6938082             -18.8795
       ...           ...                  ...                  ...
        75        2.0000           -0.4269512             -11.6179
        76        2.0000           -0.4196686             -11.4198
        77        2.0000           -0.4173848             -11.3576
        78        2.0000           -0.4108957             -11.1810
        79        2.0000           -0.4016927             -10.9306
        80        2.0000           -0.3949194             -10.7463
        81        2.0000           -0.3903442             -10.6218
        82        2.0000           -0.3848640             -10.4727
        83        2.0000           -0.3784868             -10.2991
        84        1.8974           -0.3693311             -10.0500
        85        1.7864           -0.3685090             -10.0276
        86        1.3162           -0.3665376              -9.9740
        87        0.9989           -0.2704520              -7.3594 (HOMO)
        88        0.0011           -0.2574645              -7.0060 (LUMO)
        89                         -0.2476598              -6.7392
        90                         -0.2353208              -6.4034
        91                         -0.2143061              -5.8316
        92                         -0.1988354              -5.4106
        93                         -0.1434984              -3.9048
        94                         -0.1128409              -3.0706
        95                         -0.0742856              -2.0214
        96                         -0.0327658              -0.8916
        97                         -0.0094732              -0.2578
        98                          0.0121078               0.3295
       ...                                ...                  ...
       161                          0.7130630              19.4034
      -------------------------------------------------------------
                  HL-Gap            0.0129874 Eh            0.3534 eV
             Fermi-level           -0.3156144 Eh           -8.5883 eV

     #   Z          covCN         q      C6AA      α(0)
     1   6 C        3.754    -0.135    23.159     6.862
     2   6 C        2.817     0.244    22.915     7.843
     3   6 C        2.964    -0.075    29.874     8.965
     4   6 C        2.957     0.000    28.021     8.682
     5   6 C        3.758    -0.108    22.617     6.780
     6   6 C        2.979    -0.038    28.933     8.823
     7   6 C        2.920     0.042    27.052     8.529
     8   7 N        1.851    -0.266    27.768     7.810
     9   6 C        2.881     0.213    23.508     7.949
    10   7 N        2.726    -0.120    23.610     7.217
    11   6 C        2.890     0.144    24.863     8.175
    12   7 N        1.852    -0.253    27.451     7.765
    13   6 C        2.906     0.039    27.134     8.541
    14   6 C        2.906     0.041    27.085     8.534
    15   6 C        2.934    -0.039    28.963     8.826
    16   6 C        2.911    -0.053    29.308     8.877
    17   7 N        2.738    -0.089    22.980     7.120
    18   6 C        3.754    -0.005    20.720     6.491
    19   6 C        3.757     0.003    20.588     6.469
    20   7 N        2.678    -0.241    26.297     7.616
    21   6 C        3.757     0.002    20.594     6.470
    22   6 C        3.755    -0.002    20.677     6.484
    23   7 N        1.846    -0.308    28.844     7.960
    24   6 C        2.923     0.163    24.492     8.116
    25   7 N        2.749    -0.081    22.815     7.094
    26   6 C        3.820     0.042    19.849     6.340
    27   6 C        3.828    -0.060    21.635     6.618
    28   6 C        3.829    -0.055    21.540     6.604
    29   6 C        3.829    -0.061    21.642     6.619
    30   6 C        3.820    -0.057    21.577     6.611
    31   6 C        2.774     0.258    22.661     7.797
    32   8 O        0.859    -0.441    22.522     6.363
    33   8 O        0.857    -0.369    21.071     6.154
    34   1 H        0.925     0.060     2.197     2.318
    35   1 H        0.925     0.052     2.292     2.368
    36   1 H        0.925     0.098     1.802     2.099
    37   1 H        0.925     0.064     2.152     2.294
    38   1 H        0.925     0.041     2.430     2.438
    39   1 H        0.925     0.051     2.308     2.376
    40   1 H        0.926     0.044     2.391     2.418
    41   1 H        0.860     0.215     1.030     1.590
    42   1 H        0.926     0.040     2.445     2.445
    43   1 H        0.926     0.039     2.456     2.451
    44   1 H        0.926     0.071     2.073     2.252
    45   1 H        0.923     0.030     2.580     2.512
    46   1 H        0.925     0.052     2.293     2.368
    47   1 H        0.924     0.054     2.268     2.355
    48   1 H        0.924     0.048     2.350     2.397
    49   1 H        0.860     0.143     1.450     1.886
    50   1 H        0.924     0.047     2.354     2.400
    51   1 H        0.924     0.055     2.264     2.353
    52   1 H        0.922     0.031     2.579     2.511
    53   1 H        0.925     0.053     2.284     2.363
    54   1 H        0.925     0.059     2.210     2.325
    55   1 H        0.925     0.027     2.633     2.538
    56   1 H        0.925     0.061     2.186     2.312
    57   1 H        0.925     0.035     2.512     2.479
    58   1 H        0.924     0.026     2.642     2.542
    59   1 H        0.925     0.063     2.163     2.300
    60   1 H        0.925     0.029     2.607     2.525
    61   1 H        0.924     0.027     2.630     2.536
    62   1 H        0.925     0.049     2.332     2.388

 Mol. C6AA /au·bohr⁶  :      42285.801162
 Mol. C8AA /au·bohr⁸  :     981965.293079
 Mol. α(0) /au        :        315.242988


Wiberg/Mayer (AO) data.
largest (>0.10) Wiberg bond orders for each atom

 ---------------------------------------------------------------------------
     #   Z sym  total        # sym  WBO       # sym  WBO       # sym  WBO
 ---------------------------------------------------------------------------
     1   6 C    3.967 --     2 C    0.996    34 H    0.982    35 H    0.969
                            36 H    0.941
     2   6 C    3.891 --    33 O    1.776     3 C    1.019     1 C    0.996
     3   6 C    3.817 --     4 C    1.386    31 C    1.120     2 C    1.019
     4   6 C    3.890 --     3 C    1.386     6 C    1.253     5 C    1.026
     5   6 C    3.986 --     4 C    1.026    37 H    0.978    38 H    0.969
                            39 H    0.967
     6   6 C    3.886 --     4 C    1.253     7 C    1.212    24 C    1.204
     7   6 C    3.872 --     8 N    1.467     6 C    1.212    40 H    0.952
     8   7 N    2.973 --     7 C    1.467     9 C    1.277
     9   6 C    3.913 --     8 N    1.277    23 N    1.256    10 N    1.168
    10   7 N    3.473 --     9 C    1.168    11 C    1.152    41 H    0.919
    11   6 C    3.902 --    12 N    1.295    16 C    1.283    10 N    1.152
    12   7 N    2.997 --    13 C    1.467    11 C    1.295
    13   6 C    3.938 --    12 N    1.467    14 C    1.317    42 H    0.957
    14   6 C    3.896 --    13 C    1.317    15 C    1.277    17 N    1.139
    15   6 C    3.940 --    16 C    1.531    14 C    1.277    43 H    0.963
    16   6 C    3.961 --    15 C    1.531    11 C    1.283    44 H    0.951
    17   7 N    3.297 --    14 C    1.139    18 C    1.002    22 C    0.992
    18   6 C    3.973 --    17 N    1.002    19 C    0.978    46 H    0.969
                            45 H    0.960
    19   6 C    3.978 --    20 N    1.024    18 C    0.978    48 H    0.973
                            47 H    0.971
    20   7 N    3.082 --    19 C    1.024    21 C    1.021    49 H    0.954
    21   6 C    3.980 --    20 N    1.021    22 C    0.983    50 H    0.973
                            51 H    0.970
    22   6 C    3.970 --    17 N    0.992    21 C    0.983    53 H    0.967
                            52 H    0.959
    23   7 N    2.966 --    24 C    1.357     9 C    1.256
    24   6 C    3.946 --    23 N    1.357     6 C    1.204    25 N    1.201
    25   7 N    3.556 --    24 C    1.201    31 C    1.070    26 C    0.957
                            32 O    0.106
    26   6 C    3.947 --    27 C    0.983    30 C    0.982    25 N    0.957
                            54 H    0.950
    27   6 C    3.989 --    28 C    1.007    26 C    0.983    55 H    0.980
                            56 H    0.972
    28   6 C    3.997 --    29 C    1.007    27 C    1.007    58 H    0.980
                            57 H    0.979
    29   6 C    3.994 --    28 C    1.007    30 C    1.006    60 H    0.980
                            59 H    0.976
    30   6 C    3.992 --    29 C    1.006    26 C    0.982    61 H    0.981
                            62 H    0.977
    31   6 C    3.931 --    32 O    1.607     3 C    1.120    25 N    1.070
    32   8 O    1.910 --    31 C    1.607    25 N    0.106
    33   8 O    1.992 --     2 C    1.776
    34   1 H    0.994 --     1 C    0.982
    35   1 H    0.996 --     1 C    0.969
    36   1 H    0.988 --     1 C    0.941
    37   1 H    0.995 --     5 C    0.978
    38   1 H    0.994 --     5 C    0.969
    39   1 H    0.994 --     5 C    0.967
    40   1 H    0.985 --     7 C    0.952
    41   1 H    0.952 --    10 N    0.919
    42   1 H    0.996 --    13 C    0.957
    43   1 H    0.997 --    15 C    0.963
    44   1 H    0.993 --    16 C    0.951
    45   1 H    0.988 --    18 C    0.960
    46   1 H    0.997 --    18 C    0.969
    47   1 H    0.996 --    19 C    0.971
    48   1 H    0.997 --    19 C    0.973
    49   1 H    0.979 --    20 N    0.954
    50   1 H    0.997 --    21 C    0.973
    51   1 H    0.996 --    21 C    0.970
    52   1 H    0.988 --    22 C    0.959
    53   1 H    0.997 --    22 C    0.967
    54   1 H    0.994 --    26 C    0.950
    55   1 H    0.999 --    27 C    0.980
    56   1 H    0.995 --    27 C    0.972
    57   1 H    0.998 --    28 C    0.979
    58   1 H    0.999 --    28 C    0.980
    59   1 H    0.996 --    29 C    0.976
    60   1 H    0.999 --    29 C    0.980
    61   1 H    0.998 --    30 C    0.981
    62   1 H    0.997 --    30 C    0.977
 ---------------------------------------------------------------------------

Topologies differ in total number of bonds
Writing topology from bond orders to xtbtopo.mol

molecular dipole:
                 x           y           z       tot (Debye)
 q only:        5.181      -1.273       0.515
   full:        4.927      -1.296       0.982      13.186
molecular quadrupole (traceless):
                xx          xy          yy          xz          yz          zz
 q only:       -2.049       5.247       2.553     -13.293       2.238      -0.505
  q+dip:       -5.042       4.182       1.657      -7.305      -1.445       3.384
   full:       -7.631       4.440       1.454      -8.640      -4.185       6.178


           -------------------------------------------------
          | TOTAL ENERGY              -94.793816095643 Eh   |
          | GRADIENT NORM               0.097900228505 Eh/α |
          | HOMO-LUMO GAP               0.353406045289 eV   |
           -------------------------------------------------

------------------------------------------------------------------------
 * finished run on 2025/05/15 at 16:04:55.412     
------------------------------------------------------------------------
 total:
 * wall-time:     0 d,  0 h,  0 min,  0.271 sec
 *  cpu-time:     0 d,  0 h,  0 min,  0.179 sec
 * ratio c/w:     0.659 speedup
 SCF:
 * wall-time:     0 d,  0 h,  0 min,  0.251 sec
 *  cpu-time:     0 d,  0 h,  0 min,  0.161 sec
 * ratio c/w:     0.639 speedup


