42
 energy: -62.291222709843 gnorm: 0.000754459113 xtb: 6.7.1 (edcfbbe)
C            3.05619451864983        2.26857580227206        1.34910874941430
C            3.22228304974775        0.80280955393942        1.75715866318088
C            3.00135650603068       -0.11356546443533        0.58656883996965
C            4.04388419918455       -0.71058019918844       -0.09475306400138
C            3.83072511373639       -1.53749003372408       -1.20150209798467
C            2.56442499026381       -1.79435907692609       -1.67234242344473
C            1.48396700136533       -1.20660200996288       -1.01392191014827
C            1.71698259589274       -0.37454146601919        0.10878831414249
N            0.50633381052510        0.05993799111351        0.57094273340246
C           -0.47998600038689       -0.44554960690756       -0.23370454779536
C            0.07321362021656       -1.22646868454983       -1.21006588919461
C           -0.77054645544880       -1.89363932142093       -2.24306558690718
C           -2.10175258130488       -1.13677415002650       -2.27675720251779
O           -2.66980317538274       -1.00286969119163       -0.99061143083983
C           -1.94902586515537       -0.19872606572632       -0.06649231594100
C           -2.41522124168996       -0.64819288940300        1.33210693069108
C           -3.92405130926333       -0.54262242834876        1.51931443050363
C           -2.29293814681820        1.30633674290504       -0.33959122864305
C           -2.22576049903398        2.21031663875656        0.85617894969198
O           -0.96833121279809        2.43017524918784        1.29136869412292
O           -3.16725751235247        2.73135842118529        1.38935834023748
H            3.78632735748726        2.52780495331161        0.58588858406695
H            2.06352978574083        2.44787906623297        0.94188679924657
H            3.20475019752779        2.92226955573401        2.20611529202540
H            4.22896222578955        0.65231884889763        2.15146227096851
H            2.51145815512759        0.56256515902127        2.55294157274622
H            5.05682695374049       -0.53574493745866        0.23901527120086
H            4.68547628505211       -1.97999522997387       -1.69210597237738
H            2.40422646405280       -2.43374777087344       -2.52734162063212
H            0.36046360292035        0.72871989179635        1.30608682499164
H           -0.94527202246603       -2.94000590185317       -1.97609849152411
H           -0.29505720157830       -1.86520862187957       -3.22470090865460
H           -2.85207720850400       -1.67873781690801       -2.85653935974194
H           -1.94940078348237       -0.14800528107567       -2.73222465071871
H           -1.89793887752975       -0.05794907019567        2.09119991882863
H           -2.11106498681981       -1.69045614939162        1.44923759908639
H           -4.24927617466305        0.49366552048113        1.51978107654855
H           -4.20845487936309       -0.99214212087044        2.46787713118699
H           -4.42814925089333       -1.07060009152930        0.71547564873290
H           -3.31213368741253        1.34112006486299       -0.72575565418700
H           -1.60275248227462        1.68845487498288       -1.09440549057088
H           -0.98533487843132        3.05026574516007        2.03821721083683
