98
 energy: -148.193879316261 gnorm: 0.000613182694 xtb: 6.7.1 (edcfbbe)
O           -5.14447548012934       -1.36746424263074        0.39405578977852
C           -4.55196894789607       -1.68841828625166       -0.60815028971370
N           -3.38336157241363       -2.34268120934430       -0.65653589539704
C           -2.55228505695340       -2.51858922858407        0.51216851638566
C           -2.18601175152087       -3.99996027034794        0.68359464180143
C           -3.43327503666350       -4.82042884338563        0.83456884636707
C           -4.03331971998805       -5.41309531287150       -0.26826648309858
C           -5.21251807006276       -6.12441138353531       -0.13186915517012
C           -5.80799721267861       -6.24980431986235        1.11129452654454
C           -5.21794463214811       -5.66048534608991        2.21671327801904
C           -4.04000430510360       -4.94932455387041        2.07759319318522
C           -1.29173683746706       -1.64326493525960        0.37413705301775
C           -1.65553232979827       -0.14276697588000        0.34347229766193
C           -1.46381960013619        0.54938559783079        1.69708132336688
N           -0.05307551816530        0.58655545789040        2.02123528836349
C            0.59397593363843       -0.32412774190198        2.76863434914676
C            2.13100085196793       -0.26024224942712        2.66476139835165
N            2.60135430033247        0.54063798457796        1.55223474765289
C            2.35969008826931        0.17067729885564        0.25983437295367
N            2.71701918267348        1.07983898621927       -0.69110192497035
C            3.58009031258938        2.20972246233743       -0.42639396810941
C            2.47631670704165        0.75138091114610       -2.08652551699504
C            3.71897922602305        0.23023476901455       -2.74032221228349
C            4.04579638836857       -1.08234539685936       -2.88738358141870
S            5.59163121384770       -1.23949552132034       -3.61939416345974
C            5.69578310556540        0.50970317594713       -3.66756839871501
C            6.88906771610637        1.20036601803589       -4.23472474817469
C            6.49795930265272        1.91844590041104       -5.52935399304245
C            7.44848597886192        2.19177222520940       -3.21239851036218
N            4.66406425775810        1.10243782187501       -3.18347158075931
O            1.82631927051449       -0.89534409768463       -0.01906811278000
C            2.75755227729121        0.25236151139981        3.97480744311224
C            2.07720940955658        1.53816102336020        4.44405144011699
C            2.67694089355072       -0.81861289285118        5.05833985651685
O            0.03873793597826       -1.12602700782199        3.49176376416930
C           -2.01200020117032        1.99196202812552        1.68468884745664
C           -1.17748342704854        2.88275296521979        0.80960861664595
C           -0.10278407950054        3.58518297538143        1.34610183391519
C            0.71204018311976        4.36104478634877        0.53986187260736
C            0.46979011710044        4.43892964042438       -0.82131788358898
C           -0.60375512612126        3.75330850581057       -1.36396413330657
C           -1.42256800216319        2.98581131470687       -0.55447166922710
O           -0.61971522276721       -2.02315579951372       -0.80885553602786
O           -5.00813981240454       -1.42665587884924       -1.86960331793624
C           -6.14622436065641       -0.57166940722126       -1.92967717309967
C           -5.73947399630267        0.84822939367729       -1.70860246579382
C           -5.48229895651281        1.46783146848612       -0.52055259715480
N           -5.03410975381435        2.74009033306101       -0.61092984973860
C           -4.93935494245714        3.12259224539110       -1.83079942074934
S           -5.38939177705044        1.93457043110600       -3.01324986539634
H           -2.92763572617600       -2.46723274891910       -1.54777097875509
H           -3.13867694475845       -2.18013107661044        1.37155536175148
H           -1.61461102302658       -4.31460299002381       -0.19057171159045
H           -1.55613470265512       -4.09464498908185        1.56895380614212
H           -3.57201271916798       -5.31833801910197       -1.24109074632671
H           -5.66897451508274       -6.58135838728735       -0.99852617320596
H           -6.72903154831371       -6.80442693976300        1.21858136722076
H           -5.67922999590765       -5.75380931810821        3.18935195761914
H           -3.58310376523772       -4.48739279027040        2.94115674977504
H           -0.65142482738418       -1.84610651886534        1.23889149272922
H           -2.69011903454424       -0.02008948673371        0.02129288598340
H           -1.01484600056566        0.34326945252172       -0.39718063973590
H           -1.96264778746659       -0.02882591793659        2.48037991690653
H            0.49250288701988        1.17186987465962        1.40580087021937
H            2.45377113814624       -1.29374114510189        2.48823039784973
H            2.86783026540587        1.48881052989420        1.75580935252240
H            4.02230219005489        2.52524671049430       -1.36949230912714
H            3.01399164758171        3.04641552430938       -0.00469454104995
H            4.39371665066810        1.93696313073178        0.24938800976107
H            2.13707517646184        1.65609308236008       -2.59834758920321
H            1.69549452702943       -0.00973169981023       -2.11746410543139
H            3.47327410539021       -1.94195056878580       -2.60569554971584
H            7.64801197871687        0.44427404149326       -4.45996453341663
H            7.36176432664773        2.42921668185856       -5.94732288930974
H            5.71923729184689        2.64871261679154       -5.32563403230579
H            6.12519156308826        1.20783652366020       -6.26343359918066
H            8.31952854990691        2.69760363006665       -3.62108722378201
H            7.74128630206227        1.67637159465939       -2.30047219640821
H            6.69233008739700        2.93219267476782       -2.96593036125370
H            3.81389494157887        0.46507036035618        3.76638399008068
H            2.58842061438642        1.93203167345512        5.31949976201559
H            2.09039022985757        2.30603465434409        3.67182635555671
H            1.04331026861502        1.33624710071038        4.71334771630683
H            1.64375889702906       -1.12046871894278        5.20526115177280
H            3.25343489980629       -1.69535523048858        4.77353497497607
H            3.07046443536477       -0.43562660974926        5.99686192205007
H           -3.04206302492608        1.97371172885691        1.32909622686796
H           -2.00405280270240        2.37380930017258        2.70693443147355
H            0.08562295331500        3.53351575080966        2.40980322340165
H            1.53190198772412        4.91525502757827        0.97671497667226
H            1.10747500446294        5.03995601940743       -1.45284657467825
H           -0.80617643898664        3.82035740763191       -2.42301704788232
H           -2.26939599212636        2.47097083546623       -0.98115109562490
H            0.30724698390305       -1.75344633233482       -0.70528337745977
H           -6.86484899752251       -0.87277667699498       -1.15847725350066
H           -6.56993296823886       -0.71492686832208       -2.92453480907080
H           -5.60922746367929        1.01178842104363        0.44453799053846
H           -4.60466254943992        4.09624235461431       -2.12855640431561
