----- Optimization -----
      -----------------------------------------------------------      
     |                   =====================                   |     
     |                           x T B                           |     
     |                   =====================                   |     
     |                         S. Grimme                         |     
     |          Mulliken Center for Theoretical Chemistry        |     
     |                    University of Bonn                     |     
      -----------------------------------------------------------      

   * xtb version 6.7.1 (edcfbbe) compiled by 'conda@3ef47c1a292c' on 2024-11-25

   xtb is free software: you can redistribute it and/or modify it under
   the terms of the GNU Lesser General Public License as published by
   the Free Software Foundation, either version 3 of the License, or
   (at your option) any later version.
   
   xtb is distributed in the hope that it will be useful,
   but WITHOUT ANY WARRANTY; without even the implied warranty of
   MERCHANTABILITY or FITNESS FOR A PARTICULAR PURPOSE.  See the
   GNU Lesser General Public License for more details.
   
   Cite this work as:
   * C. Bannwarth, E. Caldeweyher, S. Ehlert, A. Hansen, P. Pracht,
     J. Seibert, S. Spicher, S. Grimme, WIREs Comput. Mol. Sci., 2020, 11,
     e01493. DOI: 10.1002/wcms.1493
   
   for GFN2-xTB:
   * C. Bannwarth, S. Ehlert and S. Grimme., J. Chem. Theory Comput., 2019,
     15, 1652-1671. DOI: 10.1021/acs.jctc.8b01176
   for GFN1-xTB:
   * S. Grimme, C. Bannwarth, P. Shushkov, J. Chem. Theory Comput., 2017,
     13, 1989-2009. DOI: 10.1021/acs.jctc.7b00118
   for GFN0-xTB:
   * P. Pracht, E. Caldeweyher, S. Ehlert, S. Grimme, ChemRxiv, 2019, preprint.
     DOI: 10.26434/chemrxiv.8326202.v1
   for GFN-FF:
   * S. Spicher and S. Grimme, Angew. Chem. Int. Ed., 2020, 59, 15665-15673.
     DOI: 10.1002/anie.202004239
   
   for ALPB and GBSA implicit solvation:
   * S. Ehlert, M. Stahn, S. Spicher, S. Grimme, J. Chem. Theory Comput.,
     2021, 17, 4250-4261. DOI: 10.1021/acs.jctc.1c00471
   
   for ddCOSMO and CPCM-X implicit solvation:
   * M. Stahn, S. Ehlert, S. Grimme, J. Phys. Chem. A,
     2023, XX, XXXX-XXXX. DOI: 10.1021/acs.jpca.3c04382
   
   for DFT-D4:
   * E. Caldeweyher, C. Bannwarth and S. Grimme, J. Chem. Phys., 2017,
     147, 034112. DOI: 10.1063/1.4993215
   * E. Caldeweyher, S. Ehlert, A. Hansen, H. Neugebauer, S. Spicher,
     C. Bannwarth and S. Grimme, J. Chem. Phys., 2019, 150, 154122.
     DOI: 10.1063/1.5090222
   * E. Caldeweyher, J.-M. Mewes, S. Ehlert and S. Grimme, Phys. Chem. Chem. Phys.
     2020, 22, 8499-8512. DOI: 10.1039/D0CP00502A
   
   for sTDA-xTB:
   * S. Grimme and C. Bannwarth, J. Chem. Phys., 2016, 145, 054103.
     DOI: 10.1063/1.4959605
   
   in the mass-spec context:
   * V. Asgeirsson, C. Bauer and S. Grimme, Chem. Sci., 2017, 8, 4879.
     DOI: 10.1039/c7sc00601b
   * J. Koopman and S. Grimme, ACS Omega 2019, 4, 12, 15120-15133.
     DOI: 10.1021/acsomega.9b02011
   
   for metadynamics refer to:
   * S. Grimme, J. Chem. Theory Comput., 2019, 155, 2847-2862
     DOI: 10.1021/acs.jctc.9b00143
   
   for SPH calculations refer to:
   * S. Spicher and S. Grimme, J. Chem. Theory Comput., 2021, 17, 1701-1714
     DOI: 10.1021/acs.jctc.0c01306
   
   for ONIOM refer to:
   * C. Plett, A. Katbashev, S. Ehlert, S. Grimme, M. Bursch,
     Phys. Chem. Chem. Phys., 2023, 25, 17860-17868. DOI: 10.1039/D3CP02178E
   
   for DIPRO refer to:
   * J. Kohn, N. Gildemeister, S. Grimme, D. Fazzi, A. Hansen,
     J. Chem. Phys., 2023, just accepted.
   
   for PTB refer to:
   * S. Grimme, M. Mueller, A. Hansen, J. Chem. Phys., 2023, 158, 124111.
     DOI: 10.1063/5.0137838
   
   with help from (in alphabetical order)
   P. Atkinson, C. Bannwarth, F. Bohle, G. Brandenburg, E. Caldeweyher
   M. Checinski, S. Dohm, S. Ehlert, S. Ehrlich, I. Gerasimov, C. Hölzer
   A. Katbashev, J. Kohn, J. Koopman, C. Lavigne, S. Lehtola, F. März, M. Müller,
   F. Musil, H. Neugebauer, J. Pisarek, C. Plett, P. Pracht, F. Pultar,
   J. Seibert, P. Shushkov, S. Spicher, M. Stahn, M. Steiner, T. Strunk,
   J. Stückrath, T. Rose, and J. Unsleber
   
 * started run on 2025/05/15 at 16:21:30.272     
   ID    Z sym.   atoms
    1    8 O      1, 31, 35, 43, 44
    2    6 C      2, 4-14, 16, 17, 19, 21-24, 26-29, 32-34, 36-42, 45-47, 49
    3    7 N      3, 15, 18, 20, 30, 48
    4   16 S      25, 50
    5    1 H      51-98

           -------------------------------------------------
          |                Calculation Setup                |
           -------------------------------------------------

          program call               : xtb /rds/general/user/hgt20/home/callum/QDESCP/Ritonavir_rdkit_conf_10/Ritonavir_rdkit_conf_10.xyz --opt normal --acc 1 --gfn 2 --chrg 0 --uhf 0 -P 1
          hostname                   : login-c
          coordinate file            : /rds/general/user/hgt20/home/callum/QDESCP/Ritonavir_rdkit_conf_10/Ritonavir_rdkit_conf_10.xyz
          omp threads                :                     1


           -------------------------------------------------
          |                 G F N 2 - x T B                 |
           -------------------------------------------------

        Reference                      10.1021/acs.jctc.8b01176
      * Hamiltonian:
        H0-scaling (s, p, d)           1.850000    2.230000    2.230000
        zeta-weighting                 0.500000
      * Dispersion:
        s8                             2.700000
        a1                             0.520000
        a2                             5.000000
        s9                             5.000000
      * Repulsion:
        kExp                           1.500000    1.000000
        rExp                           1.000000
      * Coulomb:
        alpha                          2.000000
        third order                    shell-resolved
        anisotropic                    true
        a3                             3.000000
        a5                             4.000000
        cn-shift                       1.200000
        cn-exp                         4.000000
        max-rad                        5.000000


          ...................................................
          :                      SETUP                      :
          :.................................................:
          :  # basis functions                 260          :
          :  # atomic orbitals                 258          :
          :  # shells                          150          :
          :  # electrons                       268          :
          :  max. iterations                   250          :
          :  Hamiltonian                  GFN2-xTB          :
          :  restarted?                      false          :
          :  GBSA solvation                  false          :
          :  PC potential                    false          :
          :  electronic temp.          300.0000000     K    :
          :  accuracy                    1.0000000          :
          :  -> integral cutoff          0.2500000E+02      :
          :  -> integral neglect         0.1000000E-07      :
          :  -> SCF convergence          0.1000000E-05 Eh   :
          :  -> wf. convergence          0.1000000E-03 e    :
          :  Broyden damping             0.4000000          :
          :  net charge                          0          :
          :  unpaired electrons                  0          :
          ...................................................

 iter      E             dE          RMSdq      gap      omega  full diag
   1   -149.8064252 -0.149806E+03  0.385E+00    2.91       0.0  T
   2   -150.0261215 -0.219696E+00  0.215E+00    3.22       1.0  T
   3   -150.0268574 -0.735885E-03  0.989E-01    3.26       1.0  T
   4   -150.0314864 -0.462903E-02  0.397E-01    2.96       1.0  T
   5   -150.0426396 -0.111533E-01  0.136E-01    2.92       1.0  T
   6   -150.0433534 -0.713786E-03  0.585E-02    2.94       1.0  T
   7   -150.0434322 -0.788172E-04  0.275E-02    2.94       1.0  T
   8   -150.0434608 -0.286011E-04  0.108E-02    2.95       1.0  T
   9   -150.0434630 -0.212778E-05  0.439E-03    2.95       2.3  T
  10   -150.0434633 -0.355404E-06  0.163E-03    2.95       6.2  T
  11   -150.0434634 -0.599247E-07  0.809E-04    2.95      12.5  T
  12   -150.0434634 -0.234873E-07  0.385E-04    2.95      26.3  T

   *** convergence criteria satisfied after 12 iterations ***

         #    Occupation            Energy/Eh            Energy/eV
      -------------------------------------------------------------
         1        2.0000           -0.7469510             -20.3256
       ...           ...                  ...                  ...
       128        2.0000           -0.3986916             -10.8490
       129        2.0000           -0.3930284             -10.6948
       130        2.0000           -0.3909705             -10.6389
       131        2.0000           -0.3885814             -10.5738
       132        2.0000           -0.3852074             -10.4820
       133        2.0000           -0.3818733             -10.3913
       134        2.0000           -0.3767143             -10.2509 (HOMO)
       135                         -0.2681600              -7.2970 (LUMO)
       136                         -0.2637393              -7.1767
       137                         -0.2264164              -6.1611
       138                         -0.2260485              -6.1511
       139                         -0.2132476              -5.8028
       ...                                ...                  ...
       258                          0.6485317              17.6474
      -------------------------------------------------------------
                  HL-Gap            0.1085543 Eh            2.9539 eV
             Fermi-level           -0.3224371 Eh           -8.7740 eV

 SCC (total)                   0 d,  0 h,  0 min,  0.422 sec
 SCC setup                      ...        0 min,  0.002 sec (  0.363%)
 Dispersion                     ...        0 min,  0.002 sec (  0.513%)
 classical contributions        ...        0 min,  0.001 sec (  0.178%)
 integral evaluation            ...        0 min,  0.029 sec (  6.842%)
 iterations                     ...        0 min,  0.190 sec ( 45.088%)
 molecular gradient             ...        0 min,  0.197 sec ( 46.754%)
 printout                       ...        0 min,  0.001 sec (  0.258%)

         :::::::::::::::::::::::::::::::::::::::::::::::::::::
         ::                     SUMMARY                     ::
         :::::::::::::::::::::::::::::::::::::::::::::::::::::
         :: total energy            -148.163600480711 Eh    ::
         :: gradient norm              0.116827489726 Eh/a0 ::
         :: HOMO-LUMO gap              2.953913248212 eV    ::
         ::.................................................::
         :: SCC energy              -150.039148561511 Eh    ::
         :: -> isotropic ES            0.193902103776 Eh    ::
         :: -> anisotropic ES          0.013452210809 Eh    ::
         :: -> anisotropic XC          0.066213141718 Eh    ::
         :: -> dispersion             -0.116868206897 Eh    ::
         :: repulsion energy           1.875548080800 Eh    ::
         :: add. restraining           0.000000000000 Eh    ::
         :: total charge               0.000000000000 e     ::
         :::::::::::::::::::::::::::::::::::::::::::::::::::::

      ----------------------------------------------------------- 
     |                   =====================                   |
     |                        A N C O P T                        |
     |                   =====================                   |
     |               Approximate Normal Coordinate               |
     |                Rational Function Optimizer                |
      ----------------------------------------------------------- 
      ----------------------------------------------------------- 
     |                   =====================                   |
     |                        A N C O P T                        |
     |                   =====================                   |
     |               Approximate Normal Coordinate               |
     |                Rational Function Optimizer                |
      ----------------------------------------------------------- 

          ...................................................
          :                      SETUP                      :
          :.................................................:
          :   optimization level            normal          :
          :   max. optcycles                   294          :
          :   ANC micro-cycles                  20          :
          :   degrees of freedom               288          :
          :.................................................:
          :   RF solver                   davidson          :
          :   write xtbopt.log                true          :
          :   linear?                        false          :
          :   energy convergence         0.5000000E-05 Eh   :
          :   grad. convergence          0.1000000E-02 Eh/α :
          :   maxmium RF displ.          1.0000000          :
          :   Hlow (freq-cutoff)         0.1000000E-01      :
          :   Hmax (freq-cutoff)         5.0000000          :
          :   S6 in model hess.         20.0000000          :
          ...................................................

generating ANC from exact Hessian ...
Using Lindh-Hessian (1995)
 Shifting diagonal of input Hessian by    9.9837581868982995E-003
 Lowest  eigenvalues of input Hessian
    0.000000    0.000000    0.000000    0.000000    0.000000    0.000000
    0.010000    0.010017    0.010075    0.010132    0.010192    0.010211
    0.010330    0.010340    0.010392    0.010495    0.010559    0.010617
 Highest eigenvalues
    1.944773    2.019827    2.078082    2.198183    2.368559    2.467445


........................................................................
.............................. CYCLE    1 ..............................
........................................................................

 iter      E             dE          RMSdq      gap      omega  full diag
   1   -150.0434634 -0.150043E+03  0.122E-04    2.95       0.0  T
   2   -150.0434634 -0.413110E-09  0.831E-05    2.95     121.6  T
   3   -150.0434634 -0.268841E-09  0.468E-05    2.95     215.7  T
     SCC iter.                  ...        0 min,  0.058 sec
     gradient                   ...        0 min,  0.190 sec
 * total energy  :  -148.1636005 Eh     change       -0.3263722E-08 Eh
   gradient norm :     0.1168330 Eh/α   predicted     0.0000000E+00 (-100.00%)
   displ. norm   :     0.3627840 α      lambda       -0.2308847E-01
   maximum displ.:     0.0784451 α      in ANC's #74, #73, #65, ...

........................................................................
.............................. CYCLE    2 ..............................
........................................................................

 iter      E             dE          RMSdq      gap      omega  full diag
   1   -150.1414228 -0.150141E+03  0.167E-01    3.01       0.0  T
   2   -150.1416959 -0.273097E-03  0.105E-01    3.00       1.0  T
   3   -150.1416585  0.374678E-04  0.627E-02    3.02       1.0  T
   4   -150.1417920 -0.133552E-03  0.251E-02    3.02       1.0  T
   5   -150.1418277 -0.356581E-04  0.535E-03    3.02       1.9  T
   6   -150.1418282 -0.514339E-06  0.282E-03    3.02       3.6  T
   7   -150.1418284 -0.213892E-06  0.112E-03    3.02       9.0  T
   8   -150.1418284 -0.289983E-07  0.499E-04    3.02      20.2  T
   9   -150.1418284 -0.407897E-08  0.209E-04    3.02      48.4  T
     SCC iter.                  ...        0 min,  0.167 sec
     gradient                   ...        0 min,  0.182 sec
 * total energy  :  -148.1793869 Eh     change       -0.1578642E-01 Eh
   gradient norm :     0.0479927 Eh/α   predicted    -0.1307448E-01 ( -17.18%)
   displ. norm   :     0.3484763 α      lambda       -0.6755707E-02
   maximum displ.:     0.0867806 α      in ANC's #28, #55, #37, ...

........................................................................
.............................. CYCLE    3 ..............................
........................................................................

 iter      E             dE          RMSdq      gap      omega  full diag
   1   -150.1884340 -0.150188E+03  0.111E-01    3.03       0.0  T
   2   -150.1886343 -0.200239E-03  0.701E-02    3.03       1.0  T
   3   -150.1886580 -0.237090E-04  0.406E-02    3.04       1.0  T
   4   -150.1886861 -0.280921E-04  0.203E-02    3.04       1.0  T
   5   -150.1887088 -0.227808E-04  0.352E-03    3.05       2.9  T
   6   -150.1887092 -0.337017E-06  0.187E-03    3.05       5.4  T
   7   -150.1887093 -0.108882E-06  0.681E-04    3.05      14.8  T
   8   -150.1887093 -0.832122E-08  0.294E-04    3.05      34.4  T
     SCC iter.                  ...        0 min,  0.117 sec
     gradient                   ...        0 min,  0.204 sec
 * total energy  :  -148.1835664 Eh     change       -0.4179541E-02 Eh
   gradient norm :     0.0175663 Eh/α   predicted    -0.3791199E-02 (  -9.29%)
   displ. norm   :     0.3010565 α      lambda       -0.1672538E-02
   maximum displ.:     0.1004383 α      in ANC's #13, #28, #37, ...

........................................................................
.............................. CYCLE    4 ..............................
........................................................................

 iter      E             dE          RMSdq      gap      omega  full diag
   1   -150.1946988 -0.150195E+03  0.573E-02    3.03       0.0  T
   2   -150.1947480 -0.491997E-04  0.338E-02    3.03       1.0  T
   3   -150.1947471  0.901336E-06  0.182E-02    3.03       1.0  T
   4   -150.1947515 -0.444475E-05  0.914E-03    3.04       1.1  T
   5   -150.1947574 -0.583470E-05  0.147E-03    3.04       6.9  T
   6   -150.1947574 -0.473819E-07  0.814E-04    3.04      12.4  T
   7   -150.1947574 -0.250306E-07  0.279E-04    3.04      36.2  T
     SCC iter.                  ...        0 min,  0.128 sec
     gradient                   ...        0 min,  0.208 sec
 * total energy  :  -148.1848177 Eh     change       -0.1251307E-02 Eh
   gradient norm :     0.0106749 Eh/α   predicted    -0.9120829E-03 ( -27.11%)
   displ. norm   :     0.4115537 α      lambda       -0.1368196E-02
   maximum displ.:     0.1713950 α      in ANC's #13, #37, #22, ...

........................................................................
.............................. CYCLE    5 ..............................
........................................................................

 iter      E             dE          RMSdq      gap      omega  full diag
   1   -150.1938967 -0.150194E+03  0.667E-02    3.02       0.0  T
   2   -150.1939395 -0.427796E-04  0.384E-02    3.02       1.0  T
   3   -150.1939366  0.288311E-05  0.168E-02    3.03       1.0  T
   4   -150.1939411 -0.451570E-05  0.696E-03    3.03       1.5  T
   5   -150.1939449 -0.375554E-05  0.154E-03    3.03       6.6  T
   6   -150.1939449 -0.287481E-07  0.849E-04    3.03      11.9  T
   7   -150.1939449 -0.317225E-07  0.317E-04    3.03      31.9  T
     SCC iter.                  ...        0 min,  0.108 sec
     gradient                   ...        0 min,  0.199 sec
 * total energy  :  -148.1857854 Eh     change       -0.9676571E-03 Eh
   gradient norm :     0.0084283 Eh/α   predicted    -0.7999705E-03 ( -17.33%)
   displ. norm   :     0.3824234 α      lambda       -0.7591008E-03
   maximum displ.:     0.1852394 α      in ANC's #13, #19, #22, ...

........................................................................
.............................. CYCLE    6 ..............................
........................................................................

 iter      E             dE          RMSdq      gap      omega  full diag
   1   -150.1921871 -0.150192E+03  0.600E-02    3.02       0.0  T
   2   -150.1922011 -0.140365E-04  0.347E-02    3.03       1.0  T
   3   -150.1921987  0.248064E-05  0.955E-03    3.03       1.1  T
   4   -150.1922020 -0.337101E-05  0.337E-03    3.03       3.0  T
   5   -150.1922029 -0.845220E-06  0.115E-03    3.03       8.8  T
   6   -150.1922029 -0.235976E-07  0.592E-04    3.03      17.1  T
   7   -150.1922029 -0.140568E-07  0.226E-04    3.03      44.7  T
     SCC iter.                  ...        0 min,  0.155 sec
     gradient                   ...        0 min,  0.186 sec
 * total energy  :  -148.1863558 Eh     change       -0.5704124E-03 Eh
   gradient norm :     0.0092938 Eh/α   predicted    -0.4350629E-03 ( -23.73%)
   displ. norm   :     0.4102298 α      lambda       -0.6571687E-03
   maximum displ.:     0.2114389 α      in ANC's #13, #19, #22, ...

........................................................................
.............................. CYCLE    7 ..............................
........................................................................

 iter      E             dE          RMSdq      gap      omega  full diag
   1   -150.1917532 -0.150192E+03  0.655E-02    3.03       0.0  T
   2   -150.1917616 -0.841009E-05  0.381E-02    3.03       1.0  T
   3   -150.1917584  0.317289E-05  0.792E-03    3.03       1.3  T
   4   -150.1917623 -0.382531E-05  0.302E-03    3.03       3.3  T
   5   -150.1917629 -0.645759E-06  0.114E-03    3.03       8.8  T
   6   -150.1917629 -0.266292E-07  0.578E-04    3.03      17.5  T
   7   -150.1917630 -0.146763E-07  0.216E-04    3.03      46.8  T
     SCC iter.                  ...        0 min,  0.110 sec
     gradient                   ...        0 min,  0.153 sec
 * total energy  :  -148.1868745 Eh     change       -0.5186762E-03 Eh
   gradient norm :     0.0089106 Eh/α   predicted    -0.3838854E-03 ( -25.99%)
   displ. norm   :     0.4624534 α      lambda       -0.6760998E-03
   maximum displ.:     0.2454770 α      in ANC's #13, #19, #8, ...

........................................................................
.............................. CYCLE    8 ..............................
........................................................................

 iter      E             dE          RMSdq      gap      omega  full diag
   1   -150.1924566 -0.150192E+03  0.793E-02    3.04       0.0  T
   2   -150.1924659 -0.929052E-05  0.460E-02    3.04       1.0  T
   3   -150.1924624  0.347495E-05  0.830E-03    3.04       1.2  T
   4   -150.1924667 -0.423656E-05  0.338E-03    3.03       3.0  T
   5   -150.1924675 -0.798445E-06  0.129E-03    3.03       7.8  T
   6   -150.1924675 -0.206633E-07  0.674E-04    3.04      15.0  T
   7   -150.1924675 -0.214431E-07  0.250E-04    3.04      40.5  T
     SCC iter.                  ...        0 min,  0.116 sec
     gradient                   ...        0 min,  0.154 sec
 * total energy  :  -148.1874088 Eh     change       -0.5342935E-03 Eh
   gradient norm :     0.0080425 Eh/α   predicted    -0.4103468E-03 ( -23.20%)
   displ. norm   :     0.4825022 α      lambda       -0.6247243E-03
   maximum displ.:     0.2622818 α      in ANC's #13, #19, #8, ...

........................................................................
.............................. CYCLE    9 ..............................
........................................................................

 iter      E             dE          RMSdq      gap      omega  full diag
   1   -150.1943224 -0.150194E+03  0.845E-02    3.04       0.0  T
   2   -150.1943306 -0.828830E-05  0.490E-02    3.03       1.0  T
   3   -150.1943291  0.154873E-05  0.702E-03    3.03       1.4  T
   4   -150.1943316 -0.252469E-05  0.260E-03    3.03       3.9  T
   5   -150.1943320 -0.373065E-06  0.124E-03    3.03       8.2  T
   6   -150.1943320 -0.301472E-07  0.503E-04    3.03      20.1  T
   7   -150.1943320 -0.903225E-08  0.234E-04    3.03      43.1  T
     SCC iter.                  ...        0 min,  0.096 sec
     gradient                   ...        0 min,  0.189 sec
 * total energy  :  -148.1878977 Eh     change       -0.4889183E-03 Eh
   gradient norm :     0.0074914 Eh/α   predicted    -0.3850835E-03 ( -21.24%)
   displ. norm   :     0.4798605 α      lambda       -0.5287226E-03
   maximum displ.:     0.2636911 α      in ANC's #13, #19, #8, ...

........................................................................
.............................. CYCLE   10 ..............................
........................................................................

 iter      E             dE          RMSdq      gap      omega  full diag
   1   -150.1963280 -0.150196E+03  0.829E-02    3.02       0.0  T
   2   -150.1963342 -0.612639E-05  0.480E-02    3.02       1.0  T
   3   -150.1963328  0.134125E-05  0.678E-03    3.02       1.5  T
   4   -150.1963348 -0.199863E-05  0.297E-03    3.02       3.4  T
   5   -150.1963353 -0.497717E-06  0.135E-03    3.02       7.5  T
   6   -150.1963353 -0.412066E-07  0.515E-04    3.02      19.6  T
   7   -150.1963354 -0.143246E-07  0.212E-04    3.02      47.7  T
     SCC iter.                  ...        0 min,  0.086 sec
     gradient                   ...        0 min,  0.138 sec
 * total energy  :  -148.1883113 Eh     change       -0.4135478E-03 Eh
   gradient norm :     0.0066011 Eh/α   predicted    -0.3253206E-03 ( -21.33%)
   displ. norm   :     0.4779325 α      lambda       -0.4422487E-03
   maximum displ.:     0.2611736 α      in ANC's #13, #8, #19, ...

........................................................................
.............................. CYCLE   11 ..............................
........................................................................

 iter      E             dE          RMSdq      gap      omega  full diag
   1   -150.1982160 -0.150198E+03  0.752E-02    3.01       0.0  T
   2   -150.1982192 -0.326984E-05  0.438E-02    3.01       1.0  T
   3   -150.1982160  0.318245E-05  0.747E-03    3.00       1.4  T
   4   -150.1982199 -0.383745E-05  0.271E-03    3.00       3.7  T
   5   -150.1982202 -0.368977E-06  0.113E-03    3.00       9.0  T
   6   -150.1982203 -0.264722E-07  0.425E-04    3.00      23.7  T
   7   -150.1982203 -0.111566E-07  0.169E-04    3.00      59.7  T
     SCC iter.                  ...        0 min,  0.108 sec
     gradient                   ...        0 min,  0.162 sec
 * total energy  :  -148.1886547 Eh     change       -0.3434541E-03 Eh
   gradient norm :     0.0054011 Eh/α   predicted    -0.2716383E-03 ( -20.91%)
   displ. norm   :     0.4783979 α      lambda       -0.3548320E-03
   maximum displ.:     0.2533289 α      in ANC's #13, #8, #19, ...

........................................................................
.............................. CYCLE   12 ..............................
........................................................................

 iter      E             dE          RMSdq      gap      omega  full diag
   1   -150.1987564 -0.150199E+03  0.687E-02    2.99       0.0  T
   2   -150.1987594 -0.295133E-05  0.400E-02    2.99       1.0  T
   3   -150.1987579  0.148759E-05  0.539E-03    2.99       1.9  T
   4   -150.1987601 -0.217705E-05  0.207E-03    2.99       4.9  T
   5   -150.1987602 -0.166305E-06  0.102E-03    2.99       9.9  T
   6   -150.1987602 -0.244987E-07  0.417E-04    2.99      24.2  T
   7   -150.1987603 -0.106801E-07  0.144E-04    2.99      70.1  T
     SCC iter.                  ...        0 min,  0.090 sec
     gradient                   ...        0 min,  0.152 sec
 * total energy  :  -148.1889297 Eh     change       -0.2749961E-03 Eh
   gradient norm :     0.0054426 Eh/α   predicted    -0.2180205E-03 ( -20.72%)
   displ. norm   :     0.4595599 α      lambda       -0.2919425E-03
   maximum displ.:     0.2289035 α      in ANC's #13, #8, #6, ...

........................................................................
.............................. CYCLE   13 ..............................
........................................................................

 iter      E             dE          RMSdq      gap      omega  full diag
   1   -150.1996970 -0.150200E+03  0.568E-02    2.98       0.0  T
   2   -150.1997005 -0.347105E-05  0.332E-02    2.98       1.0  T
   3   -150.1996992  0.121782E-05  0.499E-03    2.98       2.0  T
   4   -150.1997010 -0.178457E-05  0.160E-03    2.98       6.3  T
   5   -150.1997012 -0.146423E-06  0.753E-04    2.98      13.4  T
   6   -150.1997012 -0.116644E-07  0.258E-04    2.98      39.2  T
     SCC iter.                  ...        0 min,  0.081 sec
     gradient                   ...        0 min,  0.147 sec
 * total energy  :  -148.1891529 Eh     change       -0.2231787E-03 Eh
   gradient norm :     0.0050105 Eh/α   predicted    -0.1768028E-03 ( -20.78%)
   displ. norm   :     0.4597495 α      lambda       -0.2381788E-03
   maximum displ.:     0.2130913 α      in ANC's #13, #8, #11, ...

........................................................................
.............................. CYCLE   14 ..............................
........................................................................

 iter      E             dE          RMSdq      gap      omega  full diag
   1   -150.1975006 -0.150198E+03  0.527E-02    2.97       0.0  T
   2   -150.1975032 -0.259175E-05  0.309E-02    2.97       1.0  T
   3   -150.1975010  0.216988E-05  0.596E-03    2.97       1.7  T
   4   -150.1975036 -0.262429E-05  0.200E-03    2.97       5.1  T
   5   -150.1975039 -0.242140E-06  0.869E-04    2.97      11.6  T
   6   -150.1975039 -0.114124E-07  0.397E-04    2.97      25.5  T
     SCC iter.                  ...        0 min,  0.100 sec
     gradient                   ...        0 min,  0.147 sec
 * total energy  :  -148.1893234 Eh     change       -0.1705393E-03 Eh
   gradient norm :     0.0054784 Eh/α   predicted    -0.1442618E-03 ( -15.41%)
   displ. norm   :     0.4322321 α      lambda       -0.3113701E-03
   maximum displ.:     0.1890107 α      in ANC's #8, #11, #13, ...

........................................................................
.............................. CYCLE   15 ..............................
........................................................................

 iter      E             dE          RMSdq      gap      omega  full diag
   1   -150.2036609 -0.150204E+03  0.437E-02    2.98       0.0  T
   2   -150.2036678 -0.692581E-05  0.255E-02    2.98       1.0  T
   3   -150.2036646  0.315980E-05  0.882E-03    2.98       1.1  T
   4   -150.2036682 -0.359725E-05  0.333E-03    2.98       3.0  T
   5   -150.2036691 -0.829849E-06  0.106E-03    2.98       9.5  T
   6   -150.2036691 -0.181321E-07  0.482E-04    2.98      20.9  T
   7   -150.2036691 -0.107221E-07  0.178E-04    2.98      56.7  T
     SCC iter.                  ...        0 min,  0.109 sec
     gradient                   ...        0 min,  0.152 sec
 * total energy  :  -148.1894038 Eh     change       -0.8042700E-04 Eh
   gradient norm :     0.0092642 Eh/α   predicted    -0.1847751E-03 ( 129.74%)
   displ. norm   :     0.2292756 α      lambda       -0.2589404E-03
   maximum displ.:     0.0985328 α      in ANC's #8, #13, #11, ...

........................................................................
.............................. CYCLE   16 ..............................
........................................................................

 iter      E             dE          RMSdq      gap      omega  full diag
   1   -150.1998263 -0.150200E+03  0.274E-02    2.98       0.0  T
   2   -150.1998282 -0.193486E-05  0.159E-02    2.98       1.0  T
   3   -150.1998279  0.304058E-06  0.334E-03    2.98       3.0  T
   4   -150.1998283 -0.416838E-06  0.143E-03    2.98       7.1  T
   5   -150.1998284 -0.141953E-06  0.567E-04    2.98      17.8  T
   6   -150.1998284 -0.317755E-08  0.269E-04    2.98      37.6  T
     SCC iter.                  ...        0 min,  0.071 sec
     gradient                   ...        0 min,  0.178 sec
 * total energy  :  -148.1895730 Eh     change       -0.1691241E-03 Eh
   gradient norm :     0.0049805 Eh/α   predicted    -0.1362903E-03 ( -19.41%)
   displ. norm   :     0.2066536 α      lambda       -0.1400516E-03
   maximum displ.:     0.0947158 α      in ANC's #11, #8, #3, ...

........................................................................
.............................. CYCLE   17 ..............................
........................................................................

 iter      E             dE          RMSdq      gap      omega  full diag
   1   -150.1978393 -0.150198E+03  0.220E-02    2.98       0.0  T
   2   -150.1978405 -0.125381E-05  0.126E-02    2.98       1.0  T
   3   -150.1978399  0.603408E-06  0.402E-03    2.98       2.5  T
   4   -150.1978407 -0.774062E-06  0.122E-03    2.98       8.3  T
   5   -150.1978408 -0.952006E-07  0.457E-04    2.98      22.1  T
   6   -150.1978408 -0.179944E-08  0.266E-04    2.98      37.9  T
     SCC iter.                  ...        0 min,  0.073 sec
     gradient                   ...        0 min,  0.179 sec
 * total energy  :  -148.1896840 Eh     change       -0.1110049E-03 Eh
   gradient norm :     0.0044458 Eh/α   predicted    -0.7302135E-04 ( -34.22%)
   displ. norm   :     0.3258175 α      lambda       -0.2288467E-03
   maximum displ.:     0.1621922 α      in ANC's #11, #8, #3, ...

........................................................................
.............................. CYCLE   18 ..............................
........................................................................

 iter      E             dE          RMSdq      gap      omega  full diag
   1   -150.1991238 -0.150199E+03  0.396E-02    2.98       0.0  T
   2   -150.1991265 -0.274261E-05  0.229E-02    2.99       1.0  T
   3   -150.1991255  0.954765E-06  0.520E-03    2.98       1.9  T
   4   -150.1991269 -0.138510E-05  0.163E-03    2.98       6.2  T
   5   -150.1991271 -0.143018E-06  0.734E-04    2.98      13.8  T
   6   -150.1991271 -0.797749E-08  0.324E-04    2.98      31.2  T
     SCC iter.                  ...        0 min,  0.087 sec
     gradient                   ...        0 min,  0.160 sec
 * total energy  :  -148.1898492 Eh     change       -0.1652681E-03 Eh
   gradient norm :     0.0050898 Eh/α   predicted    -0.1265712E-03 ( -23.41%)
   displ. norm   :     0.3910707 α      lambda       -0.1840975E-03
   maximum displ.:     0.2048803 α      in ANC's #11, #8, #3, ...

........................................................................
.............................. CYCLE   19 ..............................
........................................................................

 iter      E             dE          RMSdq      gap      omega  full diag
   1   -150.1974651 -0.150197E+03  0.401E-02    2.98       0.0  T
   2   -150.1974673 -0.221798E-05  0.233E-02    2.98       1.0  T
   3   -150.1974657  0.157369E-05  0.558E-03    2.98       1.8  T
   4   -150.1974678 -0.208288E-05  0.153E-03    2.98       6.6  T
   5   -150.1974679 -0.105574E-06  0.705E-04    2.98      14.3  T
   6   -150.1974679 -0.537761E-08  0.319E-04    2.98      31.6  T
     SCC iter.                  ...        0 min,  0.074 sec
     gradient                   ...        0 min,  0.147 sec
 * total energy  :  -148.1899842 Eh     change       -0.1349829E-03 Eh
   gradient norm :     0.0054546 Eh/α   predicted    -0.1061278E-03 ( -21.38%)
   displ. norm   :     0.3761720 α      lambda       -0.1642419E-03
   maximum displ.:     0.2020630 α      in ANC's #11, #8, #3, ...

........................................................................
.............................. CYCLE   20 ..............................
........................................................................

 iter      E             dE          RMSdq      gap      omega  full diag
   1   -150.1989904 -0.150199E+03  0.375E-02    2.98       0.0  T
   2   -150.1989917 -0.123721E-05  0.218E-02    2.98       1.0  T
   3   -150.1989909  0.800753E-06  0.411E-03    2.98       2.5  T
   4   -150.1989920 -0.112239E-05  0.157E-03    2.98       6.4  T
   5   -150.1989921 -0.756107E-07  0.749E-04    2.98      13.5  T
   6   -150.1989921 -0.209301E-07  0.303E-04    2.98      33.3  T
     SCC iter.                  ...        0 min,  0.071 sec
     gradient                   ...        0 min,  0.157 sec
 * total energy  :  -148.1901119 Eh     change       -0.1276547E-03 Eh
   gradient norm :     0.0042774 Eh/α   predicted    -0.9374344E-04 ( -26.56%)
   displ. norm   :     0.3882415 α      lambda       -0.1588512E-03
   maximum displ.:     0.2162037 α      in ANC's #11, #8, #3, ...
 * RMSD in coord.:     0.5982955 α      energy gain  -0.2651140E-01 Eh

generating ANC from exact Hessian ...
Using Lindh-Hessian (1995)
 Shifting diagonal of input Hessian by    1.0041141030407947E-002
 Lowest  eigenvalues of input Hessian
    0.010000    0.000000    0.000000    0.000000    0.000000    0.000000
    0.000000    0.010077    0.010132    0.010202    0.010270    0.010309
    0.010395    0.010471    0.010501    0.010579    0.010642    0.010767
 Highest eigenvalues
    2.055920    2.111544    2.153662    2.345825    2.441502    2.538809


........................................................................
.............................. CYCLE   21 ..............................
........................................................................

 iter      E             dE          RMSdq      gap      omega  full diag
   1   -150.1997745 -0.150200E+03  0.388E-02    2.98       0.0  T
   2   -150.1997770 -0.255374E-05  0.225E-02    2.98       1.0  T
   3   -150.1997757  0.133994E-05  0.529E-03    2.98       1.9  T
   4   -150.1997773 -0.160529E-05  0.223E-03    2.99       4.5  T
   5   -150.1997776 -0.292940E-06  0.830E-04    2.99      12.2  T
   6   -150.1997776 -0.116748E-07  0.358E-04    2.99      28.2  T
     SCC iter.                  ...        0 min,  0.080 sec
     gradient                   ...        0 min,  0.196 sec
 * total energy  :  -148.1902328 Eh     change       -0.1209532E-03 Eh
   gradient norm :     0.0030182 Eh/α   predicted     0.0000000E+00 (-100.00%)
   displ. norm   :     0.0480996 α      lambda       -0.4404489E-04
   maximum displ.:     0.0254035 α      in ANC's #11, #16, #17, ...

........................................................................
.............................. CYCLE   22 ..............................
........................................................................

 iter      E             dE          RMSdq      gap      omega  full diag
   1   -150.2009688 -0.150201E+03  0.770E-03    2.99       0.0  T
   2   -150.2009690 -0.232058E-06  0.445E-03    2.99       2.3  T
   3   -150.2009690  0.181723E-07  0.120E-03    2.99       8.4  T
   4   -150.2009691 -0.325005E-07  0.439E-04    2.99      23.0  T
   5   -150.2009691 -0.120770E-07  0.209E-04    2.99      48.2  T
     SCC iter.                  ...        0 min,  0.096 sec
     gradient                   ...        0 min,  0.203 sec
 * total energy  :  -148.1902707 Eh     change       -0.3789108E-04 Eh
   gradient norm :     0.0014524 Eh/α   predicted    -0.2221561E-04 ( -41.37%)
   displ. norm   :     0.2814184 α      lambda       -0.1182579E-03
   maximum displ.:     0.1448777 α      in ANC's #11, #16, #17, ...

........................................................................
.............................. CYCLE   23 ..............................
........................................................................

 iter      E             dE          RMSdq      gap      omega  full diag
   1   -150.2033529 -0.150203E+03  0.382E-02    2.99       0.0  T
   2   -150.2033567 -0.378280E-05  0.221E-02    2.99       1.0  T
   3   -150.2033559  0.860854E-06  0.546E-03    2.99       1.8  T
   4   -150.2033570 -0.110978E-05  0.233E-03    2.99       4.3  T
   5   -150.2033573 -0.368383E-06  0.930E-04    2.99      10.9  T
   6   -150.2033574 -0.162671E-07  0.322E-04    2.99      31.4  T
     SCC iter.                  ...        0 min,  0.108 sec
     gradient                   ...        0 min,  0.208 sec
 * total energy  :  -148.1903688 Eh     change       -0.9808075E-04 Eh
   gradient norm :     0.0046324 Eh/α   predicted    -0.6121212E-04 ( -37.59%)
   displ. norm   :     0.1073865 α      lambda       -0.4973948E-04
   maximum displ.:     0.0581536 α      in ANC's #11, #16, #17, ...

........................................................................
.............................. CYCLE   24 ..............................
........................................................................

 iter      E             dE          RMSdq      gap      omega  full diag
   1   -150.2026082 -0.150203E+03  0.131E-02    2.99       0.0  T
   2   -150.2026084 -0.179560E-06  0.757E-03    2.99       1.3  T
   3   -150.2026084  0.192699E-07  0.115E-03    2.99       8.8  T
   4   -150.2026084 -0.657961E-07  0.550E-04    2.99      18.4  T
   5   -150.2026084 -0.685503E-08  0.285E-04    2.99      35.4  T
     SCC iter.                  ...        0 min,  0.098 sec
     gradient                   ...        0 min,  0.192 sec
 * total energy  :  -148.1904139 Eh     change       -0.4508855E-04 Eh
   gradient norm :     0.0037732 Eh/α   predicted    -0.2515679E-04 ( -44.21%)
   displ. norm   :     0.3225389 α      lambda       -0.1442033E-03
   maximum displ.:     0.1700100 α      in ANC's #11, #16, #10, ...

........................................................................
.............................. CYCLE   25 ..............................
........................................................................

 iter      E             dE          RMSdq      gap      omega  full diag
   1   -150.1998662 -0.150200E+03  0.390E-02    2.98       0.0  T
   2   -150.1998679 -0.170490E-05  0.226E-02    2.98       1.0  T
   3   -150.1998675  0.328251E-06  0.371E-03    2.98       2.7  T
   4   -150.1998683 -0.749577E-06  0.166E-03    2.98       6.1  T
   5   -150.1998684 -0.709115E-07  0.911E-04    2.98      11.1  T
   6   -150.1998684 -0.342098E-07  0.292E-04    2.98      34.6  T
     SCC iter.                  ...        0 min,  0.104 sec
     gradient                   ...        0 min,  0.193 sec
 * total energy  :  -148.1905180 Eh     change       -0.1040627E-03 Eh
   gradient norm :     0.0021345 Eh/α   predicted    -0.7960279E-04 ( -23.50%)
   displ. norm   :     0.2705687 α      lambda       -0.7185285E-04
   maximum displ.:     0.1449533 α      in ANC's #11, #16, #10, ...

........................................................................
.............................. CYCLE   26 ..............................
........................................................................

 iter      E             dE          RMSdq      gap      omega  full diag
   1   -150.1982874 -0.150198E+03  0.327E-02    2.97       0.0  T
   2   -150.1982886 -0.114868E-05  0.189E-02    2.97       1.0  T
   3   -150.1982882  0.313761E-06  0.329E-03    2.97       3.1  T
   4   -150.1982888 -0.582260E-06  0.148E-03    2.97       6.8  T
   5   -150.1982889 -0.724753E-07  0.780E-04    2.97      12.9  T
   6   -150.1982889 -0.234971E-07  0.230E-04    2.97      43.9  T
     SCC iter.                  ...        0 min,  0.105 sec
     gradient                   ...        0 min,  0.195 sec
 * total energy  :  -148.1905709 Eh     change       -0.5292373E-04 Eh
   gradient norm :     0.0033708 Eh/α   predicted    -0.3856046E-04 ( -27.14%)
   displ. norm   :     0.2193836 α      lambda       -0.5809091E-04
   maximum displ.:     0.1185932 α      in ANC's #11, #10, #3, ...

........................................................................
.............................. CYCLE   27 ..............................
........................................................................

 iter      E             dE          RMSdq      gap      omega  full diag
   1   -150.1984078 -0.150198E+03  0.270E-02    2.97       0.0  T
   2   -150.1984086 -0.753126E-06  0.156E-02    2.97       1.0  T
   3   -150.1984082  0.354584E-06  0.294E-03    2.97       3.4  T
   4   -150.1984087 -0.517793E-06  0.125E-03    2.97       8.1  T
   5   -150.1984088 -0.650527E-07  0.599E-04    2.97      16.9  T
   6   -150.1984088 -0.111069E-07  0.187E-04    2.97      54.0  T
     SCC iter.                  ...        0 min,  0.136 sec
     gradient                   ...        0 min,  0.202 sec
 * total energy  :  -148.1906196 Eh     change       -0.4870311E-04 Eh
   gradient norm :     0.0033780 Eh/α   predicted    -0.3044397E-04 ( -37.49%)
   displ. norm   :     0.3076746 α      lambda       -0.9344188E-04
   maximum displ.:     0.1663305 α      in ANC's #11, #10, #3, ...

........................................................................
.............................. CYCLE   28 ..............................
........................................................................

 iter      E             dE          RMSdq      gap      omega  full diag
   1   -150.1995540 -0.150200E+03  0.392E-02    2.97       0.0  T
   2   -150.1995555 -0.142024E-05  0.227E-02    2.97       1.0  T
   3   -150.1995548  0.622426E-06  0.396E-03    2.97       2.5  T
   4   -150.1995558 -0.924356E-06  0.175E-03    2.97       5.8  T
   5   -150.1995559 -0.127006E-06  0.806E-04    2.97      12.5  T
   6   -150.1995559 -0.195007E-07  0.270E-04    2.97      37.4  T
     SCC iter.                  ...        0 min,  0.097 sec
     gradient                   ...        0 min,  0.181 sec
 * total energy  :  -148.1906936 Eh     change       -0.7398417E-04 Eh
   gradient norm :     0.0024863 Eh/α   predicted    -0.5114592E-04 ( -30.87%)
   displ. norm   :     0.3582247 α      lambda       -0.9164054E-04
   maximum displ.:     0.1939181 α      in ANC's #11, #10, #3, ...

........................................................................
.............................. CYCLE   29 ..............................
........................................................................

 iter      E             dE          RMSdq      gap      omega  full diag
   1   -150.2000504 -0.150200E+03  0.460E-02    2.97       0.0  T
   2   -150.2000521 -0.166650E-05  0.267E-02    2.97       1.0  T
   3   -150.2000516  0.453316E-06  0.393E-03    2.97       2.6  T
   4   -150.2000525 -0.841226E-06  0.187E-03    2.97       5.4  T
   5   -150.2000526 -0.125482E-06  0.887E-04    2.97      11.4  T
   6   -150.2000526 -0.284453E-07  0.305E-04    2.97      33.1  T
     SCC iter.                  ...        0 min,  0.104 sec
     gradient                   ...        0 min,  0.176 sec
 * total energy  :  -148.1907669 Eh     change       -0.7332832E-04 Eh
   gradient norm :     0.0022907 Eh/α   predicted    -0.5170590E-04 ( -29.49%)
   displ. norm   :     0.3996735 α      lambda       -0.9743905E-04
   maximum displ.:     0.2134065 α      in ANC's #11, #10, #3, ...

........................................................................
.............................. CYCLE   30 ..............................
........................................................................

 iter      E             dE          RMSdq      gap      omega  full diag
   1   -150.2002203 -0.150200E+03  0.509E-02    2.97       0.0  T
   2   -150.2002222 -0.194737E-05  0.296E-02    2.97       1.0  T
   3   -150.2002218  0.437607E-06  0.409E-03    2.97       2.5  T
   4   -150.2002227 -0.925547E-06  0.191E-03    2.97       5.3  T
   5   -150.2002228 -0.108926E-06  0.931E-04    2.97      10.9  T
   6   -150.2002228 -0.334720E-07  0.343E-04    2.97      29.4  T
     SCC iter.                  ...        0 min,  0.092 sec
     gradient                   ...        0 min,  0.142 sec
 * total energy  :  -148.1908491 Eh     change       -0.8221321E-04 Eh
   gradient norm :     0.0026865 Eh/α   predicted    -0.5650262E-04 ( -31.27%)
   displ. norm   :     0.4873224 α      lambda       -0.1295272E-03
   maximum displ.:     0.2521921 α      in ANC's #11, #3, #10, ...

........................................................................
.............................. CYCLE   31 ..............................
........................................................................

 iter      E             dE          RMSdq      gap      omega  full diag
   1   -150.2000472 -0.150200E+03  0.613E-02    2.97       0.0  T
   2   -150.2000501 -0.288443E-05  0.356E-02    2.97       1.0  T
   3   -150.2000492  0.851424E-06  0.507E-03    2.97       2.0  T
   4   -150.2000508 -0.158047E-05  0.218E-03    2.97       4.6  T
   5   -150.2000509 -0.138897E-06  0.105E-03    2.97       9.6  T
   6   -150.2000510 -0.357995E-07  0.425E-04    2.97      23.8  T
   7   -150.2000510 -0.922296E-08  0.198E-04    2.97      51.0  T
     SCC iter.                  ...        0 min,  0.091 sec
     gradient                   ...        0 min,  0.155 sec
 * total energy  :  -148.1909587 Eh     change       -0.1096034E-03 Eh
   gradient norm :     0.0030525 Eh/α   predicted    -0.8014731E-04 ( -26.88%)
   displ. norm   :     0.5460486 α      lambda       -0.1507759E-03
   maximum displ.:     0.2692381 α      in ANC's #11, #3, #10, ...

........................................................................
.............................. CYCLE   32 ..............................
........................................................................

 iter      E             dE          RMSdq      gap      omega  full diag
   1   -150.1993479 -0.150199E+03  0.674E-02    2.97       0.0  T
   2   -150.1993515 -0.367726E-05  0.392E-02    2.98       1.0  T
   3   -150.1993501  0.142218E-05  0.592E-03    2.98       1.7  T
   4   -150.1993525 -0.234997E-05  0.230E-03    2.98       4.4  T
   5   -150.1993526 -0.163984E-06  0.107E-03    2.98       9.5  T
   6   -150.1993526 -0.264130E-07  0.451E-04    2.98      22.4  T
   7   -150.1993527 -0.108806E-07  0.212E-04    2.98      47.7  T
     SCC iter.                  ...        0 min,  0.086 sec
     gradient                   ...        0 min,  0.152 sec
 * total energy  :  -148.1910786 Eh     change       -0.1198645E-03 Eh
   gradient norm :     0.0031213 Eh/α   predicted    -0.9787298E-04 ( -18.35%)
   displ. norm   :     0.4626324 α      lambda       -0.1190562E-03
   maximum displ.:     0.2095918 α      in ANC's #11, #3, #10, ...

........................................................................
.............................. CYCLE   33 ..............................
........................................................................

 iter      E             dE          RMSdq      gap      omega  full diag
   1   -150.1996616 -0.150200E+03  0.560E-02    2.98       0.0  T
   2   -150.1996642 -0.259389E-05  0.326E-02    2.98       1.0  T
   3   -150.1996631  0.108139E-05  0.497E-03    2.98       2.0  T
   4   -150.1996648 -0.170739E-05  0.189E-03    2.98       5.3  T
   5   -150.1996649 -0.122347E-06  0.888E-04    2.98      11.4  T
   6   -150.1996649 -0.158110E-07  0.399E-04    2.98      25.3  T
     SCC iter.                  ...        0 min,  0.071 sec
     gradient                   ...        0 min,  0.151 sec
 * total energy  :  -148.1911664 Eh     change       -0.8786503E-04 Eh
   gradient norm :     0.0027361 Eh/α   predicted    -0.7228019E-04 ( -17.74%)
   displ. norm   :     0.4246475 α      lambda       -0.7590650E-04
   maximum displ.:     0.1978723 α      in ANC's #11, #3, #10, ...

........................................................................
.............................. CYCLE   34 ..............................
........................................................................

 iter      E             dE          RMSdq      gap      omega  full diag
   1   -150.1967657 -0.150197E+03  0.525E-02    2.98       0.0  T
   2   -150.1967679 -0.226294E-05  0.305E-02    2.98       1.0  T
   3   -150.1967672  0.715916E-06  0.447E-03    2.98       2.3  T
   4   -150.1967685 -0.125618E-05  0.187E-03    2.98       5.4  T
   5   -150.1967686 -0.113036E-06  0.950E-04    2.98      10.6  T
   6   -150.1967686 -0.302453E-07  0.380E-04    2.98      26.6  T
     SCC iter.                  ...        0 min,  0.093 sec
     gradient                   ...        0 min,  0.182 sec
 * total energy  :  -148.1912197 Eh     change       -0.5322799E-04 Eh
   gradient norm :     0.0039444 Eh/α   predicted    -0.4481469E-04 ( -15.81%)
   displ. norm   :     0.3441024 α      lambda       -0.1211947E-03
   maximum displ.:     0.1475558 α      in ANC's #3, #6, #10, ...

........................................................................
.............................. CYCLE   35 ..............................
........................................................................

 iter      E             dE          RMSdq      gap      omega  full diag
   1   -150.2042922 -0.150204E+03  0.405E-02    2.99       0.0  T
   2   -150.2042947 -0.253372E-05  0.235E-02    2.99       1.0  T
   3   -150.2042940  0.684658E-06  0.426E-03    2.99       2.4  T
   4   -150.2042951 -0.106778E-05  0.154E-03    2.99       6.6  T
   5   -150.2042952 -0.107500E-06  0.708E-04    2.99      14.3  T
   6   -150.2042952 -0.102423E-07  0.339E-04    2.99      29.8  T
     SCC iter.                  ...        0 min,  0.083 sec
     gradient                   ...        0 min,  0.152 sec
 * total energy  :  -148.1912511 Eh     change       -0.3140075E-04 Eh
   gradient norm :     0.0044319 Eh/α   predicted    -0.6777279E-04 ( 115.83%)
   displ. norm   :     0.2832061 α      lambda       -0.9232249E-04
   maximum displ.:     0.1347401 α      in ANC's #11, #3, #10, ...

........................................................................
.............................. CYCLE   36 ..............................
........................................................................

 iter      E             dE          RMSdq      gap      omega  full diag
   1   -150.1988195 -0.150199E+03  0.369E-02    2.98       0.0  T
   2   -150.1988208 -0.132376E-05  0.215E-02    2.98       1.0  T
   3   -150.1988203  0.484898E-06  0.360E-03    2.98       2.8  T
   4   -150.1988211 -0.787709E-06  0.146E-03    2.98       6.9  T
   5   -150.1988212 -0.698069E-07  0.813E-04    2.98      12.4  T
   6   -150.1988212 -0.258949E-07  0.257E-04    2.98      39.2  T
     SCC iter.                  ...        0 min,  0.089 sec
     gradient                   ...        0 min,  0.171 sec
 * total energy  :  -148.1913147 Eh     change       -0.6364920E-04 Eh
   gradient norm :     0.0033154 Eh/α   predicted    -0.4986377E-04 ( -21.66%)
   displ. norm   :     0.1851837 α      lambda       -0.6802897E-04
   maximum displ.:     0.0794458 α      in ANC's #3, #10, #11, ...

........................................................................
.............................. CYCLE   37 ..............................
........................................................................

 iter      E             dE          RMSdq      gap      omega  full diag
   1   -150.1970089 -0.150197E+03  0.238E-02    2.97       0.0  T
   2   -150.1970096 -0.704792E-06  0.138E-02    2.97       1.0  T
   3   -150.1970094  0.125546E-06  0.218E-03    2.97       4.6  T
   4   -150.1970097 -0.238255E-06  0.998E-04    2.97      10.1  T
   5   -150.1970097 -0.464780E-07  0.508E-04    2.97      19.9  T
     SCC iter.                  ...        0 min,  0.084 sec
     gradient                   ...        0 min,  0.135 sec
 * total energy  :  -148.1913670 Eh     change       -0.5226037E-04 Eh
   gradient norm :     0.0037633 Eh/α   predicted    -0.3518115E-04 ( -32.68%)
   displ. norm   :     0.2586258 α      lambda       -0.8724522E-04
   maximum displ.:     0.1175429 α      in ANC's #3, #10, #6, ...

........................................................................
.............................. CYCLE   38 ..............................
........................................................................

 iter      E             dE          RMSdq      gap      omega  full diag
   1   -150.1974077 -0.150197E+03  0.318E-02    2.97       0.0  T
   2   -150.1974090 -0.133624E-05  0.185E-02    2.97       1.0  T
   3   -150.1974087  0.345682E-06  0.298E-03    2.97       3.4  T
   4   -150.1974093 -0.554859E-06  0.123E-03    2.97       8.2  T
   5   -150.1974093 -0.838735E-07  0.565E-04    2.97      17.9  T
   6   -150.1974093 -0.342817E-08  0.257E-04    2.97      39.3  T
     SCC iter.                  ...        0 min,  0.071 sec
     gradient                   ...        0 min,  0.166 sec
 * total energy  :  -148.1914300 Eh     change       -0.6297080E-04 Eh
   gradient norm :     0.0034223 Eh/α   predicted    -0.4654521E-04 ( -26.08%)
   displ. norm   :     0.3699842 α      lambda       -0.7063066E-04
   maximum displ.:     0.1802395 α      in ANC's #3, #10, #6, ...

........................................................................
.............................. CYCLE   39 ..............................
........................................................................

 iter      E             dE          RMSdq      gap      omega  full diag
   1   -150.1974364 -0.150197E+03  0.442E-02    2.97       0.0  T
   2   -150.1974382 -0.178329E-05  0.257E-02    2.97       1.0  T
   3   -150.1974380  0.219358E-06  0.318E-03    2.97       3.2  T
   4   -150.1974386 -0.586661E-06  0.143E-03    2.97       7.0  T
   5   -150.1974387 -0.821413E-07  0.709E-04    2.97      14.2  T
   6   -150.1974387 -0.117512E-07  0.299E-04    2.97      33.7  T
     SCC iter.                  ...        0 min,  0.093 sec
     gradient                   ...        0 min,  0.191 sec
 * total energy  :  -148.1914860 Eh     change       -0.5600313E-04 Eh
   gradient norm :     0.0035389 Eh/α   predicted    -0.4015000E-04 ( -28.31%)
   displ. norm   :     0.3698939 α      lambda       -0.9148759E-04
   maximum displ.:     0.1861393 α      in ANC's #3, #6, #4, ...

........................................................................
.............................. CYCLE   40 ..............................
........................................................................

 iter      E             dE          RMSdq      gap      omega  full diag
   1   -150.2009908 -0.150201E+03  0.419E-02    2.97       0.0  T
   2   -150.2009927 -0.191894E-05  0.244E-02    2.97       1.0  T
   3   -150.2009922  0.442578E-06  0.348E-03    2.97       2.9  T
   4   -150.2009930 -0.756674E-06  0.150E-03    2.97       6.7  T
   5   -150.2009931 -0.116893E-06  0.762E-04    2.97      13.3  T
   6   -150.2009931 -0.118891E-07  0.341E-04    2.97      29.7  T
     SCC iter.                  ...        0 min,  0.087 sec
     gradient                   ...        0 min,  0.159 sec
 * total energy  :  -148.1915515 Eh     change       -0.6555143E-04 Eh
   gradient norm :     0.0026718 Eh/α   predicted    -0.5200283E-04 ( -20.67%)
   displ. norm   :     0.6394662 α      lambda       -0.9629428E-04
   maximum displ.:     0.3168321 α      in ANC's #3, #10, #6, ...

........................................................................
.............................. CYCLE   41 ..............................
........................................................................

 iter      E             dE          RMSdq      gap      omega  full diag
   1   -150.1971187 -0.150197E+03  0.746E-02    2.96       0.0  T
   2   -150.1971234 -0.465240E-05  0.436E-02    2.96       1.0  T
   3   -150.1971225  0.893951E-06  0.565E-03    2.96       1.8  T
   4   -150.1971245 -0.201719E-05  0.230E-03    2.96       4.4  T
   5   -150.1971247 -0.156007E-06  0.118E-03    2.96       8.6  T
   6   -150.1971247 -0.364808E-07  0.477E-04    2.96      21.2  T
   7   -150.1971247 -0.102918E-07  0.236E-04    2.96      42.8  T
     SCC iter.                  ...        0 min,  0.098 sec
     gradient                   ...        0 min,  0.139 sec
 * total energy  :  -148.1916117 Eh     change       -0.6015379E-04 Eh
   gradient norm :     0.0047327 Eh/α   predicted    -0.6784193E-04 (  12.78%)
   displ. norm   :     0.2489077 α      lambda       -0.7831077E-04
   maximum displ.:     0.1290009 α      in ANC's #3, #4, #6, ...

........................................................................
.............................. CYCLE   42 ..............................
........................................................................

 iter      E             dE          RMSdq      gap      omega  full diag
   1   -150.2007296 -0.150201E+03  0.265E-02    2.97       0.0  T
   2   -150.2007304 -0.799764E-06  0.155E-02    2.97       1.0  T
   3   -150.2007302  0.151071E-06  0.216E-03    2.97       4.7  T
   4   -150.2007305 -0.289632E-06  0.865E-04    2.97      11.7  T
   5   -150.2007305 -0.320733E-07  0.457E-04    2.97      22.1  T
     SCC iter.                  ...        0 min,  0.100 sec
     gradient                   ...        0 min,  0.191 sec
 * total energy  :  -148.1916648 Eh     change       -0.5314629E-04 Eh
   gradient norm :     0.0022897 Eh/α   predicted    -0.4158278E-04 ( -21.76%)
   displ. norm   :     0.4000833 α      lambda       -0.5189177E-04
   maximum displ.:     0.2130203 α      in ANC's #3, #6, #4, ...
 * RMSD in coord.:     0.6593826 α      energy gain  -0.1552926E-02 Eh

generating ANC from exact Hessian ...
Using Lindh-Hessian (1995)
 Shifting diagonal of input Hessian by    9.9822865597944729E-003
 Lowest  eigenvalues of input Hessian
    0.000000    0.000000    0.000000    0.000000    0.000000    0.000000
    0.010000    0.010040    0.010076    0.010121    0.010235    0.010272
    0.010357    0.010419    0.010436    0.010557    0.010592    0.010728
 Highest eigenvalues
    2.056259    2.144958    2.148834    2.332233    2.450720    2.534238


........................................................................
.............................. CYCLE   43 ..............................
........................................................................

 iter      E             dE          RMSdq      gap      omega  full diag
   1   -150.2003299 -0.150200E+03  0.427E-02    2.96       0.0  T
   2   -150.2003312 -0.124261E-05  0.250E-02    2.96       1.0  T
   3   -150.2003309  0.242036E-06  0.302E-03    2.96       3.3  T
   4   -150.2003315 -0.568242E-06  0.142E-03    2.97       7.1  T
   5   -150.2003316 -0.689820E-07  0.727E-04    2.96      13.9  T
   6   -150.2003316 -0.168385E-07  0.273E-04    2.96      37.0  T
     SCC iter.                  ...        0 min,  0.086 sec
     gradient                   ...        0 min,  0.198 sec
 * total energy  :  -148.1917069 Eh     change       -0.4205687E-04 Eh
   gradient norm :     0.0023345 Eh/α   predicted     0.0000000E+00 (-100.00%)
   displ. norm   :     0.0342826 α      lambda       -0.2407772E-04
   maximum displ.:     0.0136720 α      in ANC's #4, #3, #12, ...

........................................................................
.............................. CYCLE   44 ..............................
........................................................................

 iter      E             dE          RMSdq      gap      omega  full diag
   1   -150.2012619 -0.150201E+03  0.487E-03    2.97       0.0  T
   2   -150.2012620 -0.634028E-07  0.286E-03    2.97       3.5  T
   3   -150.2012619  0.859758E-07  0.119E-03    2.97       8.5  T
   4   -150.2012620 -0.971416E-07  0.365E-04    2.97      27.7  T
   5   -150.2012620 -0.885507E-08  0.110E-04    2.97      91.6  T
     SCC iter.                  ...        0 min,  0.075 sec
     gradient                   ...        0 min,  0.192 sec
 * total energy  :  -148.1917279 Eh     change       -0.2101211E-04 Eh
   gradient norm :     0.0012166 Eh/α   predicted    -0.1234168E-04 ( -41.26%)
   displ. norm   :     0.1989962 α      lambda       -0.6418109E-04
   maximum displ.:     0.0807499 α      in ANC's #4, #3, #1, ...

........................................................................
.............................. CYCLE   45 ..............................
........................................................................

 iter      E             dE          RMSdq      gap      omega  full diag
   1   -150.2031455 -0.150203E+03  0.253E-02    2.97       0.0  T
   2   -150.2031467 -0.118222E-05  0.148E-02    2.97       1.0  T
   3   -150.2031452  0.141811E-05  0.474E-03    2.97       2.1  T
   4   -150.2031468 -0.158920E-05  0.153E-03    2.97       6.6  T
   5   -150.2031470 -0.160217E-06  0.477E-04    2.97      21.2  T
   6   -150.2031470 -0.145988E-08  0.214E-04    2.97      47.1  T
     SCC iter.                  ...        0 min,  0.125 sec
     gradient                   ...        0 min,  0.195 sec
 * total energy  :  -148.1917759 Eh     change       -0.4802405E-04 Eh
   gradient norm :     0.0034029 Eh/α   predicted    -0.3265564E-04 ( -32.00%)
   displ. norm   :     0.0573638 α      lambda       -0.2220824E-04
   maximum displ.:     0.0254920 α      in ANC's #4, #3, #1, ...

........................................................................
.............................. CYCLE   46 ..............................
........................................................................

 iter      E             dE          RMSdq      gap      omega  full diag
   1   -150.2025096 -0.150203E+03  0.714E-03    2.97       0.0  T
   2   -150.2025096 -0.658508E-07  0.418E-03    2.97       2.4  T
   3   -150.2025096  0.216164E-07  0.695E-04    2.97      14.5  T
   4   -150.2025096 -0.266255E-07  0.309E-04    2.97      32.7  T
     SCC iter.                  ...        0 min,  0.075 sec
     gradient                   ...        0 min,  0.196 sec
 * total energy  :  -148.1917963 Eh     change       -0.2037989E-04 Eh
   gradient norm :     0.0026370 Eh/α   predicted    -0.1114075E-04 ( -45.33%)
   displ. norm   :     0.2660416 α      lambda       -0.9276474E-04
   maximum displ.:     0.1162605 α      in ANC's #4, #3, #1, ...

........................................................................
.............................. CYCLE   47 ..............................
........................................................................

 iter      E             dE          RMSdq      gap      omega  full diag
   1   -150.2001075 -0.150200E+03  0.330E-02    2.97       0.0  T
   2   -150.2001087 -0.121269E-05  0.193E-02    2.97       1.0  T
   3   -150.2001082  0.523266E-06  0.322E-03    2.97       3.1  T
   4   -150.2001088 -0.626727E-06  0.138E-03    2.97       7.3  T
   5   -150.2001090 -0.124771E-06  0.505E-04    2.97      20.0  T
   6   -150.2001090 -0.288807E-08  0.234E-04    2.97      43.1  T
     SCC iter.                  ...        0 min,  0.104 sec
     gradient                   ...        0 min,  0.190 sec
 * total energy  :  -148.1918607 Eh     change       -0.6446818E-04 Eh
   gradient norm :     0.0019855 Eh/α   predicted    -0.4969840E-04 ( -22.91%)
   displ. norm   :     0.3361156 α      lambda       -0.4141734E-04
   maximum displ.:     0.1498193 α      in ANC's #4, #3, #1, ...

........................................................................
.............................. CYCLE   48 ..............................
........................................................................

 iter      E             dE          RMSdq      gap      omega  full diag
   1   -150.1987001 -0.150199E+03  0.404E-02    2.97       0.0  T
   2   -150.1987012 -0.117937E-05  0.236E-02    2.97       1.0  T
   3   -150.1987006  0.632477E-06  0.349E-03    2.97       2.9  T
   4   -150.1987014 -0.804425E-06  0.148E-03    2.97       6.8  T
   5   -150.1987015 -0.126371E-06  0.581E-04    2.97      17.4  T
   6   -150.1987015 -0.380436E-08  0.241E-04    2.97      41.9  T
     SCC iter.                  ...        0 min,  0.092 sec
     gradient                   ...        0 min,  0.197 sec
 * total energy  :  -148.1918992 Eh     change       -0.3846969E-04 Eh
   gradient norm :     0.0036753 Eh/α   predicted    -0.2175519E-04 ( -43.45%)
   displ. norm   :     0.1151294 α      lambda       -0.2728910E-04
   maximum displ.:     0.0536347 α      in ANC's #4, #3, #1, ...

........................................................................
.............................. CYCLE   49 ..............................
........................................................................

 iter      E             dE          RMSdq      gap      omega  full diag
   1   -150.1999336 -0.150200E+03  0.134E-02    2.97       0.0  T
   2   -150.1999337 -0.112557E-06  0.781E-03    2.97       1.3  T
   3   -150.1999337  0.851468E-07  0.123E-03    2.97       8.2  T
   4   -150.1999338 -0.106911E-06  0.511E-04    2.97      19.8  T
   5   -150.1999338 -0.133746E-07  0.200E-04    2.97      50.4  T
     SCC iter.                  ...        0 min,  0.059 sec
     gradient                   ...        0 min,  0.154 sec
 * total energy  :  -148.1919234 Eh     change       -0.2415427E-04 Eh
   gradient norm :     0.0025869 Eh/α   predicted    -0.1382606E-04 ( -42.76%)
   displ. norm   :     0.2579414 α      lambda       -0.6367810E-04
   maximum displ.:     0.1220401 α      in ANC's #4, #3, #1, ...

........................................................................
.............................. CYCLE   50 ..............................
........................................................................

 iter      E             dE          RMSdq      gap      omega  full diag
   1   -150.2025469 -0.150203E+03  0.297E-02    2.97       0.0  T
   2   -150.2025477 -0.744804E-06  0.173E-02    2.97       1.0  T
   3   -150.2025471  0.629789E-06  0.318E-03    2.97       3.2  T
   4   -150.2025478 -0.761453E-06  0.126E-03    2.97       8.0  T
   5   -150.2025479 -0.825453E-07  0.491E-04    2.97      20.6  T
   6   -150.2025479 -0.398649E-08  0.206E-04    2.97      49.0  T
     SCC iter.                  ...        0 min,  0.080 sec
     gradient                   ...        0 min,  0.161 sec
 * total energy  :  -148.1919716 Eh     change       -0.4819639E-04 Eh
   gradient norm :     0.0012319 Eh/α   predicted    -0.3395766E-04 ( -29.54%)
   displ. norm   :     0.4451886 α      lambda       -0.4912397E-04
   maximum displ.:     0.2134973 α      in ANC's #4, #3, #1, ...

........................................................................
.............................. CYCLE   51 ..............................
........................................................................

 iter      E             dE          RMSdq      gap      omega  full diag
   1   -150.2038592 -0.150204E+03  0.509E-02    2.98       0.0  T
   2   -150.2038611 -0.187930E-05  0.297E-02    2.98       1.0  T
   3   -150.2038593  0.182981E-05  0.540E-03    2.98       1.9  T
   4   -150.2038616 -0.229030E-05  0.203E-03    2.98       5.0  T
   5   -150.2038617 -0.173832E-06  0.836E-04    2.98      12.1  T
   6   -150.2038618 -0.145728E-07  0.322E-04    2.98      31.3  T
     SCC iter.                  ...        0 min,  0.086 sec
     gradient                   ...        0 min,  0.192 sec
 * total energy  :  -148.1920256 Eh     change       -0.5398393E-04 Eh
   gradient norm :     0.0030634 Eh/α   predicted    -0.2672655E-04 ( -50.49%)
   displ. norm   :     0.2587811 α      lambda       -0.4439873E-04
   maximum displ.:     0.1260501 α      in ANC's #3, #4, #1, ...

........................................................................
.............................. CYCLE   52 ..............................
........................................................................

 iter      E             dE          RMSdq      gap      omega  full diag
   1   -150.2036031 -0.150204E+03  0.291E-02    2.98       0.0  T
   2   -150.2036037 -0.555968E-06  0.170E-02    2.98       1.0  T
   3   -150.2036029  0.712773E-06  0.333E-03    2.98       3.0  T
   4   -150.2036038 -0.900381E-06  0.116E-03    2.98       8.7  T
   5   -150.2036039 -0.385554E-07  0.500E-04    2.98      20.2  T
   6   -150.2036039 -0.888065E-08  0.168E-04    2.98      60.0  T
     SCC iter.                  ...        0 min,  0.081 sec
     gradient                   ...        0 min,  0.168 sec
 * total energy  :  -148.1920667 Eh     change       -0.4112840E-04 Eh
   gradient norm :     0.0028334 Eh/α   predicted    -0.2368634E-04 ( -42.41%)
   displ. norm   :     0.4371616 α      lambda       -0.9313074E-04
   maximum displ.:     0.2146709 α      in ANC's #3, #4, #1, ...

........................................................................
.............................. CYCLE   53 ..............................
........................................................................

 iter      E             dE          RMSdq      gap      omega  full diag
   1   -150.2022777 -0.150202E+03  0.491E-02    2.97       0.0  T
   2   -150.2022795 -0.176442E-05  0.285E-02    2.97       1.0  T
   3   -150.2022775  0.198521E-05  0.564E-03    2.97       1.8  T
   4   -150.2022801 -0.258184E-05  0.202E-03    2.97       5.0  T
   5   -150.2022802 -0.107382E-06  0.921E-04    2.97      11.0  T
   6   -150.2022802 -0.321504E-07  0.300E-04    2.97      33.7  T
     SCC iter.                  ...        0 min,  0.105 sec
     gradient                   ...        0 min,  0.140 sec
 * total energy  :  -148.1921459 Eh     change       -0.7921494E-04 Eh
   gradient norm :     0.0017926 Eh/α   predicted    -0.5546497E-04 ( -29.98%)
   displ. norm   :     0.7666479 α      lambda       -0.9550884E-04
   maximum displ.:     0.3800945 α      in ANC's #3, #4, #1, ...

........................................................................
.............................. CYCLE   54 ..............................
........................................................................

 iter      E             dE          RMSdq      gap      omega  full diag
   1   -150.1980884 -0.150198E+03  0.836E-02    2.97       0.0  T
   2   -150.1980936 -0.520578E-05  0.485E-02    2.97       1.0  T
   3   -150.1980867  0.689406E-05  0.104E-02    2.97       1.0  T
   4   -150.1980955 -0.881479E-05  0.351E-03    2.97       2.9  T
   5   -150.1980958 -0.268671E-06  0.161E-03    2.97       6.3  T
   6   -150.1980959 -0.115151E-06  0.502E-04    2.97      20.1  T
   7   -150.1980959 -0.146495E-07  0.214E-04    2.97      47.2  T
     SCC iter.                  ...        0 min,  0.116 sec
     gradient                   ...        0 min,  0.159 sec
 * total energy  :  -148.1922333 Eh     change       -0.8739552E-04 Eh
   gradient norm :     0.0041895 Eh/α   predicted    -0.6022978E-04 ( -31.08%)
   displ. norm   :     0.1703455 α      lambda       -0.4393219E-04
   maximum displ.:     0.0855349 α      in ANC's #3, #4, #1, ...

........................................................................
.............................. CYCLE   55 ..............................
........................................................................

 iter      E             dE          RMSdq      gap      omega  full diag
   1   -150.1993456 -0.150199E+03  0.161E-02    2.97       0.0  T
   2   -150.1993459 -0.280218E-06  0.929E-03    2.97       1.1  T
   3   -150.1993458  0.986490E-07  0.155E-03    2.97       6.5  T
   4   -150.1993459 -0.155155E-06  0.671E-04    2.97      15.1  T
   5   -150.1993460 -0.176378E-07  0.321E-04    2.97      31.4  T
     SCC iter.                  ...        0 min,  0.092 sec
     gradient                   ...        0 min,  0.158 sec
 * total energy  :  -148.1922714 Eh     change       -0.3812558E-04 Eh
   gradient norm :     0.0030214 Eh/α   predicted    -0.2260598E-04 ( -40.71%)
   displ. norm   :     0.3943649 α      lambda       -0.1080556E-03
   maximum displ.:     0.2015511 α      in ANC's #3, #4, #1, ...

........................................................................
.............................. CYCLE   56 ..............................
........................................................................

 iter      E             dE          RMSdq      gap      omega  full diag
   1   -150.2018587 -0.150202E+03  0.368E-02    2.98       0.0  T
   2   -150.2018602 -0.148721E-05  0.212E-02    2.98       1.0  T
   3   -150.2018599  0.275645E-06  0.326E-03    2.98       3.1  T
   4   -150.2018605 -0.525976E-06  0.154E-03    2.98       6.6  T
   5   -150.2018606 -0.106360E-06  0.729E-04    2.98      13.9  T
   6   -150.2018606 -0.157106E-07  0.274E-04    2.98      36.8  T
     SCC iter.                  ...        0 min,  0.108 sec
     gradient                   ...        0 min,  0.158 sec
 * total energy  :  -148.1923573 Eh     change       -0.8587913E-04 Eh
   gradient norm :     0.0024048 Eh/α   predicted    -0.6243568E-04 ( -27.30%)
   displ. norm   :     0.5176945 α      lambda       -0.1054399E-03
   maximum displ.:     0.2666398 α      in ANC's #3, #4, #1, ...

........................................................................
.............................. CYCLE   57 ..............................
........................................................................

 iter      E             dE          RMSdq      gap      omega  full diag
   1   -150.2024534 -0.150202E+03  0.499E-02    2.98       0.0  T
   2   -150.2024556 -0.219313E-05  0.288E-02    2.98       1.0  T
   3   -150.2024545  0.108484E-05  0.503E-03    2.98       2.0  T
   4   -150.2024561 -0.159244E-05  0.213E-03    2.98       4.7  T
   5   -150.2024563 -0.167447E-06  0.937E-04    2.98      10.8  T
   6   -150.2024563 -0.261819E-07  0.365E-04    2.98      27.7  T
     SCC iter.                  ...        0 min,  0.104 sec
     gradient                   ...        0 min,  0.159 sec
 * total energy  :  -148.1924445 Eh     change       -0.8724725E-04 Eh
   gradient norm :     0.0027421 Eh/α   predicted    -0.6685021E-04 ( -23.38%)
   displ. norm   :     0.5482870 α      lambda       -0.1006371E-03
   maximum displ.:     0.2846311 α      in ANC's #3, #4, #1, ...

........................................................................
.............................. CYCLE   58 ..............................
........................................................................

 iter      E             dE          RMSdq      gap      omega  full diag
   1   -150.2018583 -0.150202E+03  0.530E-02    2.99       0.0  T
   2   -150.2018607 -0.238664E-05  0.307E-02    2.99       1.0  T
   3   -150.2018589  0.177459E-05  0.590E-03    2.99       1.7  T
   4   -150.2018612 -0.234305E-05  0.235E-03    2.99       4.3  T
   5   -150.2018615 -0.218026E-06  0.976E-04    2.99      10.3  T
   6   -150.2018615 -0.258397E-07  0.378E-04    2.99      26.8  T
     SCC iter.                  ...        0 min,  0.096 sec
     gradient                   ...        0 min,  0.171 sec
 * total energy  :  -148.1925279 Eh     change       -0.8337803E-04 Eh
   gradient norm :     0.0026242 Eh/α   predicted    -0.6544658E-04 ( -21.51%)
   displ. norm   :     0.5113986 α      lambda       -0.9127002E-04
   maximum displ.:     0.2670815 α      in ANC's #3, #4, #1, ...

........................................................................
.............................. CYCLE   59 ..............................
........................................................................

 iter      E             dE          RMSdq      gap      omega  full diag
   1   -150.2015052 -0.150202E+03  0.484E-02    2.99       0.0  T
   2   -150.2015072 -0.200285E-05  0.281E-02    2.99       1.0  T
   3   -150.2015052  0.198790E-05  0.588E-03    2.99       1.7  T
   4   -150.2015076 -0.246979E-05  0.219E-03    2.99       4.6  T
   5   -150.2015078 -0.204539E-06  0.865E-04    2.99      11.7  T
   6   -150.2015079 -0.172297E-07  0.337E-04    2.99      30.0  T
[...]
       129        1.9974           -0.3948756             -10.7451
       130        1.9732           -0.3926408             -10.6843
       131        1.9519           -0.3920633             -10.6686
       132        1.8260           -0.3907069             -10.6317
       133        1.7824           -0.3904432             -10.6245
       134        1.4691           -0.3891097             -10.5882
       135        0.5491           -0.2489588              -6.7745 (HOMO)
       136        0.4509           -0.2485844              -6.7643 (LUMO)
       137        0.0000           -0.2384631              -6.4889
       138        0.0000           -0.2381404              -6.4801
       139                         -0.2219934              -6.0407
       140                         -0.2215000              -6.0273
       ...                                ...                  ...
       258                          0.6774753              18.4350
      -------------------------------------------------------------
                  HL-Gap            0.0003744 Eh            0.0102 eV
             Fermi-level           -0.3189995 Eh           -8.6804 eV

 transition dipole moment (au) for excitation:         134         135
     X       Y       Z   
   0.1726   1.1710  -0.0425  total (au/Debye):    1.184   3.011
 dE (eV)             :    3.814
 oscillator strength :  0.18536E+00

 SCC (total)                   0 d,  0 h,  0 min,  0.829 sec
 SCC setup                      ...        0 min,  0.002 sec (  0.190%)
 Dispersion                     ...        0 min,  0.002 sec (  0.297%)
 classical contributions        ...        0 min,  0.001 sec (  0.091%)
 integral evaluation            ...        0 min,  0.081 sec (  9.779%)
 iterations                     ...        0 min,  0.496 sec ( 59.885%)
 molecular gradient             ...        0 min,  0.222 sec ( 26.785%)
 printout                       ...        0 min,  0.025 sec (  2.972%)

         :::::::::::::::::::::::::::::::::::::::::::::::::::::
         ::                     SUMMARY                     ::
         :::::::::::::::::::::::::::::::::::::::::::::::::::::
         :: total energy            -148.061232133854 Eh    ::
         :: gradient norm              0.096129834180 Eh/a0 ::
         :: HOMO-LUMO gap              0.010187708190 eV    ::
         ::.................................................::
         :: SCC energy              -150.064456373489 Eh    ::
         :: -> isotropic ES            0.190318969065 Eh    ::
         :: -> anisotropic ES          0.003023984338 Eh    ::
         :: -> anisotropic XC          0.059439132016 Eh    ::
         :: -> dispersion             -0.122766060524 Eh    ::
         :: repulsion energy           2.003224239634 Eh    ::
         :: add. restraining           0.000000000000 Eh    ::
         :: total charge              -0.000000000000 e     ::
         :::::::::::::::::::::::::::::::::::::::::::::::::::::

           -------------------------------------------------
          |                Property Printout                |
           -------------------------------------------------

    * Orbital Energies and Occupations

         #    Occupation            Energy/Eh            Energy/eV
      -------------------------------------------------------------
         1        2.0000           -0.7328665             -19.9423
       ...           ...                  ...                  ...
       123        2.0000           -0.4121393             -11.2149
       124        2.0000           -0.4095442             -11.1443
       125        2.0000           -0.4086805             -11.1208
       126        2.0000           -0.4059037             -11.0452
       127        2.0000           -0.4039801             -10.9929
       128        2.0000           -0.4017762             -10.9329
       129        1.9974           -0.3948756             -10.7451
       130        1.9732           -0.3926408             -10.6843
       131        1.9519           -0.3920633             -10.6686
       132        1.8260           -0.3907069             -10.6317
       133        1.7824           -0.3904432             -10.6245
       134        1.4691           -0.3891097             -10.5882
       135        0.5491           -0.2489588              -6.7745 (HOMO)
       136        0.4509           -0.2485844              -6.7643 (LUMO)
       137        0.0000           -0.2384631              -6.4889
       138        0.0000           -0.2381404              -6.4801
       139                         -0.2219934              -6.0407
       140                         -0.2215000              -6.0273
       141                         -0.2203707              -5.9966
       142                         -0.2078376              -5.6555
       143                         -0.2004190              -5.4537
       144                         -0.1984528              -5.4002
       145                         -0.1921250              -5.2280
       146                         -0.1896640              -5.1610
       ...                                ...                  ...
       258                          0.6774753              18.4350
      -------------------------------------------------------------
                  HL-Gap            0.0003744 Eh            0.0102 eV
             Fermi-level           -0.3189995 Eh           -8.6804 eV

     #   Z          covCN         q      C6AA      α(0)
     1   8 O        0.857    -0.468    23.090     6.442
     2   6 C        2.659     0.402    20.213     7.356
     3   7 N        2.691    -0.181    24.916     7.413
     4   6 C        3.797     0.045    19.827     6.340
     5   6 C        3.812    -0.075    21.931     6.666
     6   6 C        2.972     0.021    27.529     8.606
     7   6 C        2.925    -0.035    28.863     8.810
     8   6 C        2.919    -0.027    28.686     8.783
     9   6 C        2.920    -0.027    28.673     8.781
    10   6 C        2.919    -0.027    28.664     8.780
    11   6 C        2.925    -0.032    28.801     8.801
    12   6 C        3.727     0.107    18.924     6.211
    13   6 C        3.804    -0.081    22.047     6.685
    14   6 C        3.789     0.045    19.825     6.341
    15   7 N        2.691    -0.177    24.837     7.402
    16   6 C        2.747     0.276    22.327     7.737
    17   6 C        3.796     0.020    20.244     6.407
    18   7 N        2.693    -0.217    25.727     7.533
    19   6 C        2.702     0.319    21.581     7.604
    20   7 N        2.740    -0.119    23.585     7.213
    21   6 C        3.693    -0.053    21.719     6.668
    22   6 C        3.756     0.001    20.625     6.475
    23   6 C        3.219     0.072    25.708     8.246
    24   6 C        2.924    -0.042    29.054     8.839
    25  16 S        2.287    -0.089   144.746    20.249
    26   6 C        3.026     0.098    25.811     8.333
    27   6 C        3.870    -0.010    20.711     6.471
    28   6 C        3.758    -0.104    22.534     6.768
    29   6 C        3.758    -0.105    22.558     6.771
    30   7 N        1.967    -0.266    27.735     7.810
    31   8 O        0.859    -0.506    23.916     6.557
    32   6 C        3.852    -0.013    20.768     6.482
    33   6 C        3.755    -0.109    22.646     6.785
    34   6 C        3.756    -0.117    22.794     6.807
    35   8 O        0.858    -0.426    22.206     6.318
    36   6 C        3.811    -0.079    22.005     6.677
    37   6 C        2.969     0.014    27.691     8.632
    38   6 C        2.925    -0.045    29.127     8.851
    39   6 C        2.918    -0.036    28.903     8.816
    40   6 C        2.920    -0.035    28.860     8.810
    41   6 C        2.919    -0.029    28.727     8.789
    42   6 C        2.925    -0.035    28.873     8.812
    43   8 O        1.655    -0.462    22.088     6.344
    44   8 O        1.706    -0.308    19.135     5.906
    45   6 C        3.722     0.088    19.228     6.262
    46   6 C        2.972    -0.013    28.323     8.730
    47   6 C        3.193     0.029    26.854     8.451
    48   7 N        1.958    -0.214    26.468     7.629
    49   6 C        2.992     0.056    26.740     8.483
    50  16 S        2.284    -0.081   144.442    20.228
    51   1 H        0.860     0.207     1.071     1.621
    52   1 H        0.924     0.071     2.070     2.250
    53   1 H        0.924     0.066     2.133     2.284
    54   1 H        0.924     0.060     2.199     2.319
    55   1 H        0.926     0.035     2.513     2.479
    56   1 H        0.926     0.034     2.534     2.489
    57   1 H        0.926     0.034     2.526     2.485
    58   1 H        0.926     0.036     2.500     2.472
    59   1 H        0.926     0.040     2.447     2.446
    60   1 H        0.924     0.040     2.455     2.450
    61   1 H        0.924     0.050     2.322     2.383
    62   1 H        0.924     0.051     2.309     2.376
    63   1 H        0.924     0.071     2.080     2.255
    64   1 H        0.860     0.175     1.245     1.748
    65   1 H        0.924     0.084     1.939     2.177
    66   1 H        0.860     0.175     1.240     1.745
    67   1 H        0.925     0.092     1.859     2.132
    68   1 H        0.924     0.049     2.337     2.391
    69   1 H        0.924     0.050     2.319     2.382
    70   1 H        0.924     0.061     2.190     2.314
    71   1 H        0.924     0.075     2.034     2.230
    72   1 H        0.927     0.047     2.364     2.404
    73   1 H        0.924     0.039     2.457     2.451
    74   1 H        0.925     0.044     2.396     2.421
    75   1 H        0.925     0.050     2.325     2.385
    76   1 H        0.925     0.040     2.446     2.446
    77   1 H        0.925     0.043     2.409     2.427
    78   1 H        0.925     0.037     2.487     2.466
    79   1 H        0.925     0.049     2.337     2.391
    80   1 H        0.924     0.037     2.490     2.467
    81   1 H        0.925     0.047     2.360     2.402
    82   1 H        0.925     0.026     2.644     2.543
    83   1 H        0.925     0.049     2.330     2.387
    84   1 H        0.925     0.070     2.085     2.258
    85   1 H        0.925     0.042     2.421     2.433
    86   1 H        0.925     0.045     2.382     2.413
    87   1 H        0.925     0.069     2.101     2.267
    88   1 H        0.924     0.054     2.274     2.358
    89   1 H        0.925     0.029     2.602     2.522
    90   1 H        0.925     0.023     2.695     2.567
    91   1 H        0.926     0.031     2.575     2.510
    92   1 H        0.926     0.035     2.517     2.481
    93   1 H        0.926     0.042     2.417     2.431
    94   1 H        0.804     0.327     0.645     1.261
    95   1 H        0.924     0.059     2.205     2.322
    96   1 H        0.924     0.061     2.188     2.313
    97   1 H        0.926     0.061     2.193     2.316
    98   1 H        0.926     0.041     2.434     2.440

 Mol. C6AA /au·bohr⁶  :     109707.462830
 Mol. C8AA /au·bohr⁸  :    2701276.335656
 Mol. α(0) /au        :        512.424094


Wiberg/Mayer (AO) data.
largest (>0.10) Wiberg bond orders for each atom

 ---------------------------------------------------------------------------
     #   Z sym  total        # sym  WBO       # sym  WBO       # sym  WBO
 ---------------------------------------------------------------------------
     1   8 O    1.966 --     2 C    1.627     3 N    0.161    44 O    0.128
     2   6 C    3.940 --     1 O    1.627     3 N    1.225    44 O    1.038
     3   7 N    3.406 --     2 C    1.225     4 C    0.989    51 H    0.925
                             1 O    0.161
     4   6 C    3.947 --     3 N    0.989     5 C    0.959    12 C    0.959
                            52 H    0.957
     5   6 C    3.978 --     6 C    1.016    53 H    0.969    54 H    0.966
                             4 C    0.959
     6   6 C    3.957 --     7 C    1.401    11 C    1.394     5 C    1.016
     7   6 C    3.981 --     8 C    1.451     6 C    1.401    55 H    0.969
                            10 C    0.109
     8   6 C    3.982 --     7 C    1.451     9 C    1.427    56 H    0.971
                            11 C    0.107
     9   6 C    3.957 --    10 C    1.429     8 C    1.427    57 H    0.971
    10   6 C    3.989 --    11 C    1.454     9 C    1.429    58 H    0.971
                             7 C    0.109
    11   6 C    3.973 --    10 C    1.454     6 C    1.394    59 H    0.969
                             8 C    0.107
    12   6 C    3.950 --    43 O    1.002    13 C    0.975     4 C    0.959
                            60 H    0.957
    13   6 C    3.986 --    14 C    0.986    12 C    0.975    62 H    0.969
                            61 H    0.968
    14   6 C    3.962 --    13 C    0.986    15 N    0.978    36 C    0.967
                            63 H    0.958
    15   7 N    3.446 --    16 C    1.273    14 C    0.978    64 H    0.919
                            35 O    0.193
    16   6 C    3.943 --    35 O    1.672    15 N    1.273    17 C    0.918
    17   6 C    3.945 --    18 N    0.991    32 C    0.966    65 H    0.943
                            16 C    0.918
    18   7 N    3.358 --    19 C    1.161    17 C    0.991    66 H    0.929
                            31 O    0.139
    19   6 C    3.961 --    31 O    1.546    20 N    1.177    18 N    1.161
    20   7 N    3.417 --    19 C    1.177    21 C    1.000    22 C    0.967
                            31 O    0.141
    21   6 C    3.964 --    20 N    1.000    69 H    0.977    67 H    0.968
                            68 H    0.968
    22   6 C    3.963 --    23 C    0.993    20 N    0.967    70 H    0.964
                            71 H    0.963
    23   6 C    3.812 --    24 C    1.378    30 N    1.292    22 C    0.993
    24   6 C    3.684 --    23 C    1.378    25 S    1.222    72 H    0.969
    25  16 S    2.420 --    24 C    1.222    26 C    0.987    30 N    0.117
    26   6 C    3.635 --    30 N    1.495    27 C    1.017    25 S    0.987
    27   6 C    3.989 --    26 C    1.017    29 C    0.989    28 C    0.978
                            73 H    0.967
    28   6 C    3.974 --    76 H    0.987    75 H    0.986    74 H    0.982
                            27 C    0.978
    29   6 C    3.984 --    27 C    0.989    78 H    0.987    79 H    0.986
                            77 H    0.984
    30   7 N    3.056 --    26 C    1.495    23 C    1.292    25 S    0.117
    31   8 O    1.925 --    19 C    1.546    20 N    0.141    18 N    0.139
    32   6 C    3.988 --    34 C    1.009    33 C    1.009    17 C    0.966
                            80 H    0.965
    33   6 C    3.995 --    32 C    1.009    81 H    0.985    83 H    0.984
                            82 H    0.982
    34   6 C    3.989 --    32 C    1.009    85 H    0.986    86 H    0.984
                            84 H    0.979
    35   8 O    1.990 --    16 C    1.672    15 N    0.193
    36   6 C    3.989 --    37 C    1.015    88 H    0.971    14 C    0.967
                            87 H    0.965
    37   6 C    3.989 --    42 C    1.409    38 C    1.406    36 C    1.015
                            40 C    0.109
    38   6 C    3.991 --    39 C    1.443    37 C    1.406    89 H    0.968
                            41 C    0.109
    39   6 C    3.992 --    38 C    1.443    40 C    1.436    90 H    0.970
                            42 C    0.110
    40   6 C    3.992 --    41 C    1.437    39 C    1.436    91 H    0.971
                            37 C    0.109
    41   6 C    3.992 --    42 C    1.446    40 C    1.437    92 H    0.971
                            38 C    0.109
    42   6 C    3.991 --    41 C    1.446    37 C    1.409    93 H    0.966
                            39 C    0.110
    43   8 O    1.943 --    12 C    1.002    94 H    0.851
    44   8 O    2.211 --     2 C    1.038    45 C    0.936     1 O    0.128
    45   6 C    3.928 --    46 C    1.013    96 H    0.968    95 H    0.958
                            44 O    0.936
    46   6 C    3.728 --    47 C    1.454    50 S    1.145    45 C    1.013
    47   6 C    3.841 --    46 C    1.454    48 N    1.299    97 H    0.955
    48   7 N    3.012 --    49 C    1.527    47 C    1.299    50 S    0.110
    49   6 C    3.666 --    48 N    1.527    50 S    1.072    98 H    0.964
    50  16 S    2.427 --    46 C    1.145    49 C    1.072    48 N    0.110
    51   1 H    0.957 --     3 N    0.925
    52   1 H    0.995 --     4 C    0.957
    53   1 H    0.995 --     5 C    0.969
    54   1 H    0.994 --     5 C    0.966
    55   1 H    0.999 --     7 C    0.969
    56   1 H    0.999 --     8 C    0.971
    57   1 H    0.998 --     9 C    0.971
    58   1 H    0.998 --    10 C    0.971
    59   1 H    0.998 --    11 C    0.969
    60   1 H    0.998 --    12 C    0.957
    61   1 H    0.997 --    13 C    0.968
    62   1 H    0.996 --    13 C    0.969
    63   1 H    0.994 --    14 C    0.958
    64   1 H    0.969 --    15 N    0.919
    65   1 H    0.990 --    17 C    0.943
    66   1 H    0.969 --    18 N    0.929
    67   1 H    0.990 --    21 C    0.968
    68   1 H    0.994 --    21 C    0.968
    69   1 H    0.997 --    21 C    0.977
    70   1 H    0.995 --    22 C    0.964
    71   1 H    0.993 --    22 C    0.963
    72   1 H    0.997 --    24 C    0.969
    73   1 H    0.997 --    27 C    0.967
    74   1 H    0.995 --    28 C    0.982
    75   1 H    0.997 --    28 C    0.986
    76   1 H    0.998 --    28 C    0.987
    77   1 H    0.997 --    29 C    0.984
    78   1 H    0.998 --    29 C    0.987
    79   1 H    0.997 --    29 C    0.986
    80   1 H    0.997 --    32 C    0.965
    81   1 H    0.998 --    33 C    0.985
    82   1 H    0.999 --    33 C    0.982
    83   1 H    0.998 --    33 C    0.984
    84   1 H    0.995 --    34 C    0.979
    85   1 H    0.998 --    34 C    0.986
    86   1 H    0.997 --    34 C    0.984
    87   1 H    0.994 --    36 C    0.965
    88   1 H    0.996 --    36 C    0.971
    89   1 H    0.999 --    38 C    0.968
    90   1 H    0.999 --    39 C    0.970
    91   1 H    0.999 --    40 C    0.971
    92   1 H    0.998 --    41 C    0.971
    93   1 H    0.998 --    42 C    0.966
    94   1 H    0.892 --    43 O    0.851
    95   1 H    0.993 --    45 C    0.958
    96   1 H    0.993 --    45 C    0.968
    97   1 H    0.995 --    47 C    0.955
    98   1 H    0.996 --    49 C    0.964
 ---------------------------------------------------------------------------

Topologies differ in total number of bonds
Writing topology from bond orders to xtbtopo.mol

molecular dipole:
                 x           y           z       tot (Debye)
 q only:        2.144       1.249       0.502
   full:        2.353       1.496       0.383       7.155
molecular quadrupole (traceless):
                xx          xy          yy          xz          yz          zz
 q only:       -8.872      27.454       8.651       7.054       1.381       0.221
  q+dip:       -4.085      34.887       4.094      11.801       4.943      -0.009
   full:       -4.181      31.324       6.825      12.437       5.217      -2.643


           -------------------------------------------------
          | TOTAL ENERGY             -148.061232133854 Eh   |
          | GRADIENT NORM               0.096129834180 Eh/α |
          | HOMO-LUMO GAP               0.010187708190 eV   |
           -------------------------------------------------

------------------------------------------------------------------------
 * finished run on 2025/05/15 at 16:22:16.500     
------------------------------------------------------------------------
 total:
 * wall-time:     0 d,  0 h,  0 min,  0.904 sec
 *  cpu-time:     0 d,  0 h,  0 min,  0.525 sec
 * ratio c/w:     0.581 speedup
 SCF:
 * wall-time:     0 d,  0 h,  0 min,  0.830 sec
 *  cpu-time:     0 d,  0 h,  0 min,  0.491 sec
 * ratio c/w:     0.592 speedup


