52
 energy: -76.357980956763 gnorm: 0.000325295586 xtb: 6.7.1 (edcfbbe)
H            0.49039632958309       -0.63729908061508       -1.70413137330148
C            0.71251217250604       -0.53636268526200       -0.63097978778465
C            2.04377023401266        0.10613004385800       -0.44783813887242
N            2.42852044259397        1.28790748470028       -1.03035541372489
C            3.70328939962227        1.57910685744956       -0.63071642320293
C            4.13528781223202        0.54357260266352        0.23783274817450
C            5.41305108238097        0.60495920547447        0.79183059794026
C            6.21890232177116        1.67554892493334        0.47481484615367
C            5.78060726890869        2.68739607566506       -0.38308803291601
C            4.52184065319784        2.65446155569588       -0.94556886200832
C            3.05133019315917       -0.37709213401432        0.33394640842882
C            2.90940804147827       -1.65872772638578        1.08168721837689
C            1.41516232451751       -1.96674614223913        1.21457720396536
N            0.77784550574127       -1.88579087675374       -0.08882018600985
C           -0.50376776764226       -2.54615448472726       -0.18889219447946
C           -1.65527984113351       -1.78300489873942        0.48580035026152
C           -2.97879037245642       -2.52621720560922        0.33733723347269
C           -4.09904831098623       -1.75070625065540        1.02343464242098
C           -4.22530953797681       -0.34777100153987        0.42398189523990
C           -2.88249570073864        0.40527651985939        0.52917809852624
C           -1.75450635505446       -0.38591422943452       -0.13617530111486
C           -0.40627965147516        0.31957679008330        0.00461911187914
H           -1.99763979983221       -0.48780119073116       -1.19810964367843
C           -3.13213326659771        1.77655787932211       -0.07096631001073
O           -2.69296203199480        1.89562836908615       -1.32287865313100
C           -2.99534467509849        3.12201605756055       -1.97182642097701
O           -3.70479139092312        2.65782676036811        0.51733849130685
O           -4.58898031065449       -0.38647955406913       -0.93950395655066
H           -1.42792577169571       -1.68019137933370        1.55349961483937
H            1.87084791323033        1.83843159341471       -1.66004786542935
H            5.75905903944608       -0.17428247912300        1.45477284454997
H            7.21245374501265        1.74099204901094        0.89415741926536
H            6.44291062111302        3.51040573837406       -0.60809557325643
H            4.18327999987642        3.43736410981232       -1.60898388150883
H            3.36880897214174       -1.59103588297935        2.06990227284592
H            3.40173591181167       -2.46586350781550        0.53202562900522
H            0.97552473686564       -1.27050689340157        1.94707113414301
H            1.27827286061016       -2.98270502129383        1.59168788637044
H           -0.41208969657593       -3.54608166958354        0.24261297525704
H           -0.73189771017865       -2.65941145379203       -1.25486120971715
H           -3.21185434801603       -2.63420355748881       -0.72412585660658
H           -2.89935153810697       -3.52516295895062        0.77109175232273
H           -5.04978458601432       -2.27897090879393        0.90873384220468
H           -3.89302538187122       -1.65965801473435        2.09110967065671
H           -4.98050851381145        0.22483371262412        0.98937687617179
H           -2.66978110751526        0.55233738698762        1.59294380062588
H           -0.43410835868376        1.29334389986283       -0.48432207239243
H           -0.18039569306042        0.48188029533099        1.06146227605664
H           -2.55285381935638        3.95967624714379       -1.42760227759930
H           -4.07614858397355        3.26745178826407       -2.01814140577612
H           -2.57730055027543        3.04909237612788       -2.97265012275274
H           -5.38056291011302       -0.92773313560921       -1.03104587766182
