----- Optimization -----
      -----------------------------------------------------------      
     |                   =====================                   |     
     |                           x T B                           |     
     |                   =====================                   |     
     |                         S. Grimme                         |     
     |          Mulliken Center for Theoretical Chemistry        |     
     |                    University of Bonn                     |     
      -----------------------------------------------------------      

   * xtb version 6.7.1 (edcfbbe) compiled by 'conda@3ef47c1a292c' on 2024-11-25

   xtb is free software: you can redistribute it and/or modify it under
   the terms of the GNU Lesser General Public License as published by
   the Free Software Foundation, either version 3 of the License, or
   (at your option) any later version.
   
   xtb is distributed in the hope that it will be useful,
   but WITHOUT ANY WARRANTY; without even the implied warranty of
   MERCHANTABILITY or FITNESS FOR A PARTICULAR PURPOSE.  See the
   GNU Lesser General Public License for more details.
   
   Cite this work as:
   * C. Bannwarth, E. Caldeweyher, S. Ehlert, A. Hansen, P. Pracht,
     J. Seibert, S. Spicher, S. Grimme, WIREs Comput. Mol. Sci., 2020, 11,
     e01493. DOI: 10.1002/wcms.1493
   
   for GFN2-xTB:
   * C. Bannwarth, S. Ehlert and S. Grimme., J. Chem. Theory Comput., 2019,
     15, 1652-1671. DOI: 10.1021/acs.jctc.8b01176
   for GFN1-xTB:
   * S. Grimme, C. Bannwarth, P. Shushkov, J. Chem. Theory Comput., 2017,
     13, 1989-2009. DOI: 10.1021/acs.jctc.7b00118
   for GFN0-xTB:
   * P. Pracht, E. Caldeweyher, S. Ehlert, S. Grimme, ChemRxiv, 2019, preprint.
     DOI: 10.26434/chemrxiv.8326202.v1
   for GFN-FF:
   * S. Spicher and S. Grimme, Angew. Chem. Int. Ed., 2020, 59, 15665-15673.
     DOI: 10.1002/anie.202004239
   
   for ALPB and GBSA implicit solvation:
   * S. Ehlert, M. Stahn, S. Spicher, S. Grimme, J. Chem. Theory Comput.,
     2021, 17, 4250-4261. DOI: 10.1021/acs.jctc.1c00471
   
   for ddCOSMO and CPCM-X implicit solvation:
   * M. Stahn, S. Ehlert, S. Grimme, J. Phys. Chem. A,
     2023, XX, XXXX-XXXX. DOI: 10.1021/acs.jpca.3c04382
   
   for DFT-D4:
   * E. Caldeweyher, C. Bannwarth and S. Grimme, J. Chem. Phys., 2017,
     147, 034112. DOI: 10.1063/1.4993215
   * E. Caldeweyher, S. Ehlert, A. Hansen, H. Neugebauer, S. Spicher,
     C. Bannwarth and S. Grimme, J. Chem. Phys., 2019, 150, 154122.
     DOI: 10.1063/1.5090222
   * E. Caldeweyher, J.-M. Mewes, S. Ehlert and S. Grimme, Phys. Chem. Chem. Phys.
     2020, 22, 8499-8512. DOI: 10.1039/D0CP00502A
   
   for sTDA-xTB:
   * S. Grimme and C. Bannwarth, J. Chem. Phys., 2016, 145, 054103.
     DOI: 10.1063/1.4959605
   
   in the mass-spec context:
   * V. Asgeirsson, C. Bauer and S. Grimme, Chem. Sci., 2017, 8, 4879.
     DOI: 10.1039/c7sc00601b
   * J. Koopman and S. Grimme, ACS Omega 2019, 4, 12, 15120-15133.
     DOI: 10.1021/acsomega.9b02011
   
   for metadynamics refer to:
   * S. Grimme, J. Chem. Theory Comput., 2019, 155, 2847-2862
     DOI: 10.1021/acs.jctc.9b00143
   
   for SPH calculations refer to:
   * S. Spicher and S. Grimme, J. Chem. Theory Comput., 2021, 17, 1701-1714
     DOI: 10.1021/acs.jctc.0c01306
   
   for ONIOM refer to:
   * C. Plett, A. Katbashev, S. Ehlert, S. Grimme, M. Bursch,
     Phys. Chem. Chem. Phys., 2023, 25, 17860-17868. DOI: 10.1039/D3CP02178E
   
   for DIPRO refer to:
   * J. Kohn, N. Gildemeister, S. Grimme, D. Fazzi, A. Hansen,
     J. Chem. Phys., 2023, just accepted.
   
   for PTB refer to:
   * S. Grimme, M. Mueller, A. Hansen, J. Chem. Phys., 2023, 158, 124111.
     DOI: 10.1063/5.0137838
   
   with help from (in alphabetical order)
   P. Atkinson, C. Bannwarth, F. Bohle, G. Brandenburg, E. Caldeweyher
   M. Checinski, S. Dohm, S. Ehlert, S. Ehrlich, I. Gerasimov, C. Hölzer
   A. Katbashev, J. Kohn, J. Koopman, C. Lavigne, S. Lehtola, F. März, M. Müller,
   F. Musil, H. Neugebauer, J. Pisarek, C. Plett, P. Pracht, F. Pultar,
   J. Seibert, P. Shushkov, S. Spicher, M. Stahn, M. Steiner, T. Strunk,
   J. Stückrath, T. Rose, and J. Unsleber
   
 * started run on 2025/05/15 at 16:39:07.943     
   ID    Z sym.   atoms
    1    1 H      1, 23, 29-52
    2    6 C      2, 3, 5-13, 15-22, 24, 26
    3    7 N      4, 14
    4    8 O      25, 27, 28

           -------------------------------------------------
          |                Calculation Setup                |
           -------------------------------------------------

          program call               : xtb /rds/general/user/hgt20/home/callum/QDESCP/Yohimbine_rdkit_conf_9/Yohimbine_rdkit_conf_9.xyz --opt normal --acc 1 --gfn 2 --chrg 0 --uhf 0 -P 1
          hostname                   : login-c
          coordinate file            : /rds/general/user/hgt20/home/callum/QDESCP/Yohimbine_rdkit_conf_9/Yohimbine_rdkit_conf_9.xyz
          omp threads                :                     1


           -------------------------------------------------
          |                 G F N 2 - x T B                 |
           -------------------------------------------------

        Reference                      10.1021/acs.jctc.8b01176
      * Hamiltonian:
        H0-scaling (s, p, d)           1.850000    2.230000    2.230000
        zeta-weighting                 0.500000
      * Dispersion:
        s8                             2.700000
        a1                             0.520000
        a2                             5.000000
        s9                             5.000000
      * Repulsion:
        kExp                           1.500000    1.000000
        rExp                           1.000000
      * Coulomb:
        alpha                          2.000000
        third order                    shell-resolved
        anisotropic                    true
        a3                             3.000000
        a5                             4.000000
        cn-shift                       1.200000
        cn-exp                         4.000000
        max-rad                        5.000000


          ...................................................
          :                      SETUP                      :
          :.................................................:
          :  # basis functions                 130          :
          :  # atomic orbitals                 130          :
          :  # shells                           78          :
          :  # electrons                       138          :
          :  max. iterations                   250          :
          :  Hamiltonian                  GFN2-xTB          :
          :  restarted?                      false          :
          :  GBSA solvation                  false          :
          :  PC potential                    false          :
          :  electronic temp.          300.0000000     K    :
          :  accuracy                    1.0000000          :
          :  -> integral cutoff          0.2500000E+02      :
          :  -> integral neglect         0.1000000E-07      :
          :  -> SCF convergence          0.1000000E-05 Eh   :
          :  -> wf. convergence          0.1000000E-03 e    :
          :  Broyden damping             0.4000000          :
          :  net charge                          0          :
          :  unpaired electrons                  0          :
          ...................................................

 iter      E             dE          RMSdq      gap      omega  full diag
   1    -77.1758359 -0.771758E+02  0.357E+00    3.10       0.0  T
   2    -77.3008191 -0.124983E+00  0.209E+00    2.84       1.0  T
   3    -77.3040108 -0.319169E-02  0.114E+00    3.31       1.0  T
   4    -77.3119285 -0.791766E-02  0.440E-01    2.82       1.0  T
   5    -77.3203179 -0.838946E-02  0.127E-01    2.77       1.0  T
   6    -77.3208494 -0.531422E-03  0.550E-02    2.81       1.0  T
   7    -77.3208900 -0.406239E-04  0.244E-02    2.81       1.0  T
   8    -77.3208923 -0.228696E-05  0.108E-02    2.82       1.3  T
   9    -77.3208954 -0.313154E-05  0.310E-03    2.82       4.5  T
  10    -77.3208955 -0.749119E-07  0.145E-03    2.82       9.5  T
  11    -77.3208955 -0.236618E-07  0.706E-04    2.82      19.7  T
  12    -77.3208955 -0.790686E-08  0.262E-04    2.82      53.0  T

   *** convergence criteria satisfied after 12 iterations ***

         #    Occupation            Energy/Eh            Energy/eV
      -------------------------------------------------------------
         1        2.0000           -0.7392865             -20.1170
       ...           ...                  ...                  ...
        63        2.0000           -0.4144978             -11.2791
        64        2.0000           -0.4080150             -11.1027
        65        2.0000           -0.4061491             -11.0519
        66        2.0000           -0.4005533             -10.8996
        67        2.0000           -0.3745972             -10.1933
        68        2.0000           -0.3484507              -9.4818
        69        2.0000           -0.3442948              -9.3687 (HOMO)
        70                         -0.2407944              -6.5524 (LUMO)
        71                         -0.2263293              -6.1587
        72                         -0.1901418              -5.1740
        73                         -0.1507119              -4.1011
        74                         -0.0660508              -1.7973
       ...                                ...                  ...
       130                          0.7139427              19.4274
      -------------------------------------------------------------
                  HL-Gap            0.1035003 Eh            2.8164 eV
             Fermi-level           -0.2925446 Eh           -7.9605 eV

 SCC (total)                   0 d,  0 h,  0 min,  0.080 sec
 SCC setup                      ...        0 min,  0.001 sec (  0.626%)
 Dispersion                     ...        0 min,  0.001 sec (  0.849%)
 classical contributions        ...        0 min,  0.000 sec (  0.266%)
 integral evaluation            ...        0 min,  0.010 sec ( 12.670%)
 iterations                     ...        0 min,  0.035 sec ( 43.967%)
 molecular gradient             ...        0 min,  0.033 sec ( 41.342%)
 printout                       ...        0 min,  0.000 sec (  0.274%)

         :::::::::::::::::::::::::::::::::::::::::::::::::::::
         ::                     SUMMARY                     ::
         :::::::::::::::::::::::::::::::::::::::::::::::::::::
         :: total energy             -76.346897356414 Eh    ::
         :: gradient norm              0.082397953485 Eh/a0 ::
         :: HOMO-LUMO gap              2.816386747670 eV    ::
         ::.................................................::
         :: SCC energy               -77.320371294960 Eh    ::
         :: -> isotropic ES            0.081153373167 Eh    ::
         :: -> anisotropic ES          0.012934020098 Eh    ::
         :: -> anisotropic XC          0.027764673254 Eh    ::
         :: -> dispersion             -0.058404353384 Eh    ::
         :: repulsion energy           0.973473938546 Eh    ::
         :: add. restraining           0.000000000000 Eh    ::
         :: total charge               0.000000000000 e     ::
         :::::::::::::::::::::::::::::::::::::::::::::::::::::

      ----------------------------------------------------------- 
     |                   =====================                   |
     |                        A N C O P T                        |
     |                   =====================                   |
     |               Approximate Normal Coordinate               |
     |                Rational Function Optimizer                |
      ----------------------------------------------------------- 
      ----------------------------------------------------------- 
     |                   =====================                   |
     |                        A N C O P T                        |
     |                   =====================                   |
     |               Approximate Normal Coordinate               |
     |                Rational Function Optimizer                |
      ----------------------------------------------------------- 

          ...................................................
          :                      SETUP                      :
          :.................................................:
          :   optimization level            normal          :
          :   max. optcycles                   200          :
          :   ANC micro-cycles                  20          :
          :   degrees of freedom               150          :
          :.................................................:
          :   RF solver                   davidson          :
          :   write xtbopt.log                true          :
          :   linear?                        false          :
          :   energy convergence         0.5000000E-05 Eh   :
          :   grad. convergence          0.1000000E-02 Eh/α :
          :   maxmium RF displ.          1.0000000          :
          :   Hlow (freq-cutoff)         0.1000000E-01      :
          :   Hmax (freq-cutoff)         5.0000000          :
          :   S6 in model hess.         20.0000000          :
          ...................................................

generating ANC from exact Hessian ...
Using Lindh-Hessian (1995)
 Shifting diagonal of input Hessian by    9.6172045006543833E-003
 Lowest  eigenvalues of input Hessian
    0.000000    0.000000    0.000000    0.000000    0.000000    0.000000
    0.010000    0.010083    0.010419    0.011093    0.011628    0.012320
    0.013619    0.014045    0.014391    0.015776    0.018215    0.018658
 Highest eigenvalues
    1.844927    1.936219    1.986330    2.042050    2.154283    2.224395


........................................................................
.............................. CYCLE    1 ..............................
........................................................................

 iter      E             dE          RMSdq      gap      omega  full diag
   1    -77.3208955 -0.773209E+02  0.127E-04    2.82       0.0  T
   2    -77.3208955 -0.143530E-09  0.812E-05    2.82     170.8  T
   3    -77.3208955 -0.599982E-10  0.543E-05    2.82     255.4  T
     SCC iter.                  ...        0 min,  0.009 sec
     gradient                   ...        0 min,  0.033 sec
 * total energy  :   -76.3468974 Eh     change       -0.1434032E-08 Eh
   gradient norm :     0.0823998 Eh/α   predicted     0.0000000E+00 (-100.00%)
   displ. norm   :     0.3279281 α      lambda       -0.1231645E-01
   maximum displ.:     0.0919256 α      in ANC's #17, #30, #31, ...

........................................................................
.............................. CYCLE    2 ..............................
........................................................................

 iter      E             dE          RMSdq      gap      omega  full diag
   1    -77.3588219 -0.773588E+02  0.172E-01    3.11       0.0  T
   2    -77.3589246 -0.102725E-03  0.102E-01    3.09       1.0  T
   3    -77.3589084  0.161580E-04  0.413E-02    3.10       1.0  T
   4    -77.3589416 -0.331630E-04  0.837E-03    3.08       1.7  T
   5    -77.3589437 -0.215323E-05  0.418E-03    3.08       3.3  T
   6    -77.3589442 -0.420285E-06  0.206E-03    3.09       6.7  T
   7    -77.3589442 -0.419808E-07  0.577E-04    3.09      24.1  T
   8    -77.3589442 -0.505193E-08  0.256E-04    3.08      54.2  T
     SCC iter.                  ...        0 min,  0.022 sec
     gradient                   ...        0 min,  0.033 sec
 * total energy  :   -76.3550496 Eh     change       -0.8152277E-02 Eh
   gradient norm :     0.0277939 Eh/α   predicted    -0.6824242E-02 ( -16.29%)
   displ. norm   :     0.2816054 α      lambda       -0.3014889E-02
   maximum displ.:     0.1354947 α      in ANC's #11, #17, #12, ...

........................................................................
.............................. CYCLE    3 ..............................
........................................................................

 iter      E             dE          RMSdq      gap      omega  full diag
   1    -77.3772960 -0.773773E+02  0.957E-02    3.15       0.0  T
   2    -77.3773348 -0.387962E-04  0.574E-02    3.16       1.0  T
   3    -77.3773320  0.277654E-05  0.223E-02    3.17       1.0  T
   4    -77.3773399 -0.789433E-05  0.358E-03    3.16       3.9  T
   5    -77.3773403 -0.348181E-06  0.184E-03    3.16       7.5  T
   6    -77.3773403 -0.698872E-07  0.963E-04    3.16      14.4  T
   7    -77.3773404 -0.771492E-08  0.314E-04    3.16      44.2  T
     SCC iter.                  ...        0 min,  0.019 sec
     gradient                   ...        0 min,  0.033 sec
 * total energy  :   -76.3568790 Eh     change       -0.1829365E-02 Eh
   gradient norm :     0.0106068 Eh/α   predicted    -0.1628282E-02 ( -10.99%)
   displ. norm   :     0.1952149 α      lambda       -0.6129244E-03
   maximum displ.:     0.1113429 α      in ANC's #11, #17, #5, ...

........................................................................
.............................. CYCLE    4 ..............................
........................................................................

 iter      E             dE          RMSdq      gap      omega  full diag
   1    -77.3801998 -0.773802E+02  0.437E-02    3.14       0.0  T
   2    -77.3802081 -0.824458E-05  0.264E-02    3.15       1.0  T
   3    -77.3802063  0.179269E-05  0.102E-02    3.16       1.4  T
   4    -77.3802084 -0.217469E-05  0.386E-03    3.16       3.6  T
   5    -77.3802091 -0.693861E-06  0.995E-04    3.16      13.9  T
   6    -77.3802092 -0.184736E-07  0.499E-04    3.16      27.8  T
     SCC iter.                  ...        0 min,  0.017 sec
     gradient                   ...        0 min,  0.033 sec
 * total energy  :   -76.3573205 Eh     change       -0.4415397E-03 Eh
   gradient norm :     0.0059887 Eh/α   predicted    -0.3181470E-03 ( -27.95%)
   displ. norm   :     0.2318185 α      lambda       -0.4128300E-03
   maximum displ.:     0.1222277 α      in ANC's #11, #5, #12, ...

........................................................................
.............................. CYCLE    5 ..............................
........................................................................

 iter      E             dE          RMSdq      gap      omega  full diag
   1    -77.3804450 -0.773804E+02  0.472E-02    3.13       0.0  T
   2    -77.3804484 -0.345385E-05  0.285E-02    3.14       1.0  T
   3    -77.3804449  0.355371E-05  0.969E-03    3.15       1.4  T
   4    -77.3804490 -0.415914E-05  0.270E-03    3.14       5.1  T
   5    -77.3804493 -0.299423E-06  0.927E-04    3.14      15.0  T
   6    -77.3804493 -0.608678E-08  0.456E-04    3.14      30.4  T
     SCC iter.                  ...        0 min,  0.017 sec
     gradient                   ...        0 min,  0.033 sec
 * total energy  :   -76.3575966 Eh     change       -0.2760390E-03 Eh
   gradient norm :     0.0057621 Eh/α   predicted    -0.2175110E-03 ( -21.20%)
   displ. norm   :     0.1719282 α      lambda       -0.1776635E-03
   maximum displ.:     0.0732723 α      in ANC's #11, #12, #5, ...

........................................................................
.............................. CYCLE    6 ..............................
........................................................................

 iter      E             dE          RMSdq      gap      omega  full diag
   1    -77.3799617 -0.773800E+02  0.347E-02    3.15       0.0  T
   2    -77.3799625 -0.808793E-06  0.207E-02    3.14       1.0  T
   3    -77.3799620  0.555610E-06  0.405E-03    3.14       3.4  T
   4    -77.3799627 -0.698379E-06  0.145E-03    3.14       9.6  T
   5    -77.3799627 -0.728634E-07  0.621E-04    3.14      22.3  T
   6    -77.3799627 -0.355725E-08  0.229E-04    3.14      60.5  T
     SCC iter.                  ...        0 min,  0.017 sec
     gradient                   ...        0 min,  0.033 sec
 * total energy  :   -76.3577232 Eh     change       -0.1265958E-03 Eh
   gradient norm :     0.0051645 Eh/α   predicted    -0.9146670E-04 ( -27.75%)
   displ. norm   :     0.1561775 α      lambda       -0.1239718E-03
   maximum displ.:     0.0687429 α      in ANC's #3, #12, #5, ...

........................................................................
.............................. CYCLE    7 ..............................
........................................................................

 iter      E             dE          RMSdq      gap      omega  full diag
   1    -77.3797411 -0.773797E+02  0.339E-02    3.16       0.0  T
   2    -77.3797425 -0.135464E-05  0.201E-02    3.15       1.0  T
   3    -77.3797423  0.163089E-06  0.317E-03    3.15       4.4  T
   4    -77.3797426 -0.280864E-06  0.114E-03    3.15      12.2  T
   5    -77.3797426 -0.425102E-07  0.525E-04    3.15      26.4  T
   6    -77.3797426 -0.239596E-08  0.242E-04    3.15      57.2  T
     SCC iter.                  ...        0 min,  0.017 sec
     gradient                   ...        0 min,  0.033 sec
 * total energy  :   -76.3578084 Eh     change       -0.8522751E-04 Eh
   gradient norm :     0.0031954 Eh/α   predicted    -0.6349949E-04 ( -25.49%)
   displ. norm   :     0.1095633 α      lambda       -0.6327679E-04
   maximum displ.:     0.0623618 α      in ANC's #3, #9, #12, ...

........................................................................
.............................. CYCLE    8 ..............................
........................................................................

 iter      E             dE          RMSdq      gap      omega  full diag
   1    -77.3799994 -0.773800E+02  0.254E-02    3.16       0.0  T
   2    -77.3800003 -0.850330E-06  0.150E-02    3.16       1.0  T
   3    -77.3800000  0.296045E-06  0.317E-03    3.16       4.4  T
   4    -77.3800003 -0.323419E-06  0.130E-03    3.16      10.7  T
   5    -77.3800004 -0.785103E-07  0.397E-04    3.16      34.9  T
   6    -77.3800004 -0.129370E-08  0.202E-04    3.16      68.7  T
     SCC iter.                  ...        0 min,  0.017 sec
     gradient                   ...        0 min,  0.033 sec
 * total energy  :   -76.3578525 Eh     change       -0.4409604E-04 Eh
   gradient norm :     0.0018202 Eh/α   predicted    -0.3205566E-04 ( -27.30%)
   displ. norm   :     0.1289924 α      lambda       -0.3477280E-04
   maximum displ.:     0.0865368 α      in ANC's #3, #9, #12, ...

........................................................................
.............................. CYCLE    9 ..............................
........................................................................

 iter      E             dE          RMSdq      gap      omega  full diag
   1    -77.3802932 -0.773803E+02  0.313E-02    3.17       0.0  T
   2    -77.3802936 -0.379794E-06  0.185E-02    3.16       1.0  T
   3    -77.3802932  0.418700E-06  0.324E-03    3.16       4.3  T
   4    -77.3802937 -0.507077E-06  0.978E-04    3.16      14.2  T
   5    -77.3802937 -0.297338E-07  0.420E-04    3.16      33.0  T
     SCC iter.                  ...        0 min,  0.014 sec
     gradient                   ...        0 min,  0.033 sec
 * total energy  :   -76.3578821 Eh     change       -0.2964516E-04 Eh
   gradient norm :     0.0019221 Eh/α   predicted    -0.1751552E-04 ( -40.92%)
   displ. norm   :     0.0590364 α      lambda       -0.1500592E-04
   maximum displ.:     0.0442850 α      in ANC's #3, #9, #8, ...

........................................................................
.............................. CYCLE   10 ..............................
........................................................................

 iter      E             dE          RMSdq      gap      omega  full diag
   1    -77.3805658 -0.773806E+02  0.142E-02    3.16       0.0  T
   2    -77.3805659 -0.104194E-06  0.835E-03    3.16       1.7  T
   3    -77.3805658  0.612759E-07  0.131E-03    3.16      10.6  T
   4    -77.3805659 -0.858464E-07  0.314E-04    3.16      44.1  T
   5    -77.3805659 -0.172987E-08  0.172E-04    3.16      80.5  T
     SCC iter.                  ...        0 min,  0.014 sec
     gradient                   ...        0 min,  0.033 sec
 * total energy  :   -76.3578983 Eh     change       -0.1619392E-04 Eh
   gradient norm :     0.0015329 Eh/α   predicted    -0.7515438E-05 ( -53.59%)
   displ. norm   :     0.0770428 α      lambda       -0.1673167E-04
   maximum displ.:     0.0551804 α      in ANC's #3, #8, #5, ...

........................................................................
.............................. CYCLE   11 ..............................
........................................................................

 iter      E             dE          RMSdq      gap      omega  full diag
   1    -77.3804909 -0.773805E+02  0.184E-02    3.15       0.0  T
   2    -77.3804914 -0.421927E-06  0.108E-02    3.16       1.3  T
   3    -77.3804913  0.725967E-07  0.179E-03    3.16       7.8  T
   4    -77.3804914 -0.967280E-07  0.644E-04    3.16      21.5  T
   5    -77.3804914 -0.180907E-07  0.224E-04    3.16      61.8  T
     SCC iter.                  ...        0 min,  0.014 sec
     gradient                   ...        0 min,  0.033 sec
 * total energy  :   -76.3579134 Eh     change       -0.1511252E-04 Eh
   gradient norm :     0.0014593 Eh/α   predicted    -0.8388728E-05 ( -44.49%)
   displ. norm   :     0.0552228 α      lambda       -0.8298219E-05
   maximum displ.:     0.0451871 α      in ANC's #3, #1, #4, ...

........................................................................
.............................. CYCLE   12 ..............................
........................................................................

 iter      E             dE          RMSdq      gap      omega  full diag
   1    -77.3803439 -0.773803E+02  0.132E-02    3.16       0.0  T
   2    -77.3803439 -0.483287E-07  0.774E-03    3.16       1.8  T
   3    -77.3803439  0.269138E-08  0.565E-04    3.16      24.5  T
   4    -77.3803439 -0.113588E-07  0.188E-04    3.16      73.8  T
     SCC iter.                  ...        0 min,  0.011 sec
     gradient                   ...        0 min,  0.033 sec
 * total energy  :   -76.3579235 Eh     change       -0.1006417E-04 Eh
   gradient norm :     0.0009322 Eh/α   predicted    -0.4162526E-05 ( -58.64%)
   displ. norm   :     0.0542306 α      lambda       -0.7330566E-05
   maximum displ.:     0.0447564 α      in ANC's #3, #1, #4, ...

........................................................................
.............................. CYCLE   13 ..............................
........................................................................

 iter      E             dE          RMSdq      gap      omega  full diag
   1    -77.3803456 -0.773803E+02  0.137E-02    3.16       0.0  T
   2    -77.3803457 -0.520593E-07  0.805E-03    3.16       1.7  T
   3    -77.3803456  0.317956E-07  0.883E-04    3.16      15.7  T
   4    -77.3803457 -0.417689E-07  0.298E-04    3.16      46.5  T
     SCC iter.                  ...        0 min,  0.011 sec
     gradient                   ...        0 min,  0.033 sec
 * total energy  :   -76.3579329 Eh     change       -0.9392612E-05 Eh
   gradient norm :     0.0007240 Eh/α   predicted    -0.3672385E-05 ( -60.90%)
   displ. norm   :     0.0618113 α      lambda       -0.7306433E-05
   maximum displ.:     0.0498660 α      in ANC's #3, #1, #4, ...

........................................................................
.............................. CYCLE   14 ..............................
........................................................................

 iter      E             dE          RMSdq      gap      omega  full diag
   1    -77.3802639 -0.773803E+02  0.157E-02    3.16       0.0  T
   2    -77.3802640 -0.402609E-07  0.921E-03    3.16       1.5  T
   3    -77.3802640  0.161143E-07  0.736E-04    3.16      18.8  T
   4    -77.3802640 -0.250073E-07  0.295E-04    3.16      46.9  T
     SCC iter.                  ...        0 min,  0.011 sec
     gradient                   ...        0 min,  0.033 sec
 * total energy  :   -76.3579422 Eh     change       -0.9331040E-05 Eh
   gradient norm :     0.0007734 Eh/α   predicted    -0.3663050E-05 ( -60.74%)
   displ. norm   :     0.0676733 α      lambda       -0.7049918E-05
   maximum displ.:     0.0535330 α      in ANC's #3, #1, #5, ...

........................................................................
.............................. CYCLE   15 ..............................
........................................................................

 iter      E             dE          RMSdq      gap      omega  full diag
   1    -77.3803922 -0.773804E+02  0.168E-02    3.16       0.0  T
   2    -77.3803922 -0.379660E-07  0.989E-03    3.16       1.4  T
   3    -77.3803922  0.204121E-07  0.887E-04    3.16      15.6  T
   4    -77.3803922 -0.343839E-07  0.318E-04    3.16      43.5  T
     SCC iter.                  ...        0 min,  0.011 sec
     gradient                   ...        0 min,  0.033 sec
 * total energy  :   -76.3579512 Eh     change       -0.9012578E-05 Eh
   gradient norm :     0.0008313 Eh/α   predicted    -0.3536727E-05 ( -60.76%)
   displ. norm   :     0.0668959 α      lambda       -0.5968322E-05
   maximum displ.:     0.0530592 α      in ANC's #3, #1, #5, ...

........................................................................
.............................. CYCLE   16 ..............................
........................................................................

 iter      E             dE          RMSdq      gap      omega  full diag
   1    -77.3804115 -0.773804E+02  0.158E-02    3.15       0.0  T
   2    -77.3804116 -0.287229E-07  0.927E-03    3.15       1.5  T
   3    -77.3804116  0.224509E-07  0.850E-04    3.15      16.3  T
   4    -77.3804116 -0.333576E-07  0.278E-04    3.15      49.9  T
     SCC iter.                  ...        0 min,  0.011 sec
     gradient                   ...        0 min,  0.033 sec
 * total energy  :   -76.3579591 Eh     change       -0.7810542E-05 Eh
   gradient norm :     0.0004526 Eh/α   predicted    -0.2992266E-05 ( -61.69%)
   displ. norm   :     0.0622895 α      lambda       -0.4753284E-05
   maximum displ.:     0.0498317 α      in ANC's #3, #1, #7, ...

........................................................................
.............................. CYCLE   17 ..............................
........................................................................

 iter      E             dE          RMSdq      gap      omega  full diag
   1    -77.3804728 -0.773805E+02  0.140E-02    3.15       0.0  T
   2    -77.3804728 -0.214414E-07  0.821E-03    3.15       1.7  T
   3    -77.3804728  0.106359E-07  0.634E-04    3.15      21.9  T
   4    -77.3804728 -0.185617E-07  0.238E-04    3.15      58.3  T
     SCC iter.                  ...        0 min,  0.011 sec
     gradient                   ...        0 min,  0.033 sec
 * total energy  :   -76.3579654 Eh     change       -0.6322666E-05 Eh
   gradient norm :     0.0002986 Eh/α   predicted    -0.2382047E-05 ( -62.33%)
   displ. norm   :     0.0601460 α      lambda       -0.4066416E-05
   maximum displ.:     0.0476896 α      in ANC's #3, #1, #7, ...

........................................................................
.............................. CYCLE   18 ..............................
........................................................................

 iter      E             dE          RMSdq      gap      omega  full diag
   1    -77.3804884 -0.773805E+02  0.129E-02    3.15       0.0  T
   2    -77.3804885 -0.182894E-07  0.756E-03    3.15       1.8  T
   3    -77.3804884  0.215935E-07  0.753E-04    3.15      18.4  T
   4    -77.3804885 -0.296532E-07  0.217E-04    3.15      63.9  T
     SCC iter.                  ...        0 min,  0.011 sec
     gradient                   ...        0 min,  0.033 sec
 * total energy  :   -76.3579708 Eh     change       -0.5457447E-05 Eh
   gradient norm :     0.0003259 Eh/α   predicted    -0.2039297E-05 ( -62.63%)
   displ. norm   :     0.0647131 α      lambda       -0.3947686E-05
   maximum displ.:     0.0506090 α      in ANC's #3, #1, #7, ...

........................................................................
.............................. CYCLE   19 ..............................
........................................................................

 iter      E             dE          RMSdq      gap      omega  full diag
   1    -77.3804970 -0.773805E+02  0.133E-02    3.15       0.0  T
   2    -77.3804971 -0.187032E-07  0.783E-03    3.15       1.8  T
   3    -77.3804970  0.223338E-07  0.765E-04    3.15      18.1  T
   4    -77.3804971 -0.311245E-07  0.221E-04    3.15      62.9  T
     SCC iter.                  ...        0 min,  0.013 sec
     gradient                   ...        0 min,  0.033 sec
 * total energy  :   -76.3579761 Eh     change       -0.5240036E-05 Eh
   gradient norm :     0.0003647 Eh/α   predicted    -0.1979140E-05 ( -62.23%)
   displ. norm   :     0.0721290 α      lambda       -0.3802265E-05
   maximum displ.:     0.0556894 α      in ANC's #3, #1, #7, ...

........................................................................
.............................. CYCLE   20 ..............................
........................................................................

 iter      E             dE          RMSdq      gap      omega  full diag
   1    -77.3804632 -0.773805E+02  0.147E-02    3.15       0.0  T
   2    -77.3804632 -0.278737E-07  0.864E-03    3.15       1.6  T
   3    -77.3804632  0.325346E-07  0.907E-04    3.15      15.3  T
   4    -77.3804633 -0.432045E-07  0.267E-04    3.15      52.0  T
     SCC iter.                  ...        0 min,  0.011 sec
     gradient                   ...        0 min,  0.033 sec
 * total energy  :   -76.3579810 Eh     change       -0.4874598E-05 Eh
   gradient norm :     0.0003264 Eh/α   predicted    -0.1909903E-05 ( -60.82%)
   displ. norm   :     0.0744715 α      lambda       -0.3114599E-05
   maximum displ.:     0.0570220 α      in ANC's #3, #1, #7, ...

   *** GEOMETRY OPTIMIZATION CONVERGED AFTER 20 ITERATIONS ***

------------------------------------------------------------------------
 total energy gain   :        -0.0110836 Eh       -6.9551 kcal/mol
 total RMSD          :         0.2152551 a0        0.1139 Å
 total power (kW/mol):        -1.4549992 (step)  -24.1643 (real)
------------------------------------------------------------------------

 ANCopt (total)                0 d,  0 h,  0 min,  1.204 sec
 optimizer setup                ...        0 min,  0.000 sec (  0.006%)
 model hessian                  ...        0 min,  0.035 sec (  2.937%)
 ANC generation                 ...        0 min,  0.002 sec (  0.191%)
 coordinate transformation      ...        0 min,  0.000 sec (  0.016%)
 single point calculation       ...        0 min,  1.159 sec ( 96.277%)
 optimization log               ...        0 min,  0.005 sec (  0.380%)
 hessian update                 ...        0 min,  0.000 sec (  0.028%)
 rational function              ...        0 min,  0.001 sec (  0.108%)

================
 final structure:
================
52
 xtb: 6.7.1 (edcfbbe)
H            0.49039632958309       -0.63729908061508       -1.70413137330148
C            0.71251217250604       -0.53636268526200       -0.63097978778465
C            2.04377023401266        0.10613004385800       -0.44783813887242
N            2.42852044259397        1.28790748470028       -1.03035541372489
C            3.70328939962227        1.57910685744956       -0.63071642320293
C            4.13528781223202        0.54357260266352        0.23783274817450
C            5.41305108238097        0.60495920547447        0.79183059794026
C            6.21890232177116        1.67554892493334        0.47481484615367
C            5.78060726890869        2.68739607566506       -0.38308803291601
C            4.52184065319784        2.65446155569588       -0.94556886200832
C            3.05133019315917       -0.37709213401432        0.33394640842882
C            2.90940804147827       -1.65872772638578        1.08168721837689
C            1.41516232451751       -1.96674614223913        1.21457720396536
N            0.77784550574127       -1.88579087675374       -0.08882018600985
C           -0.50376776764226       -2.54615448472726       -0.18889219447946
C           -1.65527984113351       -1.78300489873942        0.48580035026152
C           -2.97879037245642       -2.52621720560922        0.33733723347269
C           -4.09904831098623       -1.75070625065540        1.02343464242098
C           -4.22530953797681       -0.34777100153987        0.42398189523990
C           -2.88249570073864        0.40527651985939        0.52917809852624
C           -1.75450635505446       -0.38591422943452       -0.13617530111486
C           -0.40627965147516        0.31957679008330        0.00461911187914
H           -1.99763979983221       -0.48780119073116       -1.19810964367843
C           -3.13213326659771        1.77655787932211       -0.07096631001073
O           -2.69296203199480        1.89562836908615       -1.32287865313100
C           -2.99534467509849        3.12201605756055       -1.97182642097701
O           -3.70479139092312        2.65782676036811        0.51733849130685
O           -4.58898031065449       -0.38647955406913       -0.93950395655066
H           -1.42792577169571       -1.68019137933370        1.55349961483937
H            1.87084791323033        1.83843159341471       -1.66004786542935
H            5.75905903944608       -0.17428247912300        1.45477284454997
H            7.21245374501265        1.74099204901094        0.89415741926536
H            6.44291062111302        3.51040573837406       -0.60809557325643
H            4.18327999987642        3.43736410981232       -1.60898388150883
H            3.36880897214174       -1.59103588297935        2.06990227284592
H            3.40173591181167       -2.46586350781550        0.53202562900522
H            0.97552473686564       -1.27050689340157        1.94707113414301
H            1.27827286061016       -2.98270502129383        1.59168788637044
H           -0.41208969657593       -3.54608166958354        0.24261297525704
H           -0.73189771017865       -2.65941145379203       -1.25486120971715
H           -3.21185434801603       -2.63420355748881       -0.72412585660658
H           -2.89935153810697       -3.52516295895062        0.77109175232273
H           -5.04978458601432       -2.27897090879393        0.90873384220468
H           -3.89302538187122       -1.65965801473435        2.09110967065671
H           -4.98050851381145        0.22483371262412        0.98937687617179
H           -2.66978110751526        0.55233738698762        1.59294380062588
H           -0.43410835868376        1.29334389986283       -0.48432207239243
H           -0.18039569306042        0.48188029533099        1.06146227605664
H           -2.55285381935638        3.95967624714379       -1.42760227759930
H           -4.07614858397355        3.26745178826407       -2.01814140577612
H           -2.57730055027543        3.04909237612788       -2.97265012275274
H           -5.38056291011302       -0.92773313560921       -1.03104587766182

 Bond Distances (Angstroems)
 ---------------------------
H1-C2=1.1005         C2-H1=1.1005         C2-C3=1.4895         C2-N14=1.4557        C2-C22=1.5454        C3-C2=1.4895         
C3-N4=1.3726         C3-C11=1.3638        N4-C3=1.3726         N4-C5=1.3673         N4-H30=1.0053        C5-N4=1.3673         
C5-C6=1.4189         C5-C10=1.3876        C6-C5=1.4189         C6-C7=1.3940         C6-C11=1.4254        C7-C6=1.3940         
C7-C8=1.3770         C7-H31=1.0800        C8-C7=1.3770         C8-C9=1.3971         C8-H32=1.0804        C9-C8=1.3971         
C9-C10=1.3791        C9-H33=1.0801        C10-C5=1.3876        C10-C9=1.3791        C10-H34=1.0806       C11-C3=1.3638        
C11-C6=1.4254        C11-C12=1.4906       C12-C11=1.4906       C12-C13=1.5314       C12-H35=1.0919       C12-H36=1.0936       
C13-C12=1.5314       C13-N14=1.4531       C13-H37=1.1021       C13-H38=1.0923       N14-C2=1.4557        N14-C13=1.4531       
N14-C15=1.4452       C15-N14=1.4452       C15-C16=1.5374       C15-H39=1.0929       C15-H40=1.0960       C16-C15=1.5374       
C16-C17=1.5252       C16-C21=1.5325       C16-H29=1.0965       C17-C16=1.5252       C17-C18=1.5255       C17-H41=1.0921       
C17-H42=1.0919       C18-C17=1.5255       C18-C19=1.5309       C18-H43=1.0937       C18-H44=1.0912       C19-C18=1.5309       
C19-C20=1.5431       C19-O28=1.4117       C19-H45=1.1036       C20-C19=1.5431       C20-C21=1.5300       C20-C24=1.5175       
C20-H46=1.0947       C21-C16=1.5325       C21-C20=1.5300       C21-C22=1.5282       C21-H23=1.0942       C22-C2=1.5454        
C22-C21=1.5282       C22-H47=1.0900       C22-H48=1.0928       H23-C21=1.0942       C24-C20=1.5175       C24-O25=1.3320       
C24-O27=1.2044       O25-C24=1.3320       O25-C26=1.4201       C26-O25=1.4201       C26-H49=1.0925       C26-H50=1.0915       
C26-H51=1.0871       O27-C24=1.2044       O28-C19=1.4117       O28-H52=0.9633       H29-C16=1.0965       H30-N4=1.0053        
H31-C7=1.0800        H32-C8=1.0804        H33-C9=1.0801        H34-C10=1.0806       H35-C12=1.0919       H36-C12=1.0936       
H37-C13=1.1021       H38-C13=1.0923       H39-C15=1.0929       H40-C15=1.0960       H41-C17=1.0921       H42-C17=1.0919       
H43-C18=1.0937       H44-C18=1.0912       H45-C19=1.1036       H46-C20=1.0947       H47-C22=1.0900       H48-C22=1.0928       
H49-C26=1.0925       H50-C26=1.0915       H51-C26=1.0871       H52-O28=0.9633       
 C  H  Rav=1.0918 sigma=0.0063  Rmin=1.0800  Rmax=1.1036    24
 C  C  Rav=1.4748 sigma=0.0667  Rmin=1.3638  Rmax=1.5454    21
 N  H  Rav=1.0053 sigma=0.0000  Rmin=1.0053  Rmax=1.0053     1
 N  C  Rav=1.4188 sigma=0.0401  Rmin=1.3673  Rmax=1.4557     5
 O  H  Rav=0.9633 sigma=0.0000  Rmin=0.9633  Rmax=0.9633     1
 O  C  Rav=1.3421 sigma=0.0866  Rmin=1.2044  Rmax=1.4201     4

 selected bond angles (degree)
 --------------------
C3-C2-H1=109.87                N14-C2-H1=106.69               N14-C2-C3=108.30               C22-C2-H1=107.80               
C22-C2-C3=110.95               C22-C2-N14=113.12              N4-C3-C2=124.73                C11-C3-C2=125.31               
C11-C3-N4=109.95               C5-N4-C3=108.70                H30-N4-C3=125.58               H30-N4-C5=125.71               
C6-C5-N4=107.90                C10-C5-N4=130.44               C10-C5-C6=121.66               C7-C6-C5=119.35                
C11-C6-C5=106.33               C11-C6-C7=134.32               C8-C7-C6=118.63                H31-C7-C6=120.39               
H31-C7-C8=120.98               C9-C8-C7=121.39                H32-C8-C7=119.73               H32-C8-C9=118.88               
C10-C9-C8=121.30               H33-C9-C8=119.17               H33-C9-C10=119.53              C9-C10-C5=117.67               
H34-C10-C5=121.06              H34-C10-C9=121.27              

 selected dihedral angles (degree)
 ---------------------------------
N4-C3-C2-H1= 52.37            N4-C3-C2-N14=168.54           N4-C3-C2-C22=293.26           C11-C3-C2-H1=231.37           
C11-C3-C2-N14=347.54          C11-C3-C2-C22=112.26          C5-N4-C3-C2=179.39            C5-N4-C3-C11=  0.26           
H30-N4-C3-C2=358.34           H30-N4-C3-C11=179.21          C6-C5-N4-C3=359.86            C6-C5-N4-H30=180.92           
C10-C5-N4-C3=179.98           C10-C5-N4-H30=  1.03          C7-C6-C5-N4=180.16            C7-C6-C5-C10=  0.06           
C11-C6-C5-N4=359.97           C11-C6-C5-C10=179.87          C8-C7-C6-C5=359.97            C8-C7-C6-C11=180.23           
H31-C7-C6-C5=180.02           H31-C7-C6-C11=  0.28          C9-C8-C7-C6=359.97            C9-C8-C7-H31=179.92           
H32-C8-C7-C6=180.00           H32-C8-C7-H31=359.95          C10-C9-C8-C7=  0.07           C10-C9-C8-H32=180.04          
H33-C9-C8-C7=180.06           H33-C9-C8-H32=  0.03          C9-C10-C5-N4=179.85           C9-C10-C5-C6=  0.00           
H34-C10-C5-N4=359.81          H34-C10-C5-C6=179.94          C5-C10-C9-C8=359.95           C5-C10-C9-H33=179.97          
H34-C10-C9-C8=179.99          H34-C10-C9-H33=  0.00         
           -------------------------------------------------
          |                Final Singlepoint                |
           -------------------------------------------------

          ...................................................
          :                      SETUP                      :
          :.................................................:
          :  # basis functions                 130          :
          :  # atomic orbitals                 130          :
          :  # shells                           78          :
          :  # electrons                       138          :
          :  max. iterations                   250          :
          :  Hamiltonian                  GFN2-xTB          :
          :  restarted?                      false          :
          :  GBSA solvation                  false          :
          :  PC potential                    false          :
          :  electronic temp.          300.0000000     K    :
          :  accuracy                    1.0000000          :
          :  -> integral cutoff          0.2500000E+02      :
          :  -> integral neglect         0.1000000E-07      :
          :  -> SCF convergence          0.1000000E-05 Eh   :
          :  -> wf. convergence          0.1000000E-03 e    :
          :  Broyden damping             0.4000000          :
          :  net charge                          0          :
          :  unpaired electrons                  0          :
          ...................................................

 iter      E             dE          RMSdq      gap      omega  full diag
   1    -77.3804633 -0.773805E+02  0.128E-04    3.15       0.0  T
   2    -77.3804633 -0.621725E-10  0.792E-05    3.15     175.1  T
   3    -77.3804633  0.135856E-10  0.519E-05    3.15     267.4  T

   *** convergence criteria satisfied after 3 iterations ***

         #    Occupation            Energy/Eh            Energy/eV
      -------------------------------------------------------------
         1        2.0000           -0.7422771             -20.1984
       ...           ...                  ...                  ...
        63        2.0000           -0.4132857             -11.2461
        64        2.0000           -0.4067177             -11.0674
        65        2.0000           -0.4044348             -11.0052
        66        2.0000           -0.4032222             -10.9722
        67        2.0000           -0.3716284             -10.1125
        68        2.0000           -0.3511535              -9.5554
        69        2.0000           -0.3424634              -9.3189 (HOMO)
        70                         -0.2266178              -6.1666 (LUMO)
        71                         -0.2210257              -6.0144
        72                         -0.1893895              -5.1536
        73                         -0.1471123              -4.0031
        74                         -0.0619203              -1.6849
       ...                                ...                  ...
       130                          0.7314085              19.9026
      -------------------------------------------------------------
                  HL-Gap            0.1158456 Eh            3.1523 eV
             Fermi-level           -0.2845406 Eh           -7.7427 eV

 SCC (total)                   0 d,  0 h,  0 min,  0.053 sec
 SCC setup                      ...        0 min,  0.000 sec (  0.771%)
 Dispersion                     ...        0 min,  0.000 sec (  0.824%)
 classical contributions        ...        0 min,  0.000 sec (  0.391%)
 integral evaluation            ...        0 min,  0.010 sec ( 18.475%)
 iterations                     ...        0 min,  0.008 sec ( 15.990%)
 molecular gradient             ...        0 min,  0.033 sec ( 63.171%)
 printout                       ...        0 min,  0.000 sec (  0.367%)

         :::::::::::::::::::::::::::::::::::::::::::::::::::::
         ::                     SUMMARY                     ::
         :::::::::::::::::::::::::::::::::::::::::::::::::::::
         :: total energy             -76.357980956763 Eh    ::
         :: gradient norm              0.000325295586 Eh/a0 ::
         :: HOMO-LUMO gap              3.152317913868 eV    ::
         ::.................................................::
         :: SCC energy               -77.379949995191 Eh    ::
         :: -> isotropic ES            0.080770178422 Eh    ::
         :: -> anisotropic ES          0.010942315316 Eh    ::
         :: -> anisotropic XC          0.026466127732 Eh    ::
         :: -> dispersion             -0.059207576902 Eh    ::
         :: repulsion energy           1.021969038428 Eh    ::
         :: add. restraining           0.000000000000 Eh    ::
         :: total charge               0.000000000000 e     ::
         :::::::::::::::::::::::::::::::::::::::::::::::::::::

           -------------------------------------------------
          |                Property Printout                |
           -------------------------------------------------

    * Orbital Energies and Occupations

         #    Occupation            Energy/Eh            Energy/eV
      -------------------------------------------------------------
         1        2.0000           -0.7422771             -20.1984
       ...           ...                  ...                  ...
        57        2.0000           -0.4410166             -12.0007
        58        2.0000           -0.4385827             -11.9344
        59        2.0000           -0.4333513             -11.7921
        60        2.0000           -0.4290070             -11.6739
        61        2.0000           -0.4247110             -11.5570
        62        2.0000           -0.4169084             -11.3447
        63        2.0000           -0.4132857             -11.2461
        64        2.0000           -0.4067177             -11.0674
        65        2.0000           -0.4044348             -11.0052
        66        2.0000           -0.4032222             -10.9722
        67        2.0000           -0.3716284             -10.1125
        68        2.0000           -0.3511535              -9.5554
        69        2.0000           -0.3424634              -9.3189 (HOMO)
        70                         -0.2266178              -6.1666 (LUMO)
        71                         -0.2210257              -6.0144
        72                         -0.1893895              -5.1536
        73                         -0.1471123              -4.0031
        74                         -0.0619203              -1.6849
        75                          0.0063005               0.1714
        76                          0.0109428               0.2978
        77                          0.0248532               0.6763
        78                          0.0312405               0.8501
        79                          0.0405170               1.1025
        80                          0.0578160               1.5733
       ...                                ...                  ...
       130                          0.7314085              19.9026
      -------------------------------------------------------------
                  HL-Gap            0.1158456 Eh            3.1523 eV
             Fermi-level           -0.2845406 Eh           -7.7427 eV

     #   Z          covCN         q      C6AA      α(0)
     1   1 H        0.923     0.034     2.524     2.485
     2   6 C        3.815     0.041    19.876     6.345
     3   6 C        3.092     0.028    27.258     8.557
     4   7 N        2.775    -0.119    23.595     7.214
     5   6 C        3.089     0.044    26.917     8.504
     6   6 C        3.108    -0.020    28.357     8.725
     7   6 C        2.911    -0.037    28.930     8.820
     8   6 C        2.920    -0.043    29.056     8.839
     9   6 C        2.924    -0.038    28.957     8.825
    10   6 C        2.908    -0.054    29.337     8.881
    11   6 C        3.069    -0.036    28.828     8.804
    12   6 C        3.808    -0.060    21.639     6.622
    13   6 C        3.756     0.013    20.410     6.441
    14   7 N        2.735    -0.178    24.852     7.404
    15   6 C        3.764     0.002    20.596     6.469
    16   6 C        3.860    -0.028    21.039     6.523
    17   6 C        3.808    -0.061    21.658     6.625
    18   6 C        3.805    -0.070    21.831     6.652
    19   6 C        3.736     0.125    18.631     6.160
    20   6 C        3.858    -0.047    21.382     6.576
    21   6 C        3.862    -0.020    20.896     6.501
    22   6 C        3.808    -0.064    21.725     6.635
    23   1 H        0.924     0.059     2.213     2.326
    24   6 C        2.734     0.362    20.864     7.478
    25   8 O        1.704    -0.244    18.048     5.736
    26   6 C        3.660     0.033    20.300     6.465
    27   8 O        0.856    -0.417    22.021     6.292
    28   8 O        1.656    -0.443    21.703     6.289
    29   1 H        0.924     0.029     2.607     2.525
    30   1 H        0.860     0.156     1.364     1.829
    31   1 H        0.926     0.026     2.650     2.546
    32   1 H        0.926     0.024     2.679     2.560
    33   1 H        0.926     0.025     2.664     2.552
    34   1 H        0.926     0.020     2.733     2.585
    35   1 H        0.924     0.039     2.467     2.456
    36   1 H        0.924     0.046     2.373     2.409
    37   1 H        0.923     0.010     2.893     2.660
    38   1 H        0.924     0.031     2.571     2.507
    39   1 H        0.924     0.034     2.527     2.486
    40   1 H        0.924     0.035     2.519     2.482
    41   1 H        0.924     0.044     2.394     2.420
    42   1 H        0.924     0.033     2.547     2.496
    43   1 H        0.924     0.033     2.544     2.495
    44   1 H        0.924     0.039     2.468     2.457
    45   1 H        0.923     0.019     2.744     2.591
    46   1 H        0.924     0.054     2.271     2.357
    47   1 H        0.925     0.030     2.587     2.515
    48   1 H        0.924     0.030     2.587     2.515
    49   1 H        0.924     0.061     2.185     2.311
    50   1 H        0.924     0.066     2.131     2.283
    51   1 H        0.925     0.068     2.112     2.273
    52   1 H        0.805     0.291     0.747     1.358

 Mol. C6AA /au·bohr⁶  :      27237.218916
 Mol. C8AA /au·bohr⁸  :     629084.466872
 Mol. α(0) /au        :        250.859838


Wiberg/Mayer (AO) data.
largest (>0.10) Wiberg bond orders for each atom

 ---------------------------------------------------------------------------
     #   Z sym  total        # sym  WBO       # sym  WBO       # sym  WBO
 ---------------------------------------------------------------------------
     1   1 H    0.997 --     2 C    0.951
     2   6 C    3.988 --     3 C    1.004    14 N    0.995    22 C    0.962
                             1 H    0.951
     3   6 C    3.951 --    11 C    1.553     4 N    1.170     2 C    1.004
     4   7 N    3.523 --     5 C    1.170     3 C    1.170    30 H    0.946
     5   6 C    3.956 --    10 C    1.347     6 C    1.240     4 N    1.170
     6   6 C    3.984 --     7 C    1.334     5 C    1.240    11 C    1.207
     7   6 C    3.989 --     8 C    1.500     6 C    1.334    31 H    0.970
                            10 C    0.111
     8   6 C    3.991 --     7 C    1.500     9 C    1.376    32 H    0.972
     9   6 C    3.988 --    10 C    1.485     8 C    1.376    33 H    0.972
    10   6 C    3.988 --     9 C    1.485     5 C    1.347    34 H    0.969
                             7 C    0.111
    11   6 C    3.973 --     3 C    1.553     6 C    1.207    12 C    1.015
    12   6 C    3.997 --    11 C    1.015    13 C    0.998    35 H    0.970
                            36 H    0.963
    13   6 C    3.987 --    14 N    1.002    12 C    0.998    38 H    0.973
                            37 H    0.964
    14   7 N    3.141 --    15 C    1.011    13 C    1.002     2 C    0.995
    15   6 C    3.986 --    14 N    1.011    16 C    0.978    39 H    0.970
                            40 H    0.969
    16   6 C    3.995 --    17 C    0.998    21 C    0.986    15 C    0.978
                            29 H    0.965
    17   6 C    3.996 --    18 C    1.008    16 C    0.998    42 H    0.976
                            41 H    0.975
    18   6 C    3.997 --    17 C    1.008    19 C    0.986    44 H    0.976
                            43 H    0.973
    19   6 C    3.957 --    28 O    0.991    18 C    0.986    45 H    0.960
                            20 C    0.954
    20   6 C    3.991 --    21 C    0.983    46 H    0.956    24 C    0.954
                            19 C    0.954
    21   6 C    3.991 --    22 C    0.996    16 C    0.986    20 C    0.983
                            23 H    0.961
    22   6 C    3.993 --    21 C    0.996    48 H    0.974    47 H    0.974
                             2 C    0.962
    23   1 H    0.997 --    21 C    0.961
    24   6 C    3.916 --    27 O    1.747    25 O    1.144    20 C    0.954
    25   8 O    2.323 --    24 C    1.144    26 C    0.957    27 O    0.172
    26   6 C    3.926 --    51 H    0.982    49 H    0.977    50 H    0.977
                            25 O    0.957
    27   8 O    2.028 --    24 C    1.747    25 O    0.172
    28   8 O    1.961 --    19 C    0.991    52 H    0.898
    29   1 H    0.999 --    16 C    0.965
    30   1 H    0.975 --     4 N    0.946
    31   1 H    0.999 --     7 C    0.970
    32   1 H    0.999 --     8 C    0.972
    33   1 H    0.999 --     9 C    0.972
    34   1 H    0.999 --    10 C    0.969
    35   1 H    0.998 --    12 C    0.970
    36   1 H    0.998 --    12 C    0.963
    37   1 H    1.000 --    13 C    0.964
    38   1 H    0.999 --    13 C    0.973
    39   1 H    0.998 --    15 C    0.970
    40   1 H    0.999 --    15 C    0.969
    41   1 H    0.998 --    17 C    0.975
    42   1 H    0.998 --    17 C    0.976
    43   1 H    0.998 --    18 C    0.973
    44   1 H    0.999 --    18 C    0.976
    45   1 H    0.999 --    19 C    0.960
    46   1 H    0.997 --    20 C    0.956
    47   1 H    0.999 --    22 C    0.974
    48   1 H    0.999 --    22 C    0.974
    49   1 H    0.996 --    26 C    0.977
    50   1 H    0.996 --    26 C    0.977
    51   1 H    0.995 --    26 C    0.982
    52   1 H    0.915 --    28 O    0.898
 ---------------------------------------------------------------------------

Topologies differ in total number of bonds
Writing topology from bond orders to xtbtopo.mol

molecular dipole:
                 x           y           z       tot (Debye)
 q only:       -0.463      -0.842      -0.583
   full:       -1.043      -0.720      -0.449       3.417
molecular quadrupole (traceless):
                xx          xy          yy          xz          yz          zz
 q only:       -8.007       9.760       3.127       4.214     -11.002       4.880
  q+dip:       -7.114      14.482       1.667       5.805     -14.924       5.447
   full:       -6.958      14.509       1.458       4.880     -13.911       5.500

           -------------------------------------------------
          |                Geometry Summary                 |
           -------------------------------------------------

      molecular mass/u    :      354.4435346
   center of mass at/Å    :        0.1269833       0.2038594      -0.0681828
  moments of inertia/u·Å² :        0.1292492E+04   0.4358329E+04   0.5318828E+04
rotational constants/cm⁻¹ :        0.1304273E-01   0.3867912E-02   0.3169426E-02

 * 53 selected distances

     #   Z          #   Z                                           value/Å
     1   1 H        2   6 C                                       1.1005354
     2   6 C        3   6 C                                       1.4894919
     3   6 C        4   7 N                                       1.3725733
     4   7 N        5   6 C                                       1.3673129
     5   6 C        6   6 C                                       1.4189193
     6   6 C        7   6 C                                       1.3940449
     7   6 C        8   6 C                                       1.3769742
     8   6 C        9   6 C                                       1.3971166
     5   6 C       10   6 C                                       1.3876406
     9   6 C       10   6 C                                       1.3791168
     3   6 C       11   6 C                                       1.3637698
     6   6 C       11   6 C                                       1.4254213
    11   6 C       12   6 C                                       1.4905866
    12   6 C       13   6 C                                       1.5314391
     2   6 C       14   7 N                                       1.4557343
    13   6 C       14   7 N                                       1.4531248
    14   7 N       15   6 C                                       1.4452085
    15   6 C       16   6 C                                       1.5373964 (max)
    16   6 C       17   6 C                                       1.5251513
    17   6 C       18   6 C                                       1.5254918
    18   6 C       19   6 C                                       1.5308538
    16   6 C       21   6 C                                       1.5325020
    20   6 C       21   6 C                                       1.5300452
    21   6 C       22   6 C                                       1.5281545
    21   6 C       23   1 H                                       1.0941662
    24   6 C       25   8 O                                       1.3320413
    25   8 O       26   6 C                                       1.4200689
    24   6 C       27   8 O                                       1.2044397
    19   6 C       28   8 O                                       1.4116830
    16   6 C       29   1 H                                       1.0964682
     4   7 N       30   1 H                                       1.0052802
     7   6 C       31   1 H                                       1.0800147
     8   6 C       32   1 H                                       1.0804053
     9   6 C       33   1 H                                       1.0801015
    10   6 C       34   1 H                                       1.0805922
    12   6 C       35   1 H                                       1.0918794
    12   6 C       36   1 H                                       1.0936101
    13   6 C       37   1 H                                       1.1020789
    13   6 C       38   1 H                                       1.0923021
    15   6 C       39   1 H                                       1.0929118
    15   6 C       40   1 H                                       1.0959747
    17   6 C       41   1 H                                       1.0921007
    17   6 C       42   1 H                                       1.0919461
    18   6 C       43   1 H                                       1.0936725
    18   6 C       44   1 H                                       1.0911762
    19   6 C       45   1 H                                       1.1035730
    20   6 C       46   1 H                                       1.0947475
    22   6 C       47   1 H                                       1.0899819
    22   6 C       48   1 H                                       1.0928329
    26   6 C       49   1 H                                       1.0925442
    26   6 C       50   1 H                                       1.0915283
    26   6 C       51   1 H                                       1.0870727
    28   8 O       52   1 H                                       0.9632957 (min)

 * 6 distinct bonds (by element types)

   Z      Z             #   av. dist./Å        max./Å        min./Å
   1 H    6 C          24     1.0917590     1.1035730     1.0800147
   6 C    6 C          18     1.4646731     1.5373964     1.3637698
   1 H    7 N           1     1.0052802     1.0052802     1.0052802
   6 C    7 N           5     1.4187907     1.4557343     1.3673129
   1 H    8 O           1     0.9632957     0.9632957     0.9632957
   6 C    8 O           4     1.3420582     1.4200689     1.2044397


optimized geometry written to: xtbopt.xyz


           -------------------------------------------------
          | TOTAL ENERGY              -76.357980956763 Eh   |
          | GRADIENT NORM               0.000325295586 Eh/α |
          | HOMO-LUMO GAP               3.152317913868 eV   |
           -------------------------------------------------

------------------------------------------------------------------------
 * finished run on 2025/05/15 at 16:39:09.298     
------------------------------------------------------------------------
 total:
 * wall-time:     0 d,  0 h,  0 min,  1.355 sec
 *  cpu-time:     0 d,  0 h,  0 min,  1.345 sec
 * ratio c/w:     0.993 speedup
 SCF:
 * wall-time:     0 d,  0 h,  0 min,  0.080 sec
 *  cpu-time:     0 d,  0 h,  0 min,  0.080 sec
 * ratio c/w:     0.996 speedup
 ANC optimizer:
 * wall-time:     0 d,  0 h,  0 min,  1.259 sec
 *  cpu-time:     0 d,  0 h,  0 min,  1.251 sec
 * ratio c/w:     0.994 speedup



----- Single-point -----
      -----------------------------------------------------------      
     |                   =====================                   |     
     |                           x T B                           |     
     |                   =====================                   |     
     |                         S. Grimme                         |     
     |          Mulliken Center for Theoretical Chemistry        |     
     |                    University of Bonn                     |     
      -----------------------------------------------------------      

   * xtb version 6.7.1 (edcfbbe) compiled by 'conda@3ef47c1a292c' on 2024-11-25

   xtb is free software: you can redistribute it and/or modify it under
   the terms of the GNU Lesser General Public License as published by
   the Free Software Foundation, either version 3 of the License, or
   (at your option) any later version.
   
   xtb is distributed in the hope that it will be useful,
   but WITHOUT ANY WARRANTY; without even the implied warranty of
   MERCHANTABILITY or FITNESS FOR A PARTICULAR PURPOSE.  See the
   GNU Lesser General Public License for more details.
   
   Cite this work as:
   * C. Bannwarth, E. Caldeweyher, S. Ehlert, A. Hansen, P. Pracht,
     J. Seibert, S. Spicher, S. Grimme, WIREs Comput. Mol. Sci., 2020, 11,
     e01493. DOI: 10.1002/wcms.1493
   
   for GFN2-xTB:
   * C. Bannwarth, S. Ehlert and S. Grimme., J. Chem. Theory Comput., 2019,
     15, 1652-1671. DOI: 10.1021/acs.jctc.8b01176
   for GFN1-xTB:
   * S. Grimme, C. Bannwarth, P. Shushkov, J. Chem. Theory Comput., 2017,
     13, 1989-2009. DOI: 10.1021/acs.jctc.7b00118
   for GFN0-xTB:
   * P. Pracht, E. Caldeweyher, S. Ehlert, S. Grimme, ChemRxiv, 2019, preprint.
     DOI: 10.26434/chemrxiv.8326202.v1
   for GFN-FF:
   * S. Spicher and S. Grimme, Angew. Chem. Int. Ed., 2020, 59, 15665-15673.
     DOI: 10.1002/anie.202004239
   
   for ALPB and GBSA implicit solvation:
   * S. Ehlert, M. Stahn, S. Spicher, S. Grimme, J. Chem. Theory Comput.,
     2021, 17, 4250-4261. DOI: 10.1021/acs.jctc.1c00471
   
   for ddCOSMO and CPCM-X implicit solvation:
   * M. Stahn, S. Ehlert, S. Grimme, J. Phys. Chem. A,
     2023, XX, XXXX-XXXX. DOI: 10.1021/acs.jpca.3c04382
   
   for DFT-D4:
   * E. Caldeweyher, C. Bannwarth and S. Grimme, J. Chem. Phys., 2017,
     147, 034112. DOI: 10.1063/1.4993215
   * E. Caldeweyher, S. Ehlert, A. Hansen, H. Neugebauer, S. Spicher,
     C. Bannwarth and S. Grimme, J. Chem. Phys., 2019, 150, 154122.
     DOI: 10.1063/1.5090222
   * E. Caldeweyher, J.-M. Mewes, S. Ehlert and S. Grimme, Phys. Chem. Chem. Phys.
     2020, 22, 8499-8512. DOI: 10.1039/D0CP00502A
   
   for sTDA-xTB:
   * S. Grimme and C. Bannwarth, J. Chem. Phys., 2016, 145, 054103.
     DOI: 10.1063/1.4959605
   
   in the mass-spec context:
   * V. Asgeirsson, C. Bauer and S. Grimme, Chem. Sci., 2017, 8, 4879.
     DOI: 10.1039/c7sc00601b
   * J. Koopman and S. Grimme, ACS Omega 2019, 4, 12, 15120-15133.
     DOI: 10.1021/acsomega.9b02011
   
   for metadynamics refer to:
   * S. Grimme, J. Chem. Theory Comput., 2019, 155, 2847-2862
     DOI: 10.1021/acs.jctc.9b00143
   
   for SPH calculations refer to:
   * S. Spicher and S. Grimme, J. Chem. Theory Comput., 2021, 17, 1701-1714
     DOI: 10.1021/acs.jctc.0c01306
   
   for ONIOM refer to:
   * C. Plett, A. Katbashev, S. Ehlert, S. Grimme, M. Bursch,
     Phys. Chem. Chem. Phys., 2023, 25, 17860-17868. DOI: 10.1039/D3CP02178E
   
   for DIPRO refer to:
   * J. Kohn, N. Gildemeister, S. Grimme, D. Fazzi, A. Hansen,
     J. Chem. Phys., 2023, just accepted.
   
   for PTB refer to:
   * S. Grimme, M. Mueller, A. Hansen, J. Chem. Phys., 2023, 158, 124111.
     DOI: 10.1063/5.0137838
   
   with help from (in alphabetical order)
   P. Atkinson, C. Bannwarth, F. Bohle, G. Brandenburg, E. Caldeweyher
   M. Checinski, S. Dohm, S. Ehlert, S. Ehrlich, I. Gerasimov, C. Hölzer
   A. Katbashev, J. Kohn, J. Koopman, C. Lavigne, S. Lehtola, F. März, M. Müller,
   F. Musil, H. Neugebauer, J. Pisarek, C. Plett, P. Pracht, F. Pultar,
   J. Seibert, P. Shushkov, S. Spicher, M. Stahn, M. Steiner, T. Strunk,
   J. Stückrath, T. Rose, and J. Unsleber
   
 * started run on 2025/05/15 at 16:39:10.171     
   ID    Z sym.   atoms
    1    1 H      1, 23, 29-52
    2    6 C      2, 3, 5-13, 15-22, 24, 26
    3    7 N      4, 14
    4    8 O      25, 27, 28

           -------------------------------------------------
          |                Calculation Setup                |
           -------------------------------------------------

          program call               : xtb /rds/general/user/hgt20/home/callum/QDESCP/Yohimbine_rdkit_conf_9/Yohimbine_rdkit_conf_9.xyz --acc 1 --gfn 2 --chrg 0 --uhf 0 --etemp 300 --input /rds/general/user/hgt20/home/callum/QDESCP/Yohimbine_rdkit_conf_9/Yohimbine_rdkit_conf_9_xtb.inp -P 1
          hostname                   : login-c
          coordinate file            : /rds/general/user/hgt20/home/callum/QDESCP/Yohimbine_rdkit_conf_9/Yohimbine_rdkit_conf_9.xyz
          omp threads                :                     1


           -------------------------------------------------
          |                 G F N 2 - x T B                 |
           -------------------------------------------------

        Reference                      10.1021/acs.jctc.8b01176
      * Hamiltonian:
        H0-scaling (s, p, d)           1.850000    2.230000    2.230000
        zeta-weighting                 0.500000
      * Dispersion:
        s8                             2.700000
        a1                             0.520000
        a2                             5.000000
        s9                             5.000000
      * Repulsion:
        kExp                           1.500000    1.000000
        rExp                           1.000000
      * Coulomb:
        alpha                          2.000000
        third order                    shell-resolved
        anisotropic                    true
        a3                             3.000000
        a5                             4.000000
        cn-shift                       1.200000
        cn-exp                         4.000000
        max-rad                        5.000000

q/qsh data taken from xtbrestart
CAMM data taken from xtbrestart

          ...................................................
          :                      SETUP                      :
          :.................................................:
          :  # basis functions                 130          :
          :  # atomic orbitals                 130          :
          :  # shells                           78          :
          :  # electrons                       138          :
          :  max. iterations                   250          :
          :  Hamiltonian                  GFN2-xTB          :
          :  restarted?                       true          :
          :  GBSA solvation                  false          :
          :  PC potential                    false          :
          :  electronic temp.          300.0000000     K    :
          :  accuracy                    1.0000000          :
          :  -> integral cutoff          0.2500000E+02      :
          :  -> integral neglect         0.1000000E-07      :
          :  -> SCF convergence          0.1000000E-05 Eh   :
          :  -> wf. convergence          0.1000000E-03 e    :
          :  Broyden damping             0.4000000          :
          :  net charge                          0          :
          :  unpaired electrons                  0          :
          ...................................................

 iter      E             dE          RMSdq      gap      omega  full diag
   1    -77.3804633 -0.773805E+02  0.118E-05    3.15       0.0  T
   2    -77.3804633 -0.149214E-11  0.826E-06    3.15    1678.0  T
   3    -77.3804633 -0.210321E-11  0.493E-06    3.15    2815.3  T

   *** convergence criteria satisfied after 3 iterations ***

         #    Occupation            Energy/Eh            Energy/eV
      -------------------------------------------------------------
         1        2.0000           -0.7422772             -20.1984
       ...           ...                  ...                  ...
        63        2.0000           -0.4132858             -11.2461
        64        2.0000           -0.4067179             -11.0674
        65        2.0000           -0.4044349             -11.0052
        66        2.0000           -0.4032224             -10.9722
        67        2.0000           -0.3716283             -10.1125
        68        2.0000           -0.3511536              -9.5554
        69        2.0000           -0.3424633              -9.3189 (HOMO)
        70                         -0.2266179              -6.1666 (LUMO)
        71                         -0.2210257              -6.0144
        72                         -0.1893895              -5.1536
        73                         -0.1471123              -4.0031
        74                         -0.0619205              -1.6849
       ...                                ...                  ...
       130                          0.7314082              19.9026
      -------------------------------------------------------------
                  HL-Gap            0.1158454 Eh            3.1523 eV
             Fermi-level           -0.2845406 Eh           -7.7427 eV

 SCC (total)                   0 d,  0 h,  0 min,  0.059 sec
 SCC setup                      ...        0 min,  0.000 sec (  0.838%)
 Dispersion                     ...        0 min,  0.001 sec (  1.199%)
 classical contributions        ...        0 min,  0.000 sec (  0.358%)
 integral evaluation            ...        0 min,  0.010 sec ( 17.515%)
 iterations                     ...        0 min,  0.010 sec ( 17.567%)
 molecular gradient             ...        0 min,  0.037 sec ( 62.066%)
 printout                       ...        0 min,  0.000 sec (  0.448%)

         :::::::::::::::::::::::::::::::::::::::::::::::::::::
         ::                     SUMMARY                     ::
         :::::::::::::::::::::::::::::::::::::::::::::::::::::
         :: total energy             -76.357980956828 Eh    ::
         :: gradient norm              0.000325553079 Eh/a0 ::
         :: HOMO-LUMO gap              3.152313586731 eV    ::
         ::.................................................::
         :: SCC energy               -77.379949995256 Eh    ::
         :: -> isotropic ES            0.080770385591 Eh    ::
         :: -> anisotropic ES          0.010942366914 Eh    ::
         :: -> anisotropic XC          0.026466103327 Eh    ::
         :: -> dispersion             -0.059207577976 Eh    ::
         :: repulsion energy           1.021969038428 Eh    ::
         :: add. restraining           0.000000000000 Eh    ::
         :: total charge              -0.000000000000 e     ::
         :::::::::::::::::::::::::::::::::::::::::::::::::::::

           -------------------------------------------------
          |                Property Printout                |
           -------------------------------------------------

    * Orbital Energies and Occupations

         #    Occupation            Energy/Eh            Energy/eV
      -------------------------------------------------------------
         1        2.0000           -0.7422772             -20.1984
       ...           ...                  ...                  ...
        57        2.0000           -0.4410167             -12.0007
        58        2.0000           -0.4385828             -11.9344
        59        2.0000           -0.4333514             -11.7921
        60        2.0000           -0.4290070             -11.6739
        61        2.0000           -0.4247110             -11.5570
        62        2.0000           -0.4169085             -11.3447
        63        2.0000           -0.4132858             -11.2461
        64        2.0000           -0.4067179             -11.0674
        65        2.0000           -0.4044349             -11.0052
        66        2.0000           -0.4032224             -10.9722
        67        2.0000           -0.3716283             -10.1125
        68        2.0000           -0.3511536              -9.5554
        69        2.0000           -0.3424633              -9.3189 (HOMO)
        70                         -0.2266179              -6.1666 (LUMO)
        71                         -0.2210257              -6.0144
        72                         -0.1893895              -5.1536
        73                         -0.1471123              -4.0031
        74                         -0.0619205              -1.6849
        75                          0.0063007               0.1714
        76                          0.0109427               0.2978
        77                          0.0248531               0.6763
        78                          0.0312405               0.8501
        79                          0.0405169               1.1025
        80                          0.0578160               1.5733
       ...                                ...                  ...
       130                          0.7314082              19.9026
      -------------------------------------------------------------
                  HL-Gap            0.1158454 Eh            3.1523 eV
             Fermi-level           -0.2845406 Eh           -7.7427 eV

     #   Z          covCN         q      C6AA      α(0)
     1   1 H        0.923     0.034     2.524     2.485
     2   6 C        3.815     0.041    19.876     6.345
     3   6 C        3.092     0.028    27.258     8.557
     4   7 N        2.775    -0.119    23.595     7.214
     5   6 C        3.089     0.044    26.917     8.504
     6   6 C        3.108    -0.020    28.357     8.725
     7   6 C        2.911    -0.037    28.930     8.820
     8   6 C        2.920    -0.043    29.056     8.839
[...]
     Phys. Chem. Chem. Phys., 2023, 25, 17860-17868. DOI: 10.1039/D3CP02178E
   
   for DIPRO refer to:
   * J. Kohn, N. Gildemeister, S. Grimme, D. Fazzi, A. Hansen,
     J. Chem. Phys., 2023, just accepted.
   
   for PTB refer to:
   * S. Grimme, M. Mueller, A. Hansen, J. Chem. Phys., 2023, 158, 124111.
     DOI: 10.1063/5.0137838
   
   with help from (in alphabetical order)
   P. Atkinson, C. Bannwarth, F. Bohle, G. Brandenburg, E. Caldeweyher
   M. Checinski, S. Dohm, S. Ehlert, S. Ehrlich, I. Gerasimov, C. Hölzer
   A. Katbashev, J. Kohn, J. Koopman, C. Lavigne, S. Lehtola, F. März, M. Müller,
   F. Musil, H. Neugebauer, J. Pisarek, C. Plett, P. Pracht, F. Pultar,
   J. Seibert, P. Shushkov, S. Spicher, M. Stahn, M. Steiner, T. Strunk,
   J. Stückrath, T. Rose, and J. Unsleber
   
 * started run on 2025/05/15 at 16:39:13.236     
   ID    Z sym.   atoms
    1    1 H      1, 23, 29-52
    2    6 C      2, 3, 5-13, 15-22, 24, 26
    3    7 N      4, 14
    4    8 O      25, 27, 28

           -------------------------------------------------
          |                Calculation Setup                |
           -------------------------------------------------

          program call               : xtb /rds/general/user/hgt20/home/callum/QDESCP/Yohimbine_rdkit_conf_9/Yohimbine_rdkit_conf_9.xyz --acc 1 --gfn 2 --chrg 0 --uhf 2 --etemp 300 --input /rds/general/user/hgt20/home/callum/QDESCP/Yohimbine_rdkit_conf_9/Yohimbine_rdkit_conf_9_xtb.inp -P 1
          hostname                   : login-c
          coordinate file            : /rds/general/user/hgt20/home/callum/QDESCP/Yohimbine_rdkit_conf_9/Yohimbine_rdkit_conf_9.xyz
          omp threads                :                     1


           -------------------------------------------------
          |                 G F N 2 - x T B                 |
           -------------------------------------------------

        Reference                      10.1021/acs.jctc.8b01176
      * Hamiltonian:
        H0-scaling (s, p, d)           1.850000    2.230000    2.230000
        zeta-weighting                 0.500000
      * Dispersion:
        s8                             2.700000
        a1                             0.520000
        a2                             5.000000
        s9                             5.000000
      * Repulsion:
        kExp                           1.500000    1.000000
        rExp                           1.000000
      * Coulomb:
        alpha                          2.000000
        third order                    shell-resolved
        anisotropic                    true
        a3                             3.000000
        a5                             4.000000
        cn-shift                       1.200000
        cn-exp                         4.000000
        max-rad                        5.000000


          ...................................................
          :                      SETUP                      :
          :.................................................:
          :  # basis functions                 130          :
          :  # atomic orbitals                 130          :
          :  # shells                           78          :
          :  # electrons                       138          :
          :  max. iterations                   250          :
          :  Hamiltonian                  GFN2-xTB          :
          :  restarted?                      false          :
          :  GBSA solvation                  false          :
          :  PC potential                    false          :
          :  electronic temp.          300.0000000     K    :
          :  accuracy                    1.0000000          :
          :  -> integral cutoff          0.2500000E+02      :
          :  -> integral neglect         0.1000000E-07      :
          :  -> SCF convergence          0.1000000E-05 Eh   :
          :  -> wf. convergence          0.1000000E-03 e    :
          :  Broyden damping             0.4000000          :
          :  net charge                          0          :
          :  unpaired electrons                  2          :
          ...................................................

 iter      E             dE          RMSdq      gap      omega  full diag
   1    -76.8867308 -0.768867E+02  0.348E+00    0.98       0.0  T
   2    -76.7735987  0.113132E+00  0.331E+00    1.76       1.0  T
   3    -76.8947809 -0.121182E+00  0.205E+00    0.91       1.0  T
   4    -76.9366438 -0.418629E-01  0.217E+00    2.19       1.0  T
   5    -77.0012172 -0.645734E-01  0.163E+00    0.47       1.0  T
   6    -77.2141160 -0.212899E+00  0.907E-01    0.05       1.0  T
   7    -77.2337125 -0.195964E-01  0.817E-01    0.19       1.0  T
   8    -77.2371418 -0.342934E-02  0.719E-01    0.22       1.0  T
   9    -77.2393052 -0.216342E-02  0.445E-01    0.08       1.0  T
  10    -77.2387077  0.597521E-03  0.396E-01    0.49       1.0  T
  11    -77.2452416 -0.653393E-02  0.216E-01    0.34       1.0  T
  12    -77.2464335 -0.119187E-02  0.127E-01    0.22       1.0  T
  13    -77.2474954 -0.106193E-02  0.614E-02    0.16       1.0  T
  14    -77.2478298 -0.334369E-03  0.411E-02    0.12       1.0  T
  15    -77.2478764 -0.465785E-04  0.300E-02    0.14       1.0  T
  16    -77.2479591 -0.826953E-04  0.111E-02    0.12       1.3  T
  17    -77.2479688 -0.966915E-05  0.416E-03    0.12       3.3  T
  18    -77.2479662  0.253172E-05  0.642E-03    0.12       2.2  T
  19    -77.2479700 -0.374951E-05  0.919E-04    0.12      15.1  T
  20    -77.2479700 -0.716126E-07  0.550E-04    0.12      25.2  T
  21    -77.2479700 -0.613383E-09  0.533E-04    0.12      26.0  T

   *** convergence criteria satisfied after 21 iterations ***

         #    Occupation            Energy/Eh            Energy/eV
      -------------------------------------------------------------
         1        2.0000           -0.7314976             -19.9051
       ...           ...                  ...                  ...
        64        2.0000           -0.4044687             -11.0062
        65        2.0000           -0.4038048             -10.9881
        66        2.0000           -0.3973365             -10.8121
        67        2.0000           -0.3703361             -10.0774
        68        1.9360           -0.3594411              -9.7809
        69        1.0640           -0.3543426              -9.6422
        70        0.9146           -0.2180638              -5.9338 (HOMO)
        71        0.0854           -0.2135583              -5.8112 (LUMO)
        72                         -0.1865030              -5.0750
        73                         -0.1516902              -4.1277
        74                         -0.0583433              -1.5876
        75                         -0.0035715              -0.0972
       ...                                ...                  ...
       130                          0.7320116              19.9190
      -------------------------------------------------------------
                  HL-Gap            0.0045055 Eh            0.1226 eV
             Fermi-level           -0.2863514 Eh           -7.7920 eV

 transition dipole moment (au) for excitation:          69          70
     X       Y       Z   
  -1.5150   0.2851  -0.8277  total (au/Debye):    1.750   4.447
 dE (eV)             :    3.708
 oscillator strength :  0.39336E+00

 SCC (total)                   0 d,  0 h,  0 min,  0.116 sec
 SCC setup                      ...        0 min,  0.000 sec (  0.406%)
 Dispersion                     ...        0 min,  0.001 sec (  0.624%)
 classical contributions        ...        0 min,  0.000 sec (  0.188%)
 integral evaluation            ...        0 min,  0.010 sec (  8.925%)
 iterations                     ...        0 min,  0.061 sec ( 53.057%)
 molecular gradient             ...        0 min,  0.034 sec ( 29.094%)
 printout                       ...        0 min,  0.009 sec (  7.700%)

         :::::::::::::::::::::::::::::::::::::::::::::::::::::
         ::                     SUMMARY                     ::
         :::::::::::::::::::::::::::::::::::::::::::::::::::::
         :: total energy             -76.225487747887 Eh    ::
         :: gradient norm              0.151905194589 Eh/a0 ::
         :: HOMO-LUMO gap              0.122601088788 eV    ::
         ::.................................................::
         :: SCC energy               -77.247456786315 Eh    ::
         :: -> isotropic ES            0.083271489995 Eh    ::
         :: -> anisotropic ES          0.010055276555 Eh    ::
         :: -> anisotropic XC          0.024798581225 Eh    ::
         :: -> dispersion             -0.059038837596 Eh    ::
         :: repulsion energy           1.021969038428 Eh    ::
         :: add. restraining           0.000000000000 Eh    ::
         :: total charge              -0.000000000000 e     ::
         :::::::::::::::::::::::::::::::::::::::::::::::::::::

           -------------------------------------------------
          |                Property Printout                |
           -------------------------------------------------

    * Orbital Energies and Occupations

         #    Occupation            Energy/Eh            Energy/eV
      -------------------------------------------------------------
         1        2.0000           -0.7314976             -19.9051
       ...           ...                  ...                  ...
        58        2.0000           -0.4387201             -11.9382
        59        2.0000           -0.4373535             -11.9010
        60        2.0000           -0.4318958             -11.7525
        61        2.0000           -0.4260283             -11.5928
        62        2.0000           -0.4151672             -11.2973
        63        2.0000           -0.4141194             -11.2688
        64        2.0000           -0.4044687             -11.0062
        65        2.0000           -0.4038048             -10.9881
        66        2.0000           -0.3973365             -10.8121
        67        2.0000           -0.3703361             -10.0774
        68        1.9360           -0.3594411              -9.7809
        69        1.0640           -0.3543426              -9.6422
        70        0.9146           -0.2180638              -5.9338 (HOMO)
        71        0.0854           -0.2135583              -5.8112 (LUMO)
        72                         -0.1865030              -5.0750
        73                         -0.1516902              -4.1277
        74                         -0.0583433              -1.5876
        75                         -0.0035715              -0.0972
        76                          0.0177559               0.4832
        77                          0.0188121               0.5119
        78                          0.0276410               0.7521
        79                          0.0377870               1.0282
        80                          0.0512924               1.3957
        81                          0.0546732               1.4877
       ...                                ...                  ...
       130                          0.7320116              19.9190
      -------------------------------------------------------------
                  HL-Gap            0.0045055 Eh            0.1226 eV
             Fermi-level           -0.2863514 Eh           -7.7920 eV

     #   Z          covCN         q      C6AA      α(0)
     1   1 H        0.923     0.042     2.428     2.437
     2   6 C        3.815     0.040    19.895     6.348
     3   6 C        3.092     0.010    27.684     8.624
     4   7 N        2.775    -0.108    23.369     7.180
     5   6 C        3.089     0.047    26.847     8.493
     6   6 C        3.108    -0.031    28.625     8.766
     7   6 C        2.911    -0.049    29.227     8.865
     8   6 C        2.920    -0.043    29.057     8.840
     9   6 C        2.924    -0.040    28.985     8.829
    10   6 C        2.908    -0.070    29.735     8.941
    11   6 C        3.069    -0.009    28.163     8.702
    12   6 C        3.808    -0.061    21.674     6.627
    13   6 C        3.756     0.010    20.457     6.449
    14   7 N        2.735    -0.152    24.287     7.319
    15   6 C        3.764    -0.002    20.649     6.477
    16   6 C        3.860    -0.027    21.018     6.520
    17   6 C        3.808    -0.060    21.649     6.623
    18   6 C        3.805    -0.070    21.838     6.653
    19   6 C        3.736     0.123    18.653     6.164
    20   6 C        3.858    -0.047    21.370     6.574
    21   6 C        3.862    -0.021    20.910     6.503
    22   6 C        3.808    -0.063    21.703     6.632
    23   1 H        0.924     0.061     2.187     2.312
    24   6 C        2.734     0.348    21.096     7.520
    25   8 O        1.704    -0.258    18.271     5.771
    26   6 C        3.660     0.035    20.252     6.457
    27   8 O        0.856    -0.436    22.408     6.347
    28   8 O        1.656    -0.442    21.685     6.286
    29   1 H        0.924     0.030     2.585     2.514
    30   1 H        0.860     0.160     1.333     1.809
    31   1 H        0.926     0.016     2.797     2.615
    32   1 H        0.926     0.020     2.739     2.588
    33   1 H        0.926     0.020     2.736     2.587
    34   1 H        0.926     0.012     2.860     2.645
    35   1 H        0.924     0.051     2.305     2.374
    36   1 H        0.924     0.059     2.209     2.324
    37   1 H        0.923     0.021     2.724     2.581
    38   1 H        0.924     0.037     2.489     2.467
    39   1 H        0.924     0.038     2.475     2.460
    40   1 H        0.924     0.041     2.442     2.444
    41   1 H        0.924     0.045     2.381     2.413
    42   1 H        0.924     0.033     2.550     2.497
    43   1 H        0.924     0.033     2.540     2.492
    44   1 H        0.924     0.038     2.471     2.458
    45   1 H        0.923     0.021     2.712     2.576
    46   1 H        0.924     0.050     2.321     2.383
    47   1 H        0.925     0.039     2.458     2.452
    48   1 H        0.924     0.034     2.533     2.489
    49   1 H        0.924     0.058     2.221     2.330
    50   1 H        0.924     0.063     2.161     2.299
    51   1 H        0.925     0.063     2.167     2.302
    52   1 H        0.805     0.290     0.751     1.361

 Mol. C6AA /au·bohr⁶  :      27208.093089
 Mol. C8AA /au·bohr⁸  :     628842.880813
 Mol. α(0) /au        :        250.719296


Wiberg/Mayer (AO) data.
largest (>0.10) Wiberg bond orders for each atom

 ---------------------------------------------------------------------------
     #   Z sym  total        # sym  WBO       # sym  WBO       # sym  WBO
 ---------------------------------------------------------------------------
     1   1 H    0.992 --     2 C    0.944
     2   6 C    3.980 --     3 C    1.017    14 N    0.996     1 H    0.944
                            22 C    0.943
     3   6 C    3.781 --     4 N    1.221    11 C    1.212     2 C    1.017
                            10 C    0.104
     4   7 N    3.519 --     3 C    1.221     5 C    1.125    30 H    0.945
     5   6 C    3.948 --    10 C    1.393     6 C    1.237     4 N    1.125
     6   6 C    3.960 --    11 C    1.328     5 C    1.237     7 C    1.176
     7   6 C    3.786 --     8 C    1.355     6 C    1.176    31 H    0.970
     8   6 C    3.979 --     9 C    1.496     7 C    1.355    32 H    0.972
     9   6 C    3.878 --     8 C    1.496    10 C    1.191    33 H    0.973
    10   6 C    3.826 --     5 C    1.393     9 C    1.191    34 H    0.969
                             3 C    0.104
    11   6 C    3.873 --     6 C    1.328     3 C    1.212    12 C    1.029
    12   6 C    3.993 --    11 C    1.029    13 C    0.997    35 H    0.963
                            36 H    0.948
    13   6 C    3.982 --    14 N    1.002    12 C    0.997    38 H    0.973
                            37 H    0.961
    14   7 N    3.144 --    15 C    1.010    13 C    1.002     2 C    0.996
    15   6 C    3.980 --    14 N    1.010    16 C    0.974    39 H    0.970
                            40 H    0.968
    16   6 C    3.986 --    17 C    0.998    21 C    0.986    15 C    0.974
                            29 H    0.965
    17   6 C    3.995 --    18 C    1.007    16 C    0.998    42 H    0.976
                            41 H    0.975
    18   6 C    3.995 --    17 C    1.007    19 C    0.986    44 H    0.976
                            43 H    0.973
    19   6 C    3.952 --    28 O    0.991    18 C    0.986    45 H    0.960
                            20 C    0.956
    20   6 C    3.988 --    21 C    0.982    46 H    0.958    19 C    0.956
                            24 C    0.952
    21   6 C    3.988 --    22 C    0.996    16 C    0.986    20 C    0.982
                            23 H    0.961
    22   6 C    3.967 --    21 C    0.996    48 H    0.973    47 H    0.972
                             2 C    0.943
    23   1 H    0.996 --    21 C    0.961
    24   6 C    3.836 --    27 O    1.705    25 O    1.117    20 C    0.952
    25   8 O    2.286 --    24 C    1.117    26 C    0.960    27 O    0.160
    26   6 C    3.930 --    51 H    0.983    49 H    0.977    50 H    0.977
                            25 O    0.960
    27   8 O    1.966 --    24 C    1.705    25 O    0.160
    28   8 O    1.962 --    19 C    0.991    52 H    0.898
    29   1 H    0.999 --    16 C    0.965
    30   1 H    0.974 --     4 N    0.945
    31   1 H    0.999 --     7 C    0.970
    32   1 H    0.999 --     8 C    0.972
    33   1 H    0.999 --     9 C    0.973
    34   1 H    0.999 --    10 C    0.969
    35   1 H    0.993 --    12 C    0.963
    36   1 H    0.987 --    12 C    0.948
    37   1 H    0.993 --    13 C    0.961
    38   1 H    0.998 --    13 C    0.973
    39   1 H    0.997 --    15 C    0.970
    40   1 H    0.996 --    15 C    0.968
    41   1 H    0.998 --    17 C    0.975
    42   1 H    0.998 --    17 C    0.976
    43   1 H    0.997 --    18 C    0.973
    44   1 H    0.999 --    18 C    0.976
    45   1 H    0.998 --    19 C    0.960
    46   1 H    0.996 --    20 C    0.958
    47   1 H    0.998 --    22 C    0.972
    48   1 H    0.999 --    22 C    0.973
    49   1 H    0.996 --    26 C    0.977
    50   1 H    0.995 --    26 C    0.977
    51   1 H    0.996 --    26 C    0.983
    52   1 H    0.916 --    28 O    0.898
 ---------------------------------------------------------------------------

Topologies differ in total number of bonds
Writing topology from bond orders to xtbtopo.mol

molecular dipole:
                 x           y           z       tot (Debye)
 q only:       -0.400      -1.531      -0.473
   full:       -0.956      -1.499      -0.353       4.607
molecular quadrupole (traceless):
                xx          xy          yy          xz          yz          zz
 q only:      -13.766       8.093       5.395       4.458     -10.808       8.370
  q+dip:      -14.109      12.600       4.804       5.647     -14.753       9.305
   full:      -13.623      12.504       4.314       4.937     -13.673       9.309


           -------------------------------------------------
          | TOTAL ENERGY              -76.225487747887 Eh   |
          | GRADIENT NORM               0.151905194589 Eh/α |
          | HOMO-LUMO GAP               0.122601088788 eV   |
           -------------------------------------------------

------------------------------------------------------------------------
 * finished run on 2025/05/15 at 16:39:13.368     
------------------------------------------------------------------------
 total:
 * wall-time:     0 d,  0 h,  0 min,  0.132 sec
 *  cpu-time:     0 d,  0 h,  0 min,  0.130 sec
 * ratio c/w:     0.986 speedup
 SCF:
 * wall-time:     0 d,  0 h,  0 min,  0.116 sec
 *  cpu-time:     0 d,  0 h,  0 min,  0.115 sec
 * ratio c/w:     0.996 speedup


