----- Optimization -----
      -----------------------------------------------------------      
     |                   =====================                   |     
     |                           x T B                           |     
     |                   =====================                   |     
     |                         S. Grimme                         |     
     |          Mulliken Center for Theoretical Chemistry        |     
     |                    University of Bonn                     |     
      -----------------------------------------------------------      

   * xtb version 6.7.1 (edcfbbe) compiled by 'conda@3ef47c1a292c' on 2024-11-25

   xtb is free software: you can redistribute it and/or modify it under
   the terms of the GNU Lesser General Public License as published by
   the Free Software Foundation, either version 3 of the License, or
   (at your option) any later version.
   
   xtb is distributed in the hope that it will be useful,
   but WITHOUT ANY WARRANTY; without even the implied warranty of
   MERCHANTABILITY or FITNESS FOR A PARTICULAR PURPOSE.  See the
   GNU Lesser General Public License for more details.
   
   Cite this work as:
   * C. Bannwarth, E. Caldeweyher, S. Ehlert, A. Hansen, P. Pracht,
     J. Seibert, S. Spicher, S. Grimme, WIREs Comput. Mol. Sci., 2020, 11,
     e01493. DOI: 10.1002/wcms.1493
   
   for GFN2-xTB:
   * C. Bannwarth, S. Ehlert and S. Grimme., J. Chem. Theory Comput., 2019,
     15, 1652-1671. DOI: 10.1021/acs.jctc.8b01176
   for GFN1-xTB:
   * S. Grimme, C. Bannwarth, P. Shushkov, J. Chem. Theory Comput., 2017,
     13, 1989-2009. DOI: 10.1021/acs.jctc.7b00118
   for GFN0-xTB:
   * P. Pracht, E. Caldeweyher, S. Ehlert, S. Grimme, ChemRxiv, 2019, preprint.
     DOI: 10.26434/chemrxiv.8326202.v1
   for GFN-FF:
   * S. Spicher and S. Grimme, Angew. Chem. Int. Ed., 2020, 59, 15665-15673.
     DOI: 10.1002/anie.202004239
   
   for ALPB and GBSA implicit solvation:
   * S. Ehlert, M. Stahn, S. Spicher, S. Grimme, J. Chem. Theory Comput.,
     2021, 17, 4250-4261. DOI: 10.1021/acs.jctc.1c00471
   
   for ddCOSMO and CPCM-X implicit solvation:
   * M. Stahn, S. Ehlert, S. Grimme, J. Phys. Chem. A,
     2023, XX, XXXX-XXXX. DOI: 10.1021/acs.jpca.3c04382
   
   for DFT-D4:
   * E. Caldeweyher, C. Bannwarth and S. Grimme, J. Chem. Phys., 2017,
     147, 034112. DOI: 10.1063/1.4993215
   * E. Caldeweyher, S. Ehlert, A. Hansen, H. Neugebauer, S. Spicher,
     C. Bannwarth and S. Grimme, J. Chem. Phys., 2019, 150, 154122.
     DOI: 10.1063/1.5090222
   * E. Caldeweyher, J.-M. Mewes, S. Ehlert and S. Grimme, Phys. Chem. Chem. Phys.
     2020, 22, 8499-8512. DOI: 10.1039/D0CP00502A
   
   for sTDA-xTB:
   * S. Grimme and C. Bannwarth, J. Chem. Phys., 2016, 145, 054103.
     DOI: 10.1063/1.4959605
   
   in the mass-spec context:
   * V. Asgeirsson, C. Bauer and S. Grimme, Chem. Sci., 2017, 8, 4879.
     DOI: 10.1039/c7sc00601b
   * J. Koopman and S. Grimme, ACS Omega 2019, 4, 12, 15120-15133.
     DOI: 10.1021/acsomega.9b02011
   
   for metadynamics refer to:
   * S. Grimme, J. Chem. Theory Comput., 2019, 155, 2847-2862
     DOI: 10.1021/acs.jctc.9b00143
   
   for SPH calculations refer to:
   * S. Spicher and S. Grimme, J. Chem. Theory Comput., 2021, 17, 1701-1714
     DOI: 10.1021/acs.jctc.0c01306
   
   for ONIOM refer to:
   * C. Plett, A. Katbashev, S. Ehlert, S. Grimme, M. Bursch,
     Phys. Chem. Chem. Phys., 2023, 25, 17860-17868. DOI: 10.1039/D3CP02178E
   
   for DIPRO refer to:
   * J. Kohn, N. Gildemeister, S. Grimme, D. Fazzi, A. Hansen,
     J. Chem. Phys., 2023, just accepted.
   
   for PTB refer to:
   * S. Grimme, M. Mueller, A. Hansen, J. Chem. Phys., 2023, 158, 124111.
     DOI: 10.1063/5.0137838
   
   with help from (in alphabetical order)
   P. Atkinson, C. Bannwarth, F. Bohle, G. Brandenburg, E. Caldeweyher
   M. Checinski, S. Dohm, S. Ehlert, S. Ehrlich, I. Gerasimov, C. Hölzer
   A. Katbashev, J. Kohn, J. Koopman, C. Lavigne, S. Lehtola, F. März, M. Müller,
   F. Musil, H. Neugebauer, J. Pisarek, C. Plett, P. Pracht, F. Pultar,
   J. Seibert, P. Shushkov, S. Spicher, M. Stahn, M. Steiner, T. Strunk,
   J. Stückrath, T. Rose, and J. Unsleber
   
 * started run on 2025/05/15 at 16:05:26.531     
   ID    Z sym.   atoms
    1    6 C      1-7, 9, 11, 13-16, 18, 19, 21, 22, 24, 26-31
    2    7 N      8, 10, 12, 17, 20, 23, 25
    3    8 O      32, 33
    4    1 H      34-62

           -------------------------------------------------
          |                Calculation Setup                |
           -------------------------------------------------

          program call               : xtb /rds/general/user/hgt20/home/callum/QDESCP/Palbociclib_rdkit_conf_16/Palbociclib_rdkit_conf_16.xyz --opt normal --acc 1 --gfn 2 --chrg 0 --uhf 0 -P 1
          hostname                   : login-c
          coordinate file            : /rds/general/user/hgt20/home/callum/QDESCP/Palbociclib_rdkit_conf_16/Palbociclib_rdkit_conf_16.xyz
          omp threads                :                     1


           -------------------------------------------------
          |                 G F N 2 - x T B                 |
           -------------------------------------------------

        Reference                      10.1021/acs.jctc.8b01176
      * Hamiltonian:
        H0-scaling (s, p, d)           1.850000    2.230000    2.230000
        zeta-weighting                 0.500000
      * Dispersion:
        s8                             2.700000
        a1                             0.520000
        a2                             5.000000
        s9                             5.000000
      * Repulsion:
        kExp                           1.500000    1.000000
        rExp                           1.000000
      * Coulomb:
        alpha                          2.000000
        third order                    shell-resolved
        anisotropic                    true
        a3                             3.000000
        a5                             4.000000
        cn-shift                       1.200000
        cn-exp                         4.000000
        max-rad                        5.000000


          ...................................................
          :                      SETUP                      :
          :.................................................:
          :  # basis functions                 161          :
          :  # atomic orbitals                 161          :
          :  # shells                           95          :
          :  # electrons                       172          :
          :  max. iterations                   250          :
          :  Hamiltonian                  GFN2-xTB          :
          :  restarted?                      false          :
          :  GBSA solvation                  false          :
          :  PC potential                    false          :
          :  electronic temp.          300.0000000     K    :
          :  accuracy                    1.0000000          :
          :  -> integral cutoff          0.2500000E+02      :
          :  -> integral neglect         0.1000000E-07      :
          :  -> SCF convergence          0.1000000E-05 Eh   :
          :  -> wf. convergence          0.1000000E-03 e    :
          :  Broyden damping             0.4000000          :
          :  net charge                          0          :
          :  unpaired electrons                  0          :
          ...................................................

 iter      E             dE          RMSdq      gap      omega  full diag
   1    -95.9227785 -0.959228E+02  0.363E+00    1.66       0.0  T
   2    -96.0725617 -0.149783E+00  0.212E+00    1.77       1.0  T
   3    -96.0823675 -0.980579E-02  0.117E+00    1.64       1.0  T
   4    -96.0893154 -0.694795E-02  0.328E-01    1.42       1.0  T
   5    -96.0939297 -0.461429E-02  0.134E-01    1.50       1.0  T
   6    -96.0947272 -0.797494E-03  0.538E-02    1.49       1.0  T
   7    -96.0948044 -0.771851E-04  0.205E-02    1.50       1.0  T
   8    -96.0948076 -0.318750E-05  0.837E-03    1.51       1.5  T
   9    -96.0948084 -0.846672E-06  0.319E-03    1.51       4.0  T
  10    -96.0948086 -0.209771E-06  0.123E-03    1.51      10.3  T
  11    -96.0948087 -0.322838E-07  0.639E-04    1.51      19.9  T
  12    -96.0948087 -0.733047E-08  0.261E-04    1.51      48.6  T

   *** convergence criteria satisfied after 12 iterations ***

         #    Occupation            Energy/Eh            Energy/eV
      -------------------------------------------------------------
         1        2.0000           -0.7004756             -19.0609
       ...           ...                  ...                  ...
        80        2.0000           -0.4019262             -10.9370
        81        2.0000           -0.3993888             -10.8679
        82        2.0000           -0.3892145             -10.5911
        83        2.0000           -0.3822667             -10.4020
        84        2.0000           -0.3781279             -10.2894
        85        2.0000           -0.3751856             -10.2093
        86        2.0000           -0.3483109              -9.4780 (HOMO)
        87                         -0.2929958              -7.9728 (LUMO)
        88                         -0.2705210              -7.3612
        89                         -0.2516631              -6.8481
        90                         -0.2437748              -6.6335
        91                         -0.2345361              -6.3821
       ...                                ...                  ...
       161                          0.6849974              18.6397
      -------------------------------------------------------------
                  HL-Gap            0.0553151 Eh            1.5052 eV
             Fermi-level           -0.3206534 Eh           -8.7254 eV

 SCC (total)                   0 d,  0 h,  0 min,  0.212 sec
 SCC setup                      ...        0 min,  0.001 sec (  0.319%)
 Dispersion                     ...        0 min,  0.001 sec (  0.453%)
 classical contributions        ...        0 min,  0.000 sec (  0.148%)
 integral evaluation            ...        0 min,  0.013 sec (  6.272%)
 iterations                     ...        0 min,  0.100 sec ( 46.915%)
 molecular gradient             ...        0 min,  0.097 sec ( 45.726%)
 printout                       ...        0 min,  0.000 sec (  0.163%)

         :::::::::::::::::::::::::::::::::::::::::::::::::::::
         ::                     SUMMARY                     ::
         :::::::::::::::::::::::::::::::::::::::::::::::::::::
         :: total energy             -94.856423170225 Eh    ::
         :: gradient norm              0.128400574788 Eh/a0 ::
         :: HOMO-LUMO gap              1.505199270158 eV    ::
         ::.................................................::
         :: SCC energy               -96.095028838877 Eh    ::
         :: -> isotropic ES            0.110813418133 Eh    ::
         :: -> anisotropic ES          0.010756882375 Eh    ::
         :: -> anisotropic XC          0.055198302625 Eh    ::
         :: -> dispersion             -0.069715195205 Eh    ::
         :: repulsion energy           1.238605668652 Eh    ::
         :: add. restraining           0.000000000000 Eh    ::
         :: total charge               0.000000000000 e     ::
         :::::::::::::::::::::::::::::::::::::::::::::::::::::

      ----------------------------------------------------------- 
     |                   =====================                   |
     |                        A N C O P T                        |
     |                   =====================                   |
     |               Approximate Normal Coordinate               |
     |                Rational Function Optimizer                |
      ----------------------------------------------------------- 
      ----------------------------------------------------------- 
     |                   =====================                   |
     |                        A N C O P T                        |
     |                   =====================                   |
     |               Approximate Normal Coordinate               |
     |                Rational Function Optimizer                |
      ----------------------------------------------------------- 

          ...................................................
          :                      SETUP                      :
          :.................................................:
          :   optimization level            normal          :
          :   max. optcycles                   200          :
          :   ANC micro-cycles                  20          :
          :   degrees of freedom               180          :
          :.................................................:
          :   RF solver                   davidson          :
          :   write xtbopt.log                true          :
          :   linear?                        false          :
          :   energy convergence         0.5000000E-05 Eh   :
          :   grad. convergence          0.1000000E-02 Eh/α :
          :   maxmium RF displ.          1.0000000          :
          :   Hlow (freq-cutoff)         0.1000000E-01      :
          :   Hmax (freq-cutoff)         5.0000000          :
          :   S6 in model hess.         20.0000000          :
          ...................................................

generating ANC from exact Hessian ...
Using Lindh-Hessian (1995)
 Shifting diagonal of input Hessian by    9.8492561594252723E-003
 Lowest  eigenvalues of input Hessian
    0.000000    0.000000    0.000000    0.000000    0.000000    0.000000
    0.010000    0.010081    0.010289    0.010427    0.010673    0.011028
    0.011166    0.011685    0.011930    0.012361    0.013020    0.013576
 Highest eigenvalues
    2.048057    2.063551    2.123450    2.225237    2.258633    2.301731


........................................................................
.............................. CYCLE    1 ..............................
........................................................................

 iter      E             dE          RMSdq      gap      omega  full diag
   1    -96.0948087 -0.960948E+02  0.850E-05    1.51       0.0  T
   2    -96.0948087 -0.139096E-09  0.555E-05    1.51     228.7  T
   3    -96.0948087 -0.118632E-09  0.320E-05    1.51     397.5  T
     SCC iter.                  ...        0 min,  0.014 sec
     gradient                   ...        0 min,  0.097 sec
 * total energy  :   -94.8564232 Eh     change       -0.1351495E-08 Eh
   gradient norm :     0.1284018 Eh/α   predicted     0.0000000E+00 (-100.00%)
   displ. norm   :     0.3978685 α      lambda       -0.2251268E-01
   maximum displ.:     0.1036763 α      in ANC's #13, #26, #60, ...

........................................................................
.............................. CYCLE    2 ..............................
........................................................................

 iter      E             dE          RMSdq      gap      omega  full diag
   1    -96.1407512 -0.961408E+02  0.199E-01    1.46       0.0  T
   2    -96.1410354 -0.284197E-03  0.123E-01    1.54       1.0  T
   3    -96.1410262  0.917911E-05  0.640E-02    1.53       1.0  T
   4    -96.1411083 -0.820898E-04  0.167E-02    1.54       1.0  T
   5    -96.1411238 -0.154675E-04  0.537E-03    1.54       2.4  T
   6    -96.1411248 -0.108673E-05  0.260E-03    1.54       4.9  T
   7    -96.1411249 -0.901603E-07  0.106E-03    1.54      12.0  T
   8    -96.1411250 -0.290646E-07  0.314E-04    1.54      40.4  T
   9    -96.1411250 -0.206825E-08  0.164E-04    1.54      77.4  T
     SCC iter.                  ...        0 min,  0.087 sec
     gradient                   ...        0 min,  0.093 sec
 * total energy  :   -94.8724497 Eh     change       -0.1602656E-01 Eh
   gradient norm :     0.0570780 Eh/α   predicted    -0.1306955E-01 ( -18.45%)
   displ. norm   :     0.4375197 α      lambda       -0.9256946E-02
   maximum displ.:     0.1769627 α      in ANC's #13, #26, #19, ...

........................................................................
.............................. CYCLE    3 ..............................
........................................................................

 iter      E             dE          RMSdq      gap      omega  full diag
   1    -96.1730666 -0.961731E+02  0.141E-01    1.47       0.0  T
   2    -96.1732803 -0.213779E-03  0.871E-02    1.55       1.0  T
   3    -96.1733190 -0.386962E-04  0.500E-02    1.54       1.0  T
   4    -96.1733459 -0.268083E-04  0.150E-02    1.55       1.0  T
   5    -96.1733588 -0.129365E-04  0.432E-03    1.55       2.9  T
   6    -96.1733597 -0.919855E-06  0.178E-03    1.55       7.1  T
   7    -96.1733597 -0.387197E-07  0.709E-04    1.55      17.9  T
   8    -96.1733598 -0.921155E-08  0.223E-04    1.55      56.9  T
     SCC iter.                  ...        0 min,  0.079 sec
     gradient                   ...        0 min,  0.096 sec
 * total energy  :   -94.8782206 Eh     change       -0.5770918E-02 Eh
   gradient norm :     0.0190892 Eh/α   predicted    -0.5514472E-02 (  -4.44%)
   displ. norm   :     0.3463500 α      lambda       -0.2255647E-02
   maximum displ.:     0.1916707 α      in ANC's #13, #8, #19, ...

........................................................................
.............................. CYCLE    4 ..............................
........................................................................

 iter      E             dE          RMSdq      gap      omega  full diag
   1    -96.1830115 -0.961830E+02  0.738E-02    1.50       0.0  T
   2    -96.1830510 -0.394515E-04  0.444E-02    1.53       1.0  T
   3    -96.1830479  0.308341E-05  0.254E-02    1.53       1.0  T
   4    -96.1830609 -0.130257E-04  0.710E-03    1.53       1.8  T
   5    -96.1830641 -0.311145E-05  0.203E-03    1.53       6.3  T
   6    -96.1830642 -0.181804E-06  0.847E-04    1.53      15.0  T
   7    -96.1830642 -0.550135E-08  0.259E-04    1.53      49.1  T
     SCC iter.                  ...        0 min,  0.081 sec
     gradient                   ...        0 min,  0.051 sec
 * total energy  :   -94.8798479 Eh     change       -0.1627249E-02 Eh
   gradient norm :     0.0134649 Eh/α   predicted    -0.1263231E-02 ( -22.37%)
   displ. norm   :     0.3691489 α      lambda       -0.1294862E-02
   maximum displ.:     0.2130068 α      in ANC's #13, #8, #19, ...

........................................................................
.............................. CYCLE    5 ..............................
........................................................................

 iter      E             dE          RMSdq      gap      omega  full diag
   1    -96.1880544 -0.961881E+02  0.715E-02    1.50       0.0  T
   2    -96.1880761 -0.217183E-04  0.423E-02    1.51       1.0  T
   3    -96.1880693  0.682925E-05  0.190E-02    1.51       1.0  T
   4    -96.1880797 -0.103825E-04  0.460E-03    1.51       2.8  T
   5    -96.1880808 -0.116175E-05  0.175E-03    1.51       7.3  T
   6    -96.1880809 -0.104288E-06  0.798E-04    1.51      15.9  T
   7    -96.1880809 -0.653536E-08  0.238E-04    1.51      53.4  T
     SCC iter.                  ...        0 min,  0.030 sec
     gradient                   ...        0 min,  0.097 sec
 * total energy  :   -94.8807072 Eh     change       -0.8593056E-03 Eh
   gradient norm :     0.0079059 Eh/α   predicted    -0.7356632E-03 ( -14.39%)
   displ. norm   :     0.2605649 α      lambda       -0.4570096E-03
   maximum displ.:     0.1717571 α      in ANC's #8, #13, #11, ...

........................................................................
.............................. CYCLE    6 ..............................
........................................................................

 iter      E             dE          RMSdq      gap      omega  full diag
   1    -96.1899590 -0.961900E+02  0.489E-02    1.50       0.0  T
   2    -96.1899633 -0.434766E-05  0.285E-02    1.50       1.0  T
   3    -96.1899602  0.309417E-05  0.948E-03    1.50       1.3  T
   4    -96.1899643 -0.404689E-05  0.189E-03    1.50       6.7  T
   5    -96.1899644 -0.128832E-06  0.883E-04    1.50      14.4  T
   6    -96.1899644 -0.112894E-07  0.467E-04    1.50      27.2  T
     SCC iter.                  ...        0 min,  0.026 sec
     gradient                   ...        0 min,  0.094 sec
 * total energy  :   -94.8810428 Eh     change       -0.3355691E-03 Eh
   gradient norm :     0.0063940 Eh/α   predicted    -0.2440193E-03 ( -27.28%)
   displ. norm   :     0.2509621 α      lambda       -0.3494912E-03
   maximum displ.:     0.1663074 α      in ANC's #8, #13, #11, ...

........................................................................
.............................. CYCLE    7 ..............................
........................................................................

 iter      E             dE          RMSdq      gap      omega  full diag
   1    -96.1906668 -0.961907E+02  0.476E-02    1.50       0.0  T
   2    -96.1906689 -0.205768E-05  0.278E-02    1.50       1.0  T
   3    -96.1906668  0.207053E-05  0.649E-03    1.50       2.0  T
   4    -96.1906695 -0.263867E-05  0.150E-03    1.50       8.5  T
   5    -96.1906695 -0.575580E-07  0.743E-04    1.50      17.1  T
   6    -96.1906695 -0.405821E-08  0.387E-04    1.50      32.8  T
     SCC iter.                  ...        0 min,  0.071 sec
     gradient                   ...        0 min,  0.103 sec
 * total energy  :   -94.8813186 Eh     change       -0.2758368E-03 Eh
   gradient norm :     0.0063027 Eh/α   predicted    -0.1857529E-03 ( -32.66%)
   displ. norm   :     0.3285746 α      lambda       -0.3958790E-03
   maximum displ.:     0.2100899 α      in ANC's #8, #11, #4, ...

........................................................................
.............................. CYCLE    8 ..............................
........................................................................

 iter      E             dE          RMSdq      gap      omega  full diag
   1    -96.1905160 -0.961905E+02  0.658E-02    1.50       0.0  T
   2    -96.1905188 -0.284881E-05  0.387E-02    1.50       1.0  T
   3    -96.1905145  0.431848E-05  0.896E-03    1.50       1.4  T
   4    -96.1905197 -0.518171E-05  0.226E-03    1.50       5.6  T
   5    -96.1905199 -0.164706E-06  0.107E-03    1.50      11.9  T
   6    -96.1905199 -0.145575E-07  0.530E-04    1.50      23.9  T
   7    -96.1905199 -0.743603E-08  0.192E-04    1.50      66.3  T
     SCC iter.                  ...        0 min,  0.075 sec
     gradient                   ...        0 min,  0.102 sec
 * total energy  :   -94.8816135 Eh     change       -0.2948900E-03 Eh
   gradient norm :     0.0073870 Eh/α   predicted    -0.2193130E-03 ( -25.63%)
   displ. norm   :     0.3304221 α      lambda       -0.3282313E-03
   maximum displ.:     0.1999243 α      in ANC's #8, #4, #11, ...

........................................................................
.............................. CYCLE    9 ..............................
........................................................................

 iter      E             dE          RMSdq      gap      omega  full diag
   1    -96.1900902 -0.961901E+02  0.692E-02    1.51       0.0  T
   2    -96.1900928 -0.262536E-05  0.407E-02    1.51       1.0  T
   3    -96.1900847  0.814372E-05  0.122E-02    1.51       1.0  T
   4    -96.1900941 -0.943825E-05  0.220E-03    1.51       5.8  T
   5    -96.1900943 -0.139482E-06  0.108E-03    1.51      11.8  T
   6    -96.1900943 -0.134838E-07  0.498E-04    1.51      25.5  T
   7    -96.1900943 -0.414283E-08  0.195E-04    1.51      65.0  T
     SCC iter.                  ...        0 min,  0.030 sec
     gradient                   ...        0 min,  0.152 sec
 * total energy  :   -94.8818539 Eh     change       -0.2404361E-03 Eh
   gradient norm :     0.0075246 Eh/α   predicted    -0.1820380E-03 ( -24.29%)
   displ. norm   :     0.2832012 α      lambda       -0.2872492E-03
   maximum displ.:     0.1460216 α      in ANC's #8, #4, #18, ...

........................................................................
.............................. CYCLE   10 ..............................
........................................................................

 iter      E             dE          RMSdq      gap      omega  full diag
   1    -96.1906273 -0.961906E+02  0.624E-02    1.51       0.0  T
   2    -96.1906295 -0.222408E-05  0.365E-02    1.51       1.0  T
   3    -96.1906198  0.963799E-05  0.134E-02    1.52       1.0  T
   4    -96.1906309 -0.110631E-04  0.192E-03    1.51       6.6  T
   5    -96.1906310 -0.116080E-06  0.929E-04    1.51      13.7  T
   6    -96.1906310 -0.944529E-08  0.431E-04    1.51      29.5  T
     SCC iter.                  ...        0 min,  0.026 sec
     gradient                   ...        0 min,  0.097 sec
 * total energy  :   -94.8820642 Eh     change       -0.2102502E-03 Eh
   gradient norm :     0.0054808 Eh/α   predicted    -0.1551452E-03 ( -26.21%)
   displ. norm   :     0.2850876 α      lambda       -0.2247725E-03
   maximum displ.:     0.1266104 α      in ANC's #8, #4, #18, ...

........................................................................
.............................. CYCLE   11 ..............................
........................................................................

 iter      E             dE          RMSdq      gap      omega  full diag
   1    -96.1901689 -0.961902E+02  0.571E-02    1.51       0.0  T
   2    -96.1901712 -0.228317E-05  0.334E-02    1.51       1.0  T
   3    -96.1901626  0.861186E-05  0.132E-02    1.52       1.0  T
   4    -96.1901725 -0.996871E-05  0.206E-03    1.52       6.2  T
   5    -96.1901727 -0.166522E-06  0.971E-04    1.52      13.1  T
   6    -96.1901727 -0.116894E-07  0.464E-04    1.52      27.3  T
     SCC iter.                  ...        0 min,  0.071 sec
     gradient                   ...        0 min,  0.096 sec
 * total energy  :   -94.8822132 Eh     change       -0.1490321E-03 Eh
   gradient norm :     0.0056707 Eh/α   predicted    -0.1215262E-03 ( -18.46%)
   displ. norm   :     0.1996564 α      lambda       -0.1796368E-03
   maximum displ.:     0.0845270 α      in ANC's #4, #13, #18, ...

........................................................................
.............................. CYCLE   12 ..............................
........................................................................

 iter      E             dE          RMSdq      gap      omega  full diag
   1    -96.1918848 -0.961919E+02  0.407E-02    1.50       0.0  T
   2    -96.1918876 -0.276521E-05  0.235E-02    1.51       1.0  T
   3    -96.1918833  0.429037E-05  0.101E-02    1.51       1.3  T
   4    -96.1918883 -0.504556E-05  0.215E-03    1.51       5.9  T
   5    -96.1918886 -0.230821E-06  0.788E-04    1.51      16.1  T
   6    -96.1918886 -0.105841E-07  0.389E-04    1.51      32.7  T
     SCC iter.                  ...        0 min,  0.077 sec
     gradient                   ...        0 min,  0.097 sec
 * total energy  :   -94.8822832 Eh     change       -0.6995296E-04 Eh
   gradient norm :     0.0051478 Eh/α   predicted    -0.9339971E-04 (  33.52%)
   displ. norm   :     0.1494658 α      lambda       -0.9496137E-04
   maximum displ.:     0.0639012 α      in ANC's #8, #4, #14, ...

........................................................................
.............................. CYCLE   13 ..............................
........................................................................

 iter      E             dE          RMSdq      gap      omega  full diag
   1    -96.1898558 -0.961899E+02  0.257E-02    1.50       0.0  T
   2    -96.1898568 -0.938533E-06  0.151E-02    1.51       1.0  T
   3    -96.1898559  0.860620E-06  0.478E-03    1.51       2.7  T
   4    -96.1898570 -0.107967E-05  0.123E-03    1.51      10.3  T
   5    -96.1898571 -0.551713E-07  0.574E-04    1.51      22.1  T
   6    -96.1898571 -0.350521E-08  0.295E-04    1.51      43.0  T
     SCC iter.                  ...        0 min,  0.026 sec
     gradient                   ...        0 min,  0.096 sec
 * total energy  :   -94.8823358 Eh     change       -0.5267265E-04 Eh
   gradient norm :     0.0037523 Eh/α   predicted    -0.4854844E-04 (  -7.83%)
   displ. norm   :     0.0664523 α      lambda       -0.5148182E-04
   maximum displ.:     0.0352125 α      in ANC's #12, #11, #8, ...

........................................................................
.............................. CYCLE   14 ..............................
........................................................................

 iter      E             dE          RMSdq      gap      omega  full diag
   1    -96.1910004 -0.961910E+02  0.206E-02    1.51       0.0  T
   2    -96.1910014 -0.100753E-05  0.121E-02    1.51       1.0  T
   3    -96.1910001  0.131257E-05  0.541E-03    1.50       2.3  T
   4    -96.1910016 -0.151577E-05  0.121E-03    1.51      10.5  T
   5    -96.1910017 -0.812105E-07  0.328E-04    1.51      38.7  T
   6    -96.1910017 -0.227084E-08  0.162E-04    1.51      78.6  T
     SCC iter.                  ...        0 min,  0.026 sec
     gradient                   ...        0 min,  0.094 sec
 * total energy  :   -94.8823686 Eh     change       -0.3274161E-04 Eh
   gradient norm :     0.0043100 Eh/α   predicted    -0.2585545E-04 ( -21.03%)
   displ. norm   :     0.0994717 α      lambda       -0.5568432E-04
   maximum displ.:     0.0479596 α      in ANC's #12, #3, #11, ...

........................................................................
.............................. CYCLE   15 ..............................
........................................................................

 iter      E             dE          RMSdq      gap      omega  full diag
   1    -96.1907126 -0.961907E+02  0.212E-02    1.51       0.0  T
   2    -96.1907131 -0.543171E-06  0.124E-02    1.50       1.0  T
   3    -96.1907125  0.600324E-06  0.358E-03    1.50       3.5  T
   4    -96.1907132 -0.702202E-06  0.896E-04    1.50      14.2  T
   5    -96.1907133 -0.387473E-07  0.348E-04    1.50      36.5  T
     SCC iter.                  ...        0 min,  0.067 sec
     gradient                   ...        0 min,  0.096 sec
 * total energy  :   -94.8824035 Eh     change       -0.3493544E-04 Eh
   gradient norm :     0.0029970 Eh/α   predicted    -0.2811805E-04 ( -19.51%)
   displ. norm   :     0.1043481 α      lambda       -0.3257892E-04
   maximum displ.:     0.0400579 α      in ANC's #11, #3, #4, ...

........................................................................
.............................. CYCLE   16 ..............................
........................................................................

 iter      E             dE          RMSdq      gap      omega  full diag
   1    -96.1906042 -0.961906E+02  0.190E-02    1.51       0.0  T
   2    -96.1906044 -0.206783E-06  0.111E-02    1.51       1.1  T
   3    -96.1906042  0.268131E-06  0.236E-03    1.51       5.4  T
   4    -96.1906045 -0.319558E-06  0.630E-04    1.51      20.2  T
   5    -96.1906045 -0.166760E-07  0.277E-04    1.51      45.8  T
     SCC iter.                  ...        0 min,  0.021 sec
     gradient                   ...        0 min,  0.097 sec
 * total energy  :   -94.8824292 Eh     change       -0.2565239E-04 Eh
   gradient norm :     0.0029971 Eh/α   predicted    -0.1647057E-04 ( -35.79%)
   displ. norm   :     0.1668533 α      lambda       -0.5110302E-04
   maximum displ.:     0.0658338 α      in ANC's #3, #11, #4, ...

........................................................................
.............................. CYCLE   17 ..............................
........................................................................

 iter      E             dE          RMSdq      gap      omega  full diag
   1    -96.1903680 -0.961904E+02  0.320E-02    1.52       0.0  T
   2    -96.1903687 -0.625180E-06  0.187E-02    1.52       1.0  T
   3    -96.1903678  0.900693E-06  0.414E-03    1.51       3.1  T
   4    -96.1903689 -0.108173E-05  0.102E-03    1.51      12.5  T
   5    -96.1903689 -0.406428E-07  0.477E-04    1.51      26.6  T
   6    -96.1903689 -0.218334E-08  0.240E-04    1.51      53.0  T
     SCC iter.                  ...        0 min,  0.071 sec
     gradient                   ...        0 min,  0.097 sec
 * total energy  :   -94.8824649 Eh     change       -0.3570547E-04 Eh
   gradient norm :     0.0021975 Eh/α   predicted    -0.2626686E-04 ( -26.43%)
   displ. norm   :     0.1363073 α      lambda       -0.3273064E-04
   maximum displ.:     0.0550079 α      in ANC's #3, #11, #4, ...

........................................................................
.............................. CYCLE   18 ..............................
........................................................................

 iter      E             dE          RMSdq      gap      omega  full diag
   1    -96.1902046 -0.961902E+02  0.259E-02    1.52       0.0  T
   2    -96.1902051 -0.409427E-06  0.151E-02    1.52       1.0  T
   3    -96.1902043  0.701194E-06  0.351E-03    1.52       3.6  T
   4    -96.1902052 -0.821985E-06  0.893E-04    1.52      14.2  T
   5    -96.1902052 -0.325142E-07  0.390E-04    1.52      32.6  T
     SCC iter.                  ...        0 min,  0.022 sec
     gradient                   ...        0 min,  0.093 sec
 * total energy  :   -94.8824893 Eh     change       -0.2442217E-04 Eh
   gradient norm :     0.0022572 Eh/α   predicted    -0.1667185E-04 ( -31.73%)
   displ. norm   :     0.1481591 α      lambda       -0.3874755E-04
   maximum displ.:     0.0569939 α      in ANC's #3, #6, #11, ...

........................................................................
.............................. CYCLE   19 ..............................
........................................................................

 iter      E             dE          RMSdq      gap      omega  full diag
   1    -96.1906011 -0.961906E+02  0.308E-02    1.53       0.0  T
   2    -96.1906017 -0.630408E-06  0.180E-02    1.53       1.0  T
   3    -96.1906002  0.151081E-05  0.523E-03    1.53       2.4  T
   4    -96.1906020 -0.174701E-05  0.112E-03    1.53      11.4  T
   5    -96.1906020 -0.493391E-07  0.487E-04    1.53      26.1  T
   6    -96.1906020 -0.104788E-08  0.238E-04    1.53      53.4  T
     SCC iter.                  ...        0 min,  0.026 sec
     gradient                   ...        0 min,  0.091 sec
 * total energy  :   -94.8825172 Eh     change       -0.2785807E-04 Eh
   gradient norm :     0.0026975 Eh/α   predicted    -0.1980146E-04 ( -28.92%)
   displ. norm   :     0.1871927 α      lambda       -0.3968445E-04
   maximum displ.:     0.0711627 α      in ANC's #3, #4, #6, ...

........................................................................
.............................. CYCLE   20 ..............................
........................................................................

 iter      E             dE          RMSdq      gap      omega  full diag
   1    -96.1901298 -0.961901E+02  0.336E-02    1.53       0.0  T
   2    -96.1901305 -0.693779E-06  0.197E-02    1.53       1.0  T
   3    -96.1901281  0.235901E-05  0.667E-03    1.53       1.9  T
   4    -96.1901308 -0.271895E-05  0.113E-03    1.53      11.2  T
   5    -96.1901309 -0.406261E-07  0.563E-04    1.53      22.5  T
   6    -96.1901309 -0.480196E-08  0.259E-04    1.53      49.1  T
     SCC iter.                  ...        0 min,  0.072 sec
     gradient                   ...        0 min,  0.092 sec
 * total energy  :   -94.8825415 Eh     change       -0.2429941E-04 Eh
   gradient norm :     0.0037865 Eh/α   predicted    -0.2053817E-04 ( -15.48%)
   displ. norm   :     0.1512265 α      lambda       -0.5361684E-04
   maximum displ.:     0.0689485 α      in ANC's #13, #6, #8, ...
 * RMSD in coord.:     0.3850582 α      energy gain  -0.2611829E-01 Eh

generating ANC from exact Hessian ...
Using Lindh-Hessian (1995)
 Shifting diagonal of input Hessian by    9.8345932763015207E-003
 Lowest  eigenvalues of input Hessian
    0.000000    0.000000    0.000000    0.000000    0.000000    0.000000
    0.010000    0.010084    0.010297    0.010491    0.010752    0.011124
    0.011294    0.011716    0.011963    0.012425    0.013179    0.013675
 Highest eigenvalues
    2.108913    2.168775    2.221846    2.302438    2.351088    2.391061


........................................................................
.............................. CYCLE   21 ..............................
........................................................................

 iter      E             dE          RMSdq      gap      omega  full diag
   1    -96.1917793 -0.961918E+02  0.365E-02    1.53       0.0  T
   2    -96.1917803 -0.105191E-05  0.213E-02    1.53       1.0  T
   3    -96.1917770  0.332096E-05  0.803E-03    1.53       1.6  T
   4    -96.1917809 -0.383406E-05  0.138E-03    1.53       9.2  T
   5    -96.1917809 -0.746474E-07  0.618E-04    1.53      20.6  T
   6    -96.1917809 -0.192443E-08  0.316E-04    1.53      40.2  T
     SCC iter.                  ...        0 min,  0.066 sec
     gradient                   ...        0 min,  0.097 sec
 * total energy  :   -94.8825667 Eh     change       -0.2526295E-04 Eh
   gradient norm :     0.0032202 Eh/α   predicted     0.0000000E+00 (-100.00%)
   displ. norm   :     0.0278053 α      lambda       -0.8823532E-05
   maximum displ.:     0.0115138 α      in ANC's #15, #9, #12, ...

........................................................................
.............................. CYCLE   22 ..............................
........................................................................

 iter      E             dE          RMSdq      gap      omega  full diag
   1    -96.1916945 -0.961917E+02  0.762E-03    1.53       0.0  T
   2    -96.1916946 -0.126572E-06  0.447E-03    1.53       2.8  T
   3    -96.1916945  0.786187E-07  0.139E-03    1.53       9.1  T
   4    -96.1916946 -0.943528E-07  0.414E-04    1.53      30.7  T
   5    -96.1916946 -0.883989E-08  0.157E-04    1.53      80.7  T
     SCC iter.                  ...        0 min,  0.022 sec
     gradient                   ...        0 min,  0.095 sec
 * total energy  :   -94.8825844 Eh     change       -0.1770902E-04 Eh
   gradient norm :     0.0016581 Eh/α   predicted    -0.1063875E-04 ( -39.92%)
   displ. norm   :     0.1328534 α      lambda       -0.4152606E-04
   maximum displ.:     0.0524320 α      in ANC's #15, #13, #9, ...

........................................................................
.............................. CYCLE   23 ..............................
........................................................................

 iter      E             dE          RMSdq      gap      omega  full diag
   1    -96.1911214 -0.961911E+02  0.339E-02    1.53       0.0  T
   2    -96.1911226 -0.118075E-05  0.198E-02    1.52       1.0  T
   3    -96.1911218  0.717785E-06  0.423E-03    1.52       3.0  T
   4    -96.1911228 -0.910737E-06  0.127E-03    1.52      10.0  T
   5    -96.1911228 -0.707023E-07  0.549E-04    1.52      23.2  T
   6    -96.1911228 -0.541520E-08  0.255E-04    1.52      49.8  T
     SCC iter.                  ...        0 min,  0.026 sec
     gradient                   ...        0 min,  0.085 sec
 * total energy  :   -94.8826100 Eh     change       -0.2555033E-04 Eh
   gradient norm :     0.0033676 Eh/α   predicted    -0.2092613E-04 ( -18.10%)
   displ. norm   :     0.0170288 α      lambda       -0.1033402E-04
   maximum displ.:     0.0082795 α      in ANC's #13, #6, #12, ...

........................................................................
.............................. CYCLE   24 ..............................
........................................................................

 iter      E             dE          RMSdq      gap      omega  full diag
   1    -96.1912655 -0.961913E+02  0.480E-03    1.52       0.0  T
   2    -96.1912656 -0.456111E-07  0.281E-03    1.52       4.5  T
   3    -96.1912655  0.295017E-07  0.783E-04    1.52      16.2  T
   4    -96.1912656 -0.344963E-07  0.252E-04    1.52      50.5  T
     SCC iter.                  ...        0 min,  0.018 sec
     gradient                   ...        0 min,  0.091 sec
 * total energy  :   -94.8826190 Eh     change       -0.9062258E-05 Eh
   gradient norm :     0.0023345 Eh/α   predicted    -0.5168626E-05 ( -42.97%)
   displ. norm   :     0.1025853 α      lambda       -0.3419791E-04
   maximum displ.:     0.0531764 α      in ANC's #13, #6, #9, ...

........................................................................
.............................. CYCLE   25 ..............................
........................................................................

 iter      E             dE          RMSdq      gap      omega  full diag
   1    -96.1914205 -0.961914E+02  0.254E-02    1.52       0.0  T
   2    -96.1914210 -0.486722E-06  0.149E-02    1.53       1.0  T
   3    -96.1914208  0.198902E-06  0.214E-03    1.53       5.9  T
   4    -96.1914211 -0.272914E-06  0.759E-04    1.53      16.7  T
   5    -96.1914211 -0.258870E-07  0.336E-04    1.53      37.8  T
     SCC iter.                  ...        0 min,  0.063 sec
     gradient                   ...        0 min,  0.090 sec
 * total energy  :   -94.8826405 Eh     change       -0.2149761E-04 Eh
   gradient norm :     0.0012238 Eh/α   predicted    -0.1728936E-04 ( -19.58%)
   displ. norm   :     0.1243160 α      lambda       -0.1149788E-04
   maximum displ.:     0.0669607 α      in ANC's #13, #6, #2, ...

........................................................................
.............................. CYCLE   26 ..............................
........................................................................

 iter      E             dE          RMSdq      gap      omega  full diag
   1    -96.1911539 -0.961912E+02  0.285E-02    1.53       0.0  T
   2    -96.1911541 -0.251225E-06  0.167E-02    1.53       1.0  T
   3    -96.1911539  0.186865E-06  0.208E-03    1.53       6.1  T
   4    -96.1911542 -0.268036E-06  0.736E-04    1.53      17.2  T
   5    -96.1911542 -0.142899E-07  0.353E-04    1.53      36.0  T
     SCC iter.                  ...        0 min,  0.023 sec
     gradient                   ...        0 min,  0.085 sec
 * total energy  :   -94.8826524 Eh     change       -0.1182707E-04 Eh
   gradient norm :     0.0021351 Eh/α   predicted    -0.5789409E-05 ( -51.05%)
   displ. norm   :     0.0846863 α      lambda       -0.1182768E-04
   maximum displ.:     0.0487035 α      in ANC's #13, #6, #2, ...

........................................................................
.............................. CYCLE   27 ..............................
........................................................................

 iter      E             dE          RMSdq      gap      omega  full diag
   1    -96.1911067 -0.961911E+02  0.183E-02    1.53       0.0  T
   2    -96.1911069 -0.153548E-06  0.107E-02    1.53       1.2  T
   3    -96.1911066  0.323051E-06  0.237E-03    1.53       5.4  T
   4    -96.1911069 -0.374381E-06  0.551E-04    1.53      23.1  T
   5    -96.1911069 -0.109927E-07  0.238E-04    1.53      53.3  T
     SCC iter.                  ...        0 min,  0.062 sec
     gradient                   ...        0 min,  0.090 sec
 * total energy  :   -94.8826620 Eh     change       -0.9670624E-05 Eh
   gradient norm :     0.0016340 Eh/α   predicted    -0.5956485E-05 ( -38.41%)
   displ. norm   :     0.2076469 α      lambda       -0.1807806E-04
   maximum displ.:     0.1212599 α      in ANC's #13, #6, #2, ...

........................................................................
.............................. CYCLE   28 ..............................
........................................................................

 iter      E             dE          RMSdq      gap      omega  full diag
   1    -96.1908688 -0.961909E+02  0.431E-02    1.53       0.0  T
   2    -96.1908699 -0.103655E-05  0.254E-02    1.53       1.0  T
   3    -96.1908670  0.288961E-05  0.706E-03    1.53       1.8  T
   4    -96.1908703 -0.329614E-05  0.134E-03    1.53       9.5  T
   5    -96.1908704 -0.626796E-07  0.582E-04    1.53      21.8  T
   6    -96.1908704 -0.243006E-08  0.251E-04    1.53      50.6  T
     SCC iter.                  ...        0 min,  0.026 sec
     gradient                   ...        0 min,  0.089 sec
 * total energy  :   -94.8826748 Eh     change       -0.1278460E-04 Eh
   gradient norm :     0.0019311 Eh/α   predicted    -0.9215056E-05 ( -27.92%)
   displ. norm   :     0.0368764 α      lambda       -0.9770538E-05
   maximum displ.:     0.0198829 α      in ANC's #12, #15, #7, ...

........................................................................
.............................. CYCLE   29 ..............................
........................................................................

 iter      E             dE          RMSdq      gap      omega  full diag
   1    -96.1918092 -0.961918E+02  0.958E-03    1.53       0.0  T
   2    -96.1918093 -0.133671E-06  0.550E-03    1.53       2.3  T
   3    -96.1918092  0.112271E-06  0.165E-03    1.53       7.7  T
   4    -96.1918093 -0.130609E-06  0.514E-04    1.53      24.7  T
   5    -96.1918094 -0.129713E-07  0.175E-04    1.53      72.5  T
     SCC iter.                  ...        0 min,  0.064 sec
     gradient                   ...        0 min,  0.090 sec
 * total energy  :   -94.8826834 Eh     change       -0.8546393E-05 Eh
   gradient norm :     0.0012893 Eh/α   predicted    -0.4888661E-05 ( -42.80%)
   displ. norm   :     0.0929443 α      lambda       -0.8074865E-05
   maximum displ.:     0.0453020 α      in ANC's #13, #6, #2, ...

........................................................................
.............................. CYCLE   30 ..............................
........................................................................

 iter      E             dE          RMSdq      gap      omega  full diag
   1    -96.1917562 -0.961918E+02  0.198E-02    1.53       0.0  T
   2    -96.1917564 -0.138208E-06  0.116E-02    1.53       1.1  T
   3    -96.1917556  0.767004E-06  0.372E-03    1.53       3.4  T
   4    -96.1917565 -0.881136E-06  0.551E-04    1.53      23.1  T
   5    -96.1917565 -0.658731E-08  0.304E-04    1.53      41.8  T
     SCC iter.                  ...        0 min,  0.022 sec
     gradient                   ...        0 min,  0.088 sec
 * total energy  :   -94.8826922 Eh     change       -0.8846467E-05 Eh
   gradient norm :     0.0008299 Eh/α   predicted    -0.4053704E-05 ( -54.18%)
   displ. norm   :     0.1319958 α      lambda       -0.7916231E-05
   maximum displ.:     0.0592865 α      in ANC's #6, #13, #2, ...

........................................................................
.............................. CYCLE   31 ..............................
........................................................................

 iter      E             dE          RMSdq      gap      omega  full diag
   1    -96.1916264 -0.961916E+02  0.272E-02    1.53       0.0  T
   2    -96.1916267 -0.328491E-06  0.160E-02    1.53       1.0  T
   3    -96.1916255  0.121606E-05  0.465E-03    1.53       2.7  T
   4    -96.1916269 -0.140257E-05  0.793E-04    1.53      16.0  T
   5    -96.1916269 -0.152312E-07  0.394E-04    1.53      32.2  T
   6    -96.1916269 -0.135307E-08  0.175E-04    1.53      72.5  T
     SCC iter.                  ...        0 min,  0.026 sec
     gradient                   ...        0 min,  0.083 sec
 * total energy  :   -94.8826995 Eh     change       -0.7266334E-05 Eh
   gradient norm :     0.0010084 Eh/α   predicted    -0.3989334E-05 ( -45.10%)
   displ. norm   :     0.0695556 α      lambda       -0.4414949E-05
   maximum displ.:     0.0311445 α      in ANC's #2, #6, #12, ...

........................................................................
.............................. CYCLE   32 ..............................
........................................................................

 iter      E             dE          RMSdq      gap      omega  full diag
   1    -96.1917092 -0.961917E+02  0.149E-02    1.53       0.0  T
   2    -96.1917093 -0.715825E-07  0.880E-03    1.53       1.4  T
   3    -96.1917088  0.545319E-06  0.298E-03    1.53       4.3  T
   4    -96.1917094 -0.619688E-06  0.369E-04    1.53      34.4  T
   5    -96.1917094 -0.136929E-08  0.199E-04    1.53      63.8  T
     SCC iter.                  ...        0 min,  0.022 sec
     gradient                   ...        0 min,  0.090 sec
 * total energy  :   -94.8827043 Eh     change       -0.4795174E-05 Eh
   gradient norm :     0.0009267 Eh/α   predicted    -0.2214855E-05 ( -53.81%)
   displ. norm   :     0.0699710 α      lambda       -0.4791752E-05
   maximum displ.:     0.0329520 α      in ANC's #2, #6, #14, ...

   *** GEOMETRY OPTIMIZATION CONVERGED AFTER 32 ITERATIONS ***

------------------------------------------------------------------------
 total energy gain   :        -0.0262811 Eh      -16.4916 kcal/mol
 total RMSD          :         0.4199019 a0        0.2222 Å
 total power (kW/mol):        -2.1562822 (step)  -13.0233 (real)
------------------------------------------------------------------------

 ANCopt (total)                0 d,  0 h,  0 min,  5.298 sec
 optimizer setup                ...        0 min,  0.000 sec (  0.002%)
 model hessian                  ...        0 min,  0.055 sec (  1.047%)
 ANC generation                 ...        0 min,  0.007 sec (  0.126%)
 coordinate transformation      ...        0 min,  0.001 sec (  0.017%)
 single point calculation       ...        0 min,  5.221 sec ( 98.532%)
 optimization log               ...        0 min,  0.008 sec (  0.144%)
 hessian update                 ...        0 min,  0.001 sec (  0.017%)
 rational function              ...        0 min,  0.004 sec (  0.068%)

================
 final structure:
================
62
 xtb: 6.7.1 (edcfbbe)
C           -6.93847940460918        0.16291464931434       -2.23761243803389
C           -6.07078962529220        1.29414627364467       -1.76689329829246
C           -4.75447625184337        0.89028574999940       -1.18010246892794
C           -3.59082195503146        1.48326629367320       -1.57456691899366
C           -3.52169808547352        2.53811094775075       -2.63226094955470
C           -2.36941178789412        1.04829211630214       -0.97325868099202
C           -1.09832172004648        1.55436204946615       -1.27198369338496
N            0.00470539753846        1.14000074598915       -0.69770965874441
C           -0.11895245023278        0.17237724682157        0.22368158055406
N            0.97049277323139       -0.31347769275230        0.85125728182386
C            2.31137811954070        0.02458196359718        0.74463498123214
N            3.10244173004747       -0.71861488737481        1.51482958944760
C            4.39744505177488       -0.49516461712194        1.51085101216803
C            5.02885576991772        0.49075944211539        0.73492715219339
C            4.17535772564264        1.26681634025051       -0.06482295526513
C            2.81475827026838        1.03880118359592       -0.06584478801871
N            6.38759264313565        0.70974933462910        0.83945561825929
C            7.30497220093797       -0.41193838712355        0.91000944558452
C            7.78347598077146       -0.79060973264892       -0.50523505100724
N            8.38852908979658        0.32473869762380       -1.20941907706151
C            7.49023924746370        1.46605783539797       -1.23184400451205
C            7.01393157732749        1.83953999227356        0.18212039314924
N           -1.27146943357409       -0.38440009560636        0.59845203287281
C           -2.39054589885354        0.03908010622257        0.02222853200328
N           -3.56876234213598       -0.51885535600934        0.40987645582807
C           -3.54277384694148       -1.53908518152522        1.45819999178377
C           -4.20666772224767       -2.87187241202300        1.05093803659683
C           -5.30059810555169       -3.11959528406400        2.09239838422704
C           -4.79687181441741       -2.38644500564386        3.33183362761226
C           -4.24787260831733       -1.08873726987487        2.74851574636522
C           -4.79078063760899       -0.13815645119331       -0.13919720044349
O           -5.82187018540575       -0.64628752544720        0.26520298353044
O           -6.39826620350669        2.45434044184503       -1.86747412823001
H           -7.27498708710728       -0.39297367309650       -1.36356454894244
H           -6.36637556555279       -0.51666532843941       -2.86637998447438
H           -7.79534874400130        0.55421478919896       -2.77960569834101
H           -3.10170317002784        3.45076731369026       -2.21182809514718
H           -4.50439576377496        2.77124873777639       -3.02615414724175
H           -2.87719851513391        2.21015744366606       -3.44726938081496
H           -0.96467278202646        2.33449012756728       -2.00867531285375
H            0.78831295328397       -1.05341640643560        1.51815211282754
H            4.96041114283073       -1.12932804134438        2.18183132034336
H            4.56495054453260        2.04645261130331       -0.70052426104786
H            2.14769520611247        1.61953244295310       -0.67841636753393
H            8.16394857490701       -0.11198290234124        1.52269468531807
H            6.82873391494441       -1.26940253210813        1.37893860869317
H            8.50633932342888       -1.60691779203995       -0.45382625322814
H            6.92184278909350       -1.12331302900684       -1.09321158931302
H            9.25662318723936        0.58577343082406       -0.74854326908513
H            6.63023816405857        1.19270233200493       -1.85049846866623
H            8.00336228743812        2.30905203793385       -1.69838729854092
H            6.33259482172787        2.68897310051550        0.16660567447986
H            7.88534072555332        2.12033416173554        0.78810928370281
H           -2.48250946543276       -1.70037635166541        1.65586037338308
H           -3.46293562784879       -3.66925878062476        1.07706672605080
H           -4.61567796717436       -2.82522692544269        0.04389564278405
H           -6.22905743172336       -2.66043114755355        1.75588880036816
H           -5.47164583910619       -4.18067033789275        2.26749059192986
H           -5.58265612850758       -2.21119027237411        4.06427274682996
H           -3.99529767176443       -2.95432416575007        3.80822280470411
H           -5.07519935431907       -0.42416396751598        2.50410816737204
H           -3.56527802005894       -0.56903838764204        3.41995960267421

 Bond Distances (Angstroems)
 ---------------------------
C1-C2=1.5014         C1-H34=1.0891        C1-H35=1.0883        C1-H36=1.0868        C2-C1=1.5014         C2-C3=1.4967         
C2-O33=1.2097        C3-C2=1.4967         C3-C4=1.3643         C3-C31=1.4637        C4-C3=1.3643         C4-C5=1.4954         
C4-C6=1.4292         C5-C4=1.4954         C5-H37=1.0891        C5-H38=1.0841        C5-H39=1.0896        C6-C4=1.4292         
C6-C7=1.4004         C6-C24=1.4177        C7-C6=1.4004         C7-N8=1.3108         C7-H40=1.0813        N8-C7=1.3108         
N8-C9=1.3418         C9-N8=1.3418         C9-N10=1.3479        C9-N23=1.3337        N10-C9=1.3479        N10-C11=1.3869       
N10-H41=1.0126       C11-N10=1.3869       C11-N12=1.3309       C11-C16=1.3924       N12-C11=1.3309       N12-C13=1.3141       
C13-N12=1.3141       C13-C14=1.4046       C13-H42=1.0813       C14-C13=1.4046       C14-C15=1.4037       C14-N17=1.3802       
C15-C14=1.4037       C15-C16=1.3796       C15-H43=1.0788       C16-C11=1.3924       C16-C15=1.3796       C16-H44=1.0759       
N17-C14=1.3802       N17-C18=1.4508       N17-C22=1.4494       C18-N17=1.4508       C18-C19=1.5412       C18-H45=1.0969       
C18-H46=1.0872       C19-C18=1.5412       C19-N20=1.4512       C19-H47=1.0916       C19-H48=1.0949       N20-C19=1.4512       
N20-C21=1.4526       N20-H49=1.0169       C21-N20=1.4526       C21-C22=1.5381       C21-H50=1.0941       C21-H51=1.0916       
C22-N17=1.4494       C22-C21=1.5381       C22-H52=1.0890       C22-H53=1.0979       N23-C9=1.3337        N23-C24=1.3280       
C24-C6=1.4177        C24-N23=1.3280       C24-N25=1.3601       N25-C24=1.3601       N25-C26=1.4631       N25-C31=1.3927       
C26-N25=1.4631       C26-C27=1.5437       C26-C30=1.5378       C26-H54=1.0905       C27-C26=1.5437       C27-C28=1.5306       
C27-H55=1.0907       C27-H56=1.0879       C28-C27=1.5306       C28-C29=1.5256       C28-H57=1.0891       C28-H58=1.0889       
C29-C28=1.5256       C29-C30=1.5250       C29-H59=1.0884       C29-H60=1.0918       C30-C26=1.5378       C30-C29=1.5250       
C30-H61=1.0890       C30-H62=1.0894       C31-C3=1.4637        C31-N25=1.3927       C31-O32=1.2186       O32-C31=1.2186       
O33-C2=1.2097        H34-C1=1.0891        H35-C1=1.0883        H36-C1=1.0868        H37-C5=1.0891        H38-C5=1.0841        
H39-C5=1.0896        H40-C7=1.0813        H41-N10=1.0126       H42-C13=1.0813       H43-C15=1.0788       H44-C16=1.0759       
H45-C18=1.0969       H46-C18=1.0872       H47-C19=1.0916       H48-C19=1.0949       H49-N20=1.0169       H50-C21=1.0941       
H51-C21=1.0916       H52-C22=1.0890       H53-C22=1.0979       H54-C26=1.0905       H55-C27=1.0907       H56-C27=1.0879       
H57-C28=1.0891       H58-C28=1.0889       H59-C29=1.0884       H60-C29=1.0918       H61-C30=1.0890       H62-C30=1.0894       
 C  H  Rav=1.0886 sigma=0.0049  Rmin=1.0759  Rmax=1.0979    27
 C  C  Rav=1.4679 sigma=0.0629  Rmin=1.3643  Rmax=1.5437    19
 N  H  Rav=1.0148 sigma=0.0021  Rmin=1.0126  Rmax=1.0169     2
 N  C  Rav=1.3809 sigma=0.0539  Rmin=1.3108  Rmax=1.4631    16
 O  C  Rav=1.2141 sigma=0.0044  Rmin=1.2097  Rmax=1.2186     2

 selected bond angles (degree)
 --------------------
H34-C1-C2=108.15               H35-C1-C2=110.35               H35-C1-H34=107.90              H36-C1-C2=109.92               
H36-C1-H34=109.90              H36-C1-H35=110.56              C3-C2-C1=115.33                O33-C2-C1=122.69               
O33-C2-C3=121.97               C4-C3-C2=121.30                C31-C3-C2=116.52               C31-C3-C4=122.15               
C5-C4-C3=123.40                C6-C4-C3=118.36                C6-C4-C5=118.21                H37-C5-C4=109.63               
H38-C5-C4=111.52               H38-C5-H37=108.04              H39-C5-C4=110.13               H39-C5-H37=108.23              
H39-C5-H38=109.22              C7-C6-C4=125.17                C24-C6-C4=119.96               C24-C6-C7=114.87               
N8-C7-C6=123.79                H40-C7-C6=121.22               H40-C7-N8=115.00               C9-N8-C7=116.82                
N10-C9-N8=120.34               N23-C9-N8=125.00               N23-C9-N10=114.65              C11-N10-C9=131.13              
H41-N10-C9=115.13              H41-N10-C11=113.74             

 selected dihedral angles (degree)
 ---------------------------------
C3-C2-C1-H34= 68.56           C3-C2-C1-H35=310.75           C3-C2-C1-H36=188.55           O33-C2-C1-H34=247.63          
O33-C2-C1-H35=129.82          O33-C2-C1-H36=  7.62          C4-C3-C2-C1=131.08            C4-C3-C2-O33=312.00           
C31-C3-C2-C1=309.27           C31-C3-C2-O33=130.19          C5-C4-C3-C2=358.22            C5-C4-C3-C31=180.13           
C6-C4-C3-C2=180.04            C6-C4-C3-C31=  1.95           H37-C5-C4-C3=120.29           H37-C5-C4-C6=298.48           
H38-C5-C4-C3=  0.69           H38-C5-C4-C6=178.88           H39-C5-C4-C3=239.27           H39-C5-C4-C6= 57.46           
C7-C6-C4-C3=179.86            C7-C6-C4-C5=  1.58            C24-C6-C4-C3=359.01           C24-C6-C4-C5=180.73           
N8-C7-C6-C4=179.61            N8-C7-C6-C24=  0.42           H40-C7-C6-C4=359.81           H40-C7-C6-C24=180.62          
C9-N8-C7-C6=  0.15            C9-N8-C7-H40=179.96           N10-C9-N8-C7=179.51           N23-C9-N8-C7=359.53           
C11-N10-C9-N8=  1.15          C11-N10-C9-N23=181.13         H41-N10-C9-N8=181.12          H41-N10-C9-N23=  1.10         
           -------------------------------------------------
          |                Final Singlepoint                |
           -------------------------------------------------

          ...................................................
          :                      SETUP                      :
          :.................................................:
          :  # basis functions                 161          :
          :  # atomic orbitals                 161          :
          :  # shells                           95          :
          :  # electrons                       172          :
          :  max. iterations                   250          :
          :  Hamiltonian                  GFN2-xTB          :
          :  restarted?                      false          :
          :  GBSA solvation                  false          :
          :  PC potential                    false          :
          :  electronic temp.          300.0000000     K    :
          :  accuracy                    1.0000000          :
          :  -> integral cutoff          0.2500000E+02      :
          :  -> integral neglect         0.1000000E-07      :
          :  -> SCF convergence          0.1000000E-05 Eh   :
          :  -> wf. convergence          0.1000000E-03 e    :
          :  Broyden damping             0.4000000          :
          :  net charge                          0          :
          :  unpaired electrons                  0          :
          ...................................................

 iter      E             dE          RMSdq      gap      omega  full diag
   1    -96.1917094 -0.961917E+02  0.773E-05    1.53       0.0  T
   2    -96.1917094 -0.914042E-10  0.512E-05    1.53     248.2  T
   3    -96.1917094 -0.658673E-10  0.323E-05    1.53     392.6  T

   *** convergence criteria satisfied after 3 iterations ***

         #    Occupation            Energy/Eh            Energy/eV
      -------------------------------------------------------------
         1        2.0000           -0.7023618             -19.1122
       ...           ...                  ...                  ...
        80        2.0000           -0.3987535             -10.8506
        81        2.0000           -0.3941585             -10.7256
        82        2.0000           -0.3845927             -10.4653
        83        2.0000           -0.3793703             -10.3232
        84        2.0000           -0.3770682             -10.2605
        85        2.0000           -0.3727168             -10.1421
        86        2.0000           -0.3455798              -9.4037 (HOMO)
        87                         -0.2893073              -7.8725 (LUMO)
        88                         -0.2600629              -7.0767
        89                         -0.2433653              -6.6223
        90                         -0.2366860              -6.4406
        91                         -0.2267151              -6.1692
       ...                                ...                  ...
       161                          0.6948531              18.9079
      -------------------------------------------------------------
                  HL-Gap            0.0562725 Eh            1.5313 eV
             Fermi-level           -0.3174435 Eh           -8.6381 eV

 SCC (total)                   0 d,  0 h,  0 min,  0.116 sec
 SCC setup                      ...        0 min,  0.001 sec (  0.510%)
 Dispersion                     ...        0 min,  0.001 sec (  0.573%)
 classical contributions        ...        0 min,  0.000 sec (  0.258%)
 integral evaluation            ...        0 min,  0.013 sec ( 10.893%)
 iterations                     ...        0 min,  0.013 sec ( 11.320%)
 molecular gradient             ...        0 min,  0.089 sec ( 76.146%)
 printout                       ...        0 min,  0.000 sec (  0.293%)

         :::::::::::::::::::::::::::::::::::::::::::::::::::::
         ::                     SUMMARY                     ::
         :::::::::::::::::::::::::::::::::::::::::::::::::::::
         :: total energy             -94.882704274665 Eh    ::
         :: gradient norm              0.000927839528 Eh/a0 ::
         :: HOMO-LUMO gap              1.531251681720 eV    ::
         ::.................................................::
         :: SCC energy               -96.191958574517 Eh    ::
         :: -> isotropic ES            0.109560831190 Eh    ::
         :: -> anisotropic ES          0.006246069173 Eh    ::
         :: -> anisotropic XC          0.052908411456 Eh    ::
         :: -> dispersion             -0.071045562764 Eh    ::
         :: repulsion energy           1.309254299852 Eh    ::
         :: add. restraining           0.000000000000 Eh    ::
         :: total charge              -0.000000000000 e     ::
         :::::::::::::::::::::::::::::::::::::::::::::::::::::

           -------------------------------------------------
          |                Property Printout                |
           -------------------------------------------------

    * Orbital Energies and Occupations

         #    Occupation            Energy/Eh            Energy/eV
      -------------------------------------------------------------
         1        2.0000           -0.7023618             -19.1122
       ...           ...                  ...                  ...
        74        2.0000           -0.4334350             -11.7944
        75        2.0000           -0.4307036             -11.7200
        76        2.0000           -0.4223892             -11.4938
        77        2.0000           -0.4190742             -11.4036
        78        2.0000           -0.4158824             -11.3167
        79        2.0000           -0.4089645             -11.1285
        80        2.0000           -0.3987535             -10.8506
        81        2.0000           -0.3941585             -10.7256
        82        2.0000           -0.3845927             -10.4653
        83        2.0000           -0.3793703             -10.3232
        84        2.0000           -0.3770682             -10.2605
        85        2.0000           -0.3727168             -10.1421
        86        2.0000           -0.3455798              -9.4037 (HOMO)
        87                         -0.2893073              -7.8725 (LUMO)
        88                         -0.2600629              -7.0767
        89                         -0.2433653              -6.6223
        90                         -0.2366860              -6.4406
        91                         -0.2267151              -6.1692
        92                         -0.2034740              -5.5368
        93                         -0.1574220              -4.2837
        94                         -0.1015871              -2.7643
        95                         -0.0886763              -2.4130
        96                         -0.0184344              -0.5016
        97                         -0.0058420              -0.1590
       ...                                ...                  ...
       161                          0.6948531              18.9079
      -------------------------------------------------------------
                  HL-Gap            0.0562725 Eh            1.5313 eV
             Fermi-level           -0.3174435 Eh           -8.6381 eV

     #   Z          covCN         q      C6AA      α(0)
     1   6 C        3.754    -0.140    23.260     6.877
     2   6 C        2.817     0.251    22.786     7.821
     3   6 C        2.964    -0.070    29.750     8.947
     4   6 C        2.957     0.033    27.256     8.563
     5   6 C        3.758    -0.115    22.746     6.800
     6   6 C        2.979    -0.051    29.270     8.874
     7   6 C        2.925     0.077    26.291     8.409
     8   7 N        1.838    -0.280    28.105     7.856
     9   6 C        2.882     0.241    22.987     7.860
    10   7 N        2.726    -0.133    23.887     7.259
    11   6 C        2.891     0.140    24.956     8.190
    12   7 N        1.852    -0.255    27.498     7.772
    13   6 C        2.909     0.034    27.233     8.557
    14   6 C        2.903     0.049    26.908     8.505
    15   6 C        2.933    -0.043    29.063     8.841
    16   6 C        2.910    -0.061    29.515     8.908
    17   7 N        2.736    -0.118    23.561     7.209
    18   6 C        3.759    -0.005    20.723     6.490
    19   6 C        3.751     0.006    20.536     6.463
    20   7 N        2.678    -0.257    26.664     7.669
    21   6 C        3.751     0.006    20.543     6.464
    22   6 C        3.759    -0.004    20.692     6.485
    23   7 N        1.861    -0.323    29.238     8.015
    24   6 C        2.920     0.164    24.462     8.111
    25   7 N        2.749    -0.072    22.634     7.066
    26   6 C        3.820     0.036    19.957     6.357
    27   6 C        3.820    -0.057    21.581     6.611
    28   6 C        3.829    -0.061    21.643     6.619
    29   6 C        3.829    -0.056    21.562     6.607
    30   6 C        3.828    -0.061    21.651     6.621
    31   6 C        2.773     0.267    22.495     7.768
    32   8 O        0.859    -0.433    22.344     6.338
    33   8 O        0.857    -0.367    21.029     6.148
    34   1 H        0.925     0.104     1.746     2.067
    35   1 H        0.925     0.056     2.248     2.345
    36   1 H        0.925     0.064     2.150     2.293
    37   1 H        0.925     0.063     2.160     2.299
    38   1 H        0.925     0.072     2.069     2.249
    39   1 H        0.925     0.053     2.288     2.365
    40   1 H        0.925     0.050     2.314     2.379
    41   1 H        0.860     0.210     1.058     1.611
    42   1 H        0.925     0.035     2.520     2.482
    43   1 H        0.926     0.034     2.535     2.490
    44   1 H        0.926     0.069     2.101     2.267
    45   1 H        0.924     0.036     2.508     2.477
    46   1 H        0.925     0.046     2.374     2.409
    47   1 H        0.924     0.038     2.477     2.461
    48   1 H        0.924     0.041     2.442     2.444
    49   1 H        0.860     0.136     1.497     1.917
    50   1 H        0.924     0.042     2.417     2.431
    51   1 H        0.924     0.037     2.494     2.470
    52   1 H        0.925     0.044     2.397     2.421
    53   1 H        0.923     0.036     2.509     2.477
    54   1 H        0.924     0.069     2.093     2.263
    55   1 H        0.924     0.032     2.562     2.503
    56   1 H        0.925     0.045     2.384     2.415
    57   1 H        0.925     0.061     2.187     2.312
    58   1 H        0.925     0.031     2.574     2.509
    59   1 H        0.925     0.037     2.493     2.469
    60   1 H        0.924     0.032     2.561     2.503
    61   1 H        0.925     0.059     2.216     2.328
    62   1 H        0.925     0.030     2.585     2.514

 Mol. C6AA /au·bohr⁶  :      42294.847143
 Mol. C8AA /au·bohr⁸  :     981924.367421
 Mol. α(0) /au        :        315.250811


Wiberg/Mayer (AO) data.
largest (>0.10) Wiberg bond orders for each atom

 ---------------------------------------------------------------------------
     #   Z sym  total        # sym  WBO       # sym  WBO       # sym  WBO
 ---------------------------------------------------------------------------
     1   6 C    3.990 --     2 C    1.012    36 H    0.982    35 H    0.966
                            34 H    0.936
     2   6 C    3.919 --    33 O    1.830     1 C    1.012     3 C    0.999
     3   6 C    3.961 --     4 C    1.583    31 C    1.075     2 C    0.999
     4   6 C    3.977 --     3 C    1.583     6 C    1.174     5 C    1.034
     5   6 C    3.992 --     4 C    1.034    38 H    0.977    39 H    0.966
                            37 H    0.962
     6   6 C    3.974 --     7 C    1.330    24 C    1.220     4 C    1.174
     7   6 C    3.955 --     8 N    1.494     6 C    1.330    40 H    0.958
     8   7 N    3.036 --     7 C    1.494     9 C    1.265
     9   6 C    3.955 --    23 N    1.312     8 N    1.265    10 N    1.225
    10   7 N    3.503 --     9 C    1.225    11 C    1.086    41 H    0.921
    11   6 C    3.951 --    12 N    1.350    16 C    1.337    10 N    1.086
    12   7 N    3.049 --    13 C    1.468    11 C    1.350
    13   6 C    3.979 --    12 N    1.468    14 C    1.317    42 H    0.957
                            16 C    0.102
    14   6 C    3.962 --    15 C    1.328    13 C    1.317    17 N    1.142
    15   6 C    3.990 --    16 C    1.480    14 C    1.328    43 H    0.964
    16   6 C    3.982 --    15 C    1.480    11 C    1.337    44 H    0.958
                            13 C    0.102
    17   7 N    3.352 --    14 C    1.142    22 C    0.998    18 C    0.992
    18   6 C    3.979 --    17 N    0.992    19 C    0.979    45 H    0.970
                            46 H    0.967
    19   6 C    3.985 --    20 N    1.020    18 C    0.979    47 H    0.973
                            48 H    0.972
    20   7 N    3.076 --    19 C    1.020    21 C    1.018    49 H    0.957
    21   6 C    3.985 --    20 N    1.018    22 C    0.982    51 H    0.974
                            50 H    0.971
    22   6 C    3.981 --    17 N    0.998    21 C    0.982    53 H    0.968
                            52 H    0.968
    23   7 N    3.026 --    24 C    1.362     9 C    1.312
    24   6 C    3.965 --    23 N    1.362     6 C    1.220    25 N    1.198
    25   7 N    3.596 --    24 C    1.198    31 C    1.107    26 C    0.953
                            32 O    0.137
    26   6 C    3.948 --    30 C    0.982    27 C    0.981    54 H    0.957
                            25 N    0.953
    27   6 C    3.994 --    28 C    1.006    55 H    0.981    26 C    0.981
                            56 H    0.978
    28   6 C    3.995 --    29 C    1.007    27 C    1.006    58 H    0.980
                            57 H    0.977
    29   6 C    3.997 --    28 C    1.007    30 C    1.006    60 H    0.980
                            59 H    0.979
    30   6 C    3.993 --    29 C    1.006    26 C    0.982    62 H    0.980
                            61 H    0.974
    31   6 C    3.952 --    32 O    1.650    25 N    1.107     3 C    1.075
    32   8 O    1.976 --    31 C    1.650    25 N    0.137
    33   8 O    2.056 --     2 C    1.830
    34   1 H    0.989 --     1 C    0.936
    35   1 H    0.997 --     1 C    0.966
    36   1 H    0.995 --     1 C    0.982
    37   1 H    0.994 --     5 C    0.962
    38   1 H    0.994 --     5 C    0.977
    39   1 H    0.995 --     5 C    0.966
    40   1 H    0.997 --     7 C    0.958
    41   1 H    0.956 --    10 N    0.921
    42   1 H    0.998 --    13 C    0.957
    43   1 H    0.998 --    15 C    0.964
    44   1 H    0.995 --    16 C    0.958
    45   1 H    0.998 --    18 C    0.970
    46   1 H    0.998 --    18 C    0.967
    47   1 H    0.998 --    19 C    0.973
    48   1 H    0.998 --    19 C    0.972
    49   1 H    0.981 --    20 N    0.957
    50   1 H    0.998 --    21 C    0.971
    51   1 H    0.998 --    21 C    0.974
    52   1 H    0.998 --    22 C    0.968
    53   1 H    0.997 --    22 C    0.968
    54   1 H    0.995 --    26 C    0.957
    55   1 H    0.999 --    27 C    0.981
    56   1 H    0.998 --    27 C    0.978
    57   1 H    0.996 --    28 C    0.977
    58   1 H    0.999 --    28 C    0.980
    59   1 H    0.998 --    29 C    0.979
    60   1 H    0.999 --    29 C    0.980
    61   1 H    0.996 --    30 C    0.974
    62   1 H    0.999 --    30 C    0.980
 ---------------------------------------------------------------------------

Topologies differ in total number of bonds
Writing topology from bond orders to xtbtopo.mol

molecular dipole:
                 x           y           z       tot (Debye)
 q only:        3.021      -0.658       0.042
   full:        3.104      -0.311      -0.123       7.934
molecular quadrupole (traceless):
                xx          xy          yy          xz          yz          zz
 q only:       -1.965      22.177      -1.289       1.788      -2.600       3.254
  q+dip:       -1.434      24.862      -0.780      11.071      -2.075       2.213
   full:       -4.341      24.342       0.261       9.602       1.853       4.079

           -------------------------------------------------
          |                Geometry Summary                 |
           -------------------------------------------------

      molecular mass/u    :      447.5336757
   center of mass at/Å    :       -0.2338829       0.1281836       0.0588594
  moments of inertia/u·Å² :        0.1769396E+04   0.1103246E+05   0.1242057E+05
rotational constants/cm⁻¹ :        0.9527336E-02   0.1528004E-02   0.1357235E-02

 * 61 selected distances

     #   Z          #   Z                                           value/Å
     3   6 C        4   6 C                                       1.3643019
     4   6 C        6   6 C                                       1.4292016
     6   6 C        7   6 C                                       1.4003620
     7   6 C        8   7 N                                       1.3107842
     8   7 N        9   6 C                                       1.3418452
     9   6 C       10   7 N                                       1.3478863
    10   7 N       11   6 C                                       1.3869486
    11   6 C       12   7 N                                       1.3309107
    12   7 N       13   6 C                                       1.3141460
    13   6 C       14   6 C                                       1.4045583
    14   6 C       15   6 C                                       1.4036822
    11   6 C       16   6 C                                       1.3924475
    15   6 C       16   6 C                                       1.3795736
    14   6 C       17   7 N                                       1.3802351
    17   7 N       18   6 C                                       1.4507746
    18   6 C       19   6 C                                       1.5411928 (max)
    19   6 C       20   7 N                                       1.4511950
    20   7 N       21   6 C                                       1.4525967
    17   7 N       22   6 C                                       1.4494197
    21   6 C       22   6 C                                       1.5380682
     9   6 C       23   7 N                                       1.3336977
     6   6 C       24   6 C                                       1.4177273
    23   7 N       24   6 C                                       1.3280442
    24   6 C       25   7 N                                       1.3600578
    25   7 N       26   6 C                                       1.4630540
    27   6 C       28   6 C                                       1.5305850
    28   6 C       29   6 C                                       1.5255981
    26   6 C       30   6 C                                       1.5378208
    29   6 C       30   6 C                                       1.5250265
    25   7 N       31   6 C                                       1.3927464
    31   6 C       32   8 O                                       1.2185576
     2   6 C       33   8 O                                       1.2097141
[...]
    1    6 C      1-7, 9, 11, 13-16, 18, 19, 21, 22, 24, 26-31
    2    7 N      8, 10, 12, 17, 20, 23, 25
    3    8 O      32, 33
    4    1 H      34-62

           -------------------------------------------------
          |                Calculation Setup                |
           -------------------------------------------------

          program call               : xtb /rds/general/user/hgt20/home/callum/QDESCP/Palbociclib_rdkit_conf_16/Palbociclib_rdkit_conf_16.xyz --acc 1 --gfn 2 --chrg 0 --uhf 2 --etemp 300 --input /rds/general/user/hgt20/home/callum/QDESCP/Palbociclib_rdkit_conf_16/Palbociclib_rdkit_conf_16_xtb.inp -P 1
          hostname                   : login-c
          coordinate file            : /rds/general/user/hgt20/home/callum/QDESCP/Palbociclib_rdkit_conf_16/Palbociclib_rdkit_conf_16.xyz
          omp threads                :                     1


           -------------------------------------------------
          |                 G F N 2 - x T B                 |
           -------------------------------------------------

        Reference                      10.1021/acs.jctc.8b01176
      * Hamiltonian:
        H0-scaling (s, p, d)           1.850000    2.230000    2.230000
        zeta-weighting                 0.500000
      * Dispersion:
        s8                             2.700000
        a1                             0.520000
        a2                             5.000000
        s9                             5.000000
      * Repulsion:
        kExp                           1.500000    1.000000
        rExp                           1.000000
      * Coulomb:
        alpha                          2.000000
        third order                    shell-resolved
        anisotropic                    true
        a3                             3.000000
        a5                             4.000000
        cn-shift                       1.200000
        cn-exp                         4.000000
        max-rad                        5.000000


          ...................................................
          :                      SETUP                      :
          :.................................................:
          :  # basis functions                 161          :
          :  # atomic orbitals                 161          :
          :  # shells                           95          :
          :  # electrons                       172          :
          :  max. iterations                   250          :
          :  Hamiltonian                  GFN2-xTB          :
          :  restarted?                      false          :
          :  GBSA solvation                  false          :
          :  PC potential                    false          :
          :  electronic temp.          300.0000000     K    :
          :  accuracy                    1.0000000          :
          :  -> integral cutoff          0.2500000E+02      :
          :  -> integral neglect         0.1000000E-07      :
          :  -> SCF convergence          0.1000000E-05 Eh   :
          :  -> wf. convergence          0.1000000E-03 e    :
          :  Broyden damping             0.4000000          :
          :  net charge                          0          :
          :  unpaired electrons                  2          :
          ...................................................

 iter      E             dE          RMSdq      gap      omega  full diag
   1    -95.8243916 -0.958244E+02  0.348E+00    0.87       0.0  T
   2    -95.6897133  0.134678E+00  0.266E+00    0.43       1.0  T
   3    -95.8279853 -0.138272E+00  0.184E+00    0.89       1.0  T
   4    -96.0518336 -0.223848E+00  0.988E-01    0.21       1.0  T
   5    -95.9963879  0.554456E-01  0.955E-01    0.44       1.0  T
   6    -96.0499519 -0.535640E-01  0.634E-01    0.57       1.0  T
   7    -96.0339708  0.159811E-01  0.657E-01    0.30       1.0  T
   8    -96.0989792 -0.650084E-01  0.285E-01    0.42       1.0  T
   9    -96.1035925 -0.461333E-02  0.168E-01    0.34       1.0  T
  10    -96.1048096 -0.121712E-02  0.940E-02    0.32       1.0  T
  11    -96.1043061  0.503488E-03  0.998E-02    0.30       1.0  T
  12    -96.1052237 -0.917530E-03  0.635E-02    0.32       1.0  T
  13    -96.1056289 -0.405226E-03  0.447E-02    0.30       1.0  T
  14    -96.1058572 -0.228355E-03  0.829E-03    0.31       1.5  T
  15    -96.1058675 -0.102583E-04  0.268E-03    0.30       4.7  T
  16    -96.1058678 -0.312915E-06  0.131E-03    0.30       9.7  T
  17    -96.1058680 -0.193849E-06  0.873E-04    0.30      14.5  T
  18    -96.1058681 -0.753770E-07  0.252E-04    0.30      50.3  T

   *** convergence criteria satisfied after 18 iterations ***

         #    Occupation            Energy/Eh            Energy/eV
      -------------------------------------------------------------
         1        2.0000           -0.6990226             -19.0214
       ...           ...                  ...                  ...
        81        2.0000           -0.3860313             -10.5044
        82        2.0000           -0.3800930             -10.3429
        83        2.0000           -0.3746968             -10.1960
        84        1.8897           -0.3649790              -9.9316
        85        1.7809           -0.3642031              -9.9105
        86        1.3294           -0.3623204              -9.8592
        87        0.9972           -0.2667283              -7.2580 (HOMO)
        88        0.0028           -0.2555645              -6.9543 (LUMO)
        89                         -0.2435644              -6.6277
        90                         -0.2317286              -6.3057
        91                         -0.2091376              -5.6909
        92                         -0.1951120              -5.3093
       ...                                ...                  ...
       161                          0.7185036              19.5515
      -------------------------------------------------------------
                  HL-Gap            0.0111638 Eh            0.3038 eV
             Fermi-level           -0.3120711 Eh           -8.4919 eV

 transition dipole moment (au) for excitation:          86          87
     X       Y       Z   
  -2.7063  -0.0922  -0.2594  total (au/Debye):    2.720   6.914
 dE (eV)             :    2.601
 oscillator strength :  0.66691E+00

 SCC (total)                   0 d,  0 h,  0 min,  0.182 sec
 SCC setup                      ...        0 min,  0.001 sec (  0.364%)
 Dispersion                     ...        0 min,  0.001 sec (  0.500%)
 classical contributions        ...        0 min,  0.000 sec (  0.167%)
 integral evaluation            ...        0 min,  0.013 sec (  7.261%)
 iterations                     ...        0 min,  0.088 sec ( 48.242%)
 molecular gradient             ...        0 min,  0.068 sec ( 37.213%)
 printout                       ...        0 min,  0.011 sec (  6.249%)

         :::::::::::::::::::::::::::::::::::::::::::::::::::::
         ::                     SUMMARY                     ::
         :::::::::::::::::::::::::::::::::::::::::::::::::::::
         :: total energy             -94.796862959834 Eh    ::
         :: gradient norm              0.099447215843 Eh/a0 ::
         :: HOMO-LUMO gap              0.303781631345 eV    ::
         ::.................................................::
         :: SCC energy               -96.106117259686 Eh    ::
         :: -> isotropic ES            0.111300023418 Eh    ::
         :: -> anisotropic ES          0.005748162524 Eh    ::
         :: -> anisotropic XC          0.048207480617 Eh    ::
         :: -> dispersion             -0.071003395804 Eh    ::
         :: repulsion energy           1.309254299852 Eh    ::
         :: add. restraining           0.000000000000 Eh    ::
         :: total charge               0.000000000001 e     ::
         :::::::::::::::::::::::::::::::::::::::::::::::::::::

           -------------------------------------------------
          |                Property Printout                |
           -------------------------------------------------

    * Orbital Energies and Occupations

         #    Occupation            Energy/Eh            Energy/eV
      -------------------------------------------------------------
         1        2.0000           -0.6990226             -19.0214
       ...           ...                  ...                  ...
        75        2.0000           -0.4233268             -11.5193
        76        2.0000           -0.4207196             -11.4484
        77        2.0000           -0.4111406             -11.1877
        78        2.0000           -0.4057293             -11.0405
        79        2.0000           -0.4024052             -10.9500
        80        2.0000           -0.3938255             -10.7165
        81        2.0000           -0.3860313             -10.5044
        82        2.0000           -0.3800930             -10.3429
        83        2.0000           -0.3746968             -10.1960
        84        1.8897           -0.3649790              -9.9316
        85        1.7809           -0.3642031              -9.9105
        86        1.3294           -0.3623204              -9.8592
        87        0.9972           -0.2667283              -7.2580 (HOMO)
        88        0.0028           -0.2555645              -6.9543 (LUMO)
        89                         -0.2435644              -6.6277
        90                         -0.2317286              -6.3057
        91                         -0.2091376              -5.6909
        92                         -0.1951120              -5.3093
        93                         -0.1394181              -3.7938
        94                         -0.1099973              -2.9932
        95                         -0.0696718              -1.8959
        96                         -0.0290411              -0.7902
        97                         -0.0038666              -0.1052
        98                          0.0129842               0.3533
       ...                                ...                  ...
       161                          0.7185036              19.5515
      -------------------------------------------------------------
                  HL-Gap            0.0111638 Eh            0.3038 eV
             Fermi-level           -0.3120711 Eh           -8.4919 eV

     #   Z          covCN         q      C6AA      α(0)
     1   6 C        3.754    -0.135    23.155     6.862
     2   6 C        2.817     0.243    22.931     7.846
     3   6 C        2.964    -0.076    29.897     8.969
     4   6 C        2.957    -0.001    28.051     8.687
     5   6 C        3.758    -0.107    22.595     6.777
     6   6 C        2.979    -0.039    28.972     8.829
     7   6 C        2.925     0.039    27.127     8.541
     8   7 N        1.838    -0.265    27.743     7.806
     9   6 C        2.882     0.213    23.511     7.949
    10   7 N        2.726    -0.121    23.626     7.219
    11   6 C        2.891     0.144    24.868     8.176
    12   7 N        1.852    -0.256    27.503     7.773
    13   6 C        2.909     0.042    27.066     8.531
    14   6 C        2.903     0.042    27.059     8.529
    15   6 C        2.933    -0.041    29.025     8.836
    16   6 C        2.910    -0.055    29.361     8.885
    17   7 N        2.736    -0.088    22.960     7.117
    18   6 C        3.759    -0.009    20.785     6.500
    19   6 C        3.751     0.003    20.584     6.470
    20   7 N        2.678    -0.237    26.208     7.603
    21   6 C        3.751     0.003    20.592     6.472
    22   6 C        3.759    -0.007    20.753     6.495
    23   7 N        1.861    -0.318    29.104     7.996
    24   6 C        2.920     0.164    24.472     8.112
    25   7 N        2.749    -0.080    22.798     7.091
    26   6 C        3.820     0.040    19.888     6.347
    27   6 C        3.820    -0.057    21.577     6.610
    28   6 C        3.829    -0.060    21.636     6.618
    29   6 C        3.829    -0.056    21.551     6.605
    30   6 C        3.828    -0.061    21.648     6.620
    31   6 C        2.773     0.258    22.660     7.796
    32   8 O        0.859    -0.442    22.528     6.364
    33   8 O        0.857    -0.372    21.138     6.164
    34   1 H        0.925     0.098     1.801     2.099
    35   1 H        0.925     0.052     2.298     2.370
    36   1 H        0.925     0.059     2.211     2.325
    37   1 H        0.925     0.049     2.332     2.388
    38   1 H        0.925     0.064     2.157     2.297
    39   1 H        0.925     0.040     2.455     2.450
    40   1 H        0.925     0.039     2.463     2.454
    41   1 H        0.860     0.211     1.052     1.606
    42   1 H        0.925     0.039     2.461     2.453
    43   1 H        0.926     0.037     2.494     2.470
    44   1 H        0.926     0.078     1.999     2.211
    45   1 H        0.924     0.045     2.387     2.416
    46   1 H        0.925     0.056     2.243     2.342
    47   1 H        0.924     0.049     2.336     2.390
    48   1 H        0.924     0.050     2.325     2.384
    49   1 H        0.860     0.146     1.432     1.874
    50   1 H        0.924     0.052     2.298     2.371
    51   1 H        0.924     0.048     2.349     2.397
    52   1 H        0.925     0.056     2.252     2.347
    53   1 H        0.923     0.045     2.387     2.416
    54   1 H        0.924     0.064     2.149     2.292
    55   1 H        0.924     0.029     2.601     2.522
    56   1 H        0.925     0.047     2.354     2.399
    57   1 H        0.925     0.062     2.180     2.309
    58   1 H        0.925     0.028     2.609     2.526
    59   1 H        0.925     0.035     2.520     2.482
    60   1 H        0.924     0.029     2.597     2.520
    61   1 H        0.925     0.061     2.182     2.310
    62   1 H        0.925     0.028     2.615     2.529

 Mol. C6AA /au·bohr⁶  :      42261.589888
 Mol. C8AA /au·bohr⁸  :     981749.638664
 Mol. α(0) /au        :        315.147294


Wiberg/Mayer (AO) data.
largest (>0.10) Wiberg bond orders for each atom

 ---------------------------------------------------------------------------
     #   Z sym  total        # sym  WBO       # sym  WBO       # sym  WBO
 ---------------------------------------------------------------------------
     1   6 C    3.967 --     2 C    0.996    36 H    0.982    35 H    0.968
                            34 H    0.941
     2   6 C    3.891 --    33 O    1.771     3 C    1.022     1 C    0.996
     3   6 C    3.818 --     4 C    1.388    31 C    1.117     2 C    1.022
     4   6 C    3.893 --     3 C    1.388     6 C    1.253     5 C    1.025
     5   6 C    3.985 --     4 C    1.025    38 H    0.978    39 H    0.970
                            37 H    0.967
     6   6 C    3.891 --     4 C    1.253     7 C    1.222    24 C    1.197
     7   6 C    3.868 --     8 N    1.443     6 C    1.222    40 H    0.953
     8   7 N    2.993 --     7 C    1.443     9 C    1.300
     9   6 C    3.912 --     8 N    1.300    23 N    1.236    10 N    1.166
    10   7 N    3.469 --     9 C    1.166    11 C    1.151    41 H    0.921
    11   6 C    3.900 --    12 N    1.292    16 C    1.289    10 N    1.151
    12   7 N    3.005 --    13 C    1.486    11 C    1.292
    13   6 C    3.941 --    12 N    1.486    14 C    1.303    42 H    0.956
    14   6 C    3.905 --    13 C    1.303    15 C    1.285    17 N    1.144
    15   6 C    3.944 --    16 C    1.520    14 C    1.285    43 H    0.963
    16   6 C    3.956 --    15 C    1.520    11 C    1.289    44 H    0.954
    17   7 N    3.309 --    14 C    1.144    22 C    1.003    18 C    0.997
    18   6 C    3.965 --    17 N    0.997    45 H    0.968    19 C    0.966
                            46 H    0.965
    19   6 C    3.970 --    20 N    1.025    47 H    0.971    48 H    0.971
                            18 C    0.966
    20   7 N    3.085 --    19 C    1.025    21 C    1.022    49 H    0.954
    21   6 C    3.971 --    20 N    1.022    51 H    0.972    50 H    0.970
                            22 C    0.969
    22   6 C    3.969 --    17 N    1.003    21 C    0.969    52 H    0.967
                            53 H    0.966
    23   7 N    2.950 --    24 C    1.371     9 C    1.236
    24   6 C    3.947 --    23 N    1.371    25 N    1.200     6 C    1.197
    25   7 N    3.557 --    24 C    1.200    31 C    1.075    26 C    0.956
                            32 O    0.107
    26   6 C    3.944 --    30 C    0.983    27 C    0.982    25 N    0.956
                            54 H    0.953
    27   6 C    3.992 --    28 C    1.006    26 C    0.982    55 H    0.980
                            56 H    0.977
    28   6 C    3.994 --    29 C    1.007    27 C    1.006    58 H    0.980
                            57 H    0.977
    29   6 C    3.997 --    28 C    1.007    30 C    1.007    60 H    0.980
                            59 H    0.979
    30   6 C    3.989 --    29 C    1.007    26 C    0.983    62 H    0.980
                            61 H    0.971
    31   6 C    3.932 --    32 O    1.605     3 C    1.117    25 N    1.075
    32   8 O    1.911 --    31 C    1.605    25 N    0.107
    33   8 O    1.989 --     2 C    1.771
    34   1 H    0.988 --     1 C    0.941
    35   1 H    0.996 --     1 C    0.968
    36   1 H    0.994 --     1 C    0.982
    37   1 H    0.994 --     5 C    0.967
    38   1 H    0.995 --     5 C    0.978
    39   1 H    0.995 --     5 C    0.970
    40   1 H    0.987 --     7 C    0.953
    41   1 H    0.955 --    10 N    0.921
    42   1 H    0.997 --    13 C    0.956
    43   1 H    0.998 --    15 C    0.963
    44   1 H    0.993 --    16 C    0.954
    45   1 H    0.995 --    18 C    0.968
    46   1 H    0.996 --    18 C    0.965
    47   1 H    0.995 --    19 C    0.971
    48   1 H    0.997 --    19 C    0.971
    49   1 H    0.978 --    20 N    0.954
    50   1 H    0.996 --    21 C    0.970
    51   1 H    0.996 --    21 C    0.972
    52   1 H    0.996 --    22 C    0.967
    53   1 H    0.994 --    22 C    0.966
    54   1 H    0.993 --    26 C    0.953
    55   1 H    0.998 --    27 C    0.980
    56   1 H    0.997 --    27 C    0.977
    57   1 H    0.996 --    28 C    0.977
    58   1 H    0.999 --    28 C    0.980
    59   1 H    0.998 --    29 C    0.979
    60   1 H    0.999 --    29 C    0.980
    61   1 H    0.994 --    30 C    0.971
    62   1 H    0.998 --    30 C    0.980
 ---------------------------------------------------------------------------

Topologies differ in total number of bonds
Writing topology from bond orders to xtbtopo.mol

molecular dipole:
                 x           y           z       tot (Debye)
 q only:        6.039      -0.854       0.441
   full:        6.197      -0.550       0.334      15.835
molecular quadrupole (traceless):
                xx          xy          yy          xz          yz          zz
 q only:       16.444      27.839     -10.193      -2.895      -0.151      -6.251
  q+dip:       17.603      30.749     -10.209       6.339       0.212      -7.393
   full:       14.871      30.360      -9.233       4.865       3.852      -5.638


           -------------------------------------------------
          | TOTAL ENERGY              -94.796862959834 Eh   |
          | GRADIENT NORM               0.099447215843 Eh/α |
          | HOMO-LUMO GAP               0.303781631345 eV   |
           -------------------------------------------------

------------------------------------------------------------------------
 * finished run on 2025/05/15 at 16:05:35.809     
------------------------------------------------------------------------
 total:
 * wall-time:     0 d,  0 h,  0 min,  0.202 sec
 *  cpu-time:     0 d,  0 h,  0 min,  0.175 sec
 * ratio c/w:     0.869 speedup
 SCF:
 * wall-time:     0 d,  0 h,  0 min,  0.183 sec
 *  cpu-time:     0 d,  0 h,  0 min,  0.158 sec
 * ratio c/w:     0.863 speedup


