62
 energy: -94.882704274665 gnorm: 0.000927839528 xtb: 6.7.1 (edcfbbe)
C           -6.93847940460918        0.16291464931434       -2.23761243803389
C           -6.07078962529220        1.29414627364467       -1.76689329829246
C           -4.75447625184337        0.89028574999940       -1.18010246892794
C           -3.59082195503146        1.48326629367320       -1.57456691899366
C           -3.52169808547352        2.53811094775075       -2.63226094955470
C           -2.36941178789412        1.04829211630214       -0.97325868099202
C           -1.09832172004648        1.55436204946615       -1.27198369338496
N            0.00470539753846        1.14000074598915       -0.69770965874441
C           -0.11895245023278        0.17237724682157        0.22368158055406
N            0.97049277323139       -0.31347769275230        0.85125728182386
C            2.31137811954070        0.02458196359718        0.74463498123214
N            3.10244173004747       -0.71861488737481        1.51482958944760
C            4.39744505177488       -0.49516461712194        1.51085101216803
C            5.02885576991772        0.49075944211539        0.73492715219339
C            4.17535772564264        1.26681634025051       -0.06482295526513
C            2.81475827026838        1.03880118359592       -0.06584478801871
N            6.38759264313565        0.70974933462910        0.83945561825929
C            7.30497220093797       -0.41193838712355        0.91000944558452
C            7.78347598077146       -0.79060973264892       -0.50523505100724
N            8.38852908979658        0.32473869762380       -1.20941907706151
C            7.49023924746370        1.46605783539797       -1.23184400451205
C            7.01393157732749        1.83953999227356        0.18212039314924
N           -1.27146943357409       -0.38440009560636        0.59845203287281
C           -2.39054589885354        0.03908010622257        0.02222853200328
N           -3.56876234213598       -0.51885535600934        0.40987645582807
C           -3.54277384694148       -1.53908518152522        1.45819999178377
C           -4.20666772224767       -2.87187241202300        1.05093803659683
C           -5.30059810555169       -3.11959528406400        2.09239838422704
C           -4.79687181441741       -2.38644500564386        3.33183362761226
C           -4.24787260831733       -1.08873726987487        2.74851574636522
C           -4.79078063760899       -0.13815645119331       -0.13919720044349
O           -5.82187018540575       -0.64628752544720        0.26520298353044
O           -6.39826620350669        2.45434044184503       -1.86747412823001
H           -7.27498708710728       -0.39297367309650       -1.36356454894244
H           -6.36637556555279       -0.51666532843941       -2.86637998447438
H           -7.79534874400130        0.55421478919896       -2.77960569834101
H           -3.10170317002784        3.45076731369026       -2.21182809514718
H           -4.50439576377496        2.77124873777639       -3.02615414724175
H           -2.87719851513391        2.21015744366606       -3.44726938081496
H           -0.96467278202646        2.33449012756728       -2.00867531285375
H            0.78831295328397       -1.05341640643560        1.51815211282754
H            4.96041114283073       -1.12932804134438        2.18183132034336
H            4.56495054453260        2.04645261130331       -0.70052426104786
H            2.14769520611247        1.61953244295310       -0.67841636753393
H            8.16394857490701       -0.11198290234124        1.52269468531807
H            6.82873391494441       -1.26940253210813        1.37893860869317
H            8.50633932342888       -1.60691779203995       -0.45382625322814
H            6.92184278909350       -1.12331302900684       -1.09321158931302
H            9.25662318723936        0.58577343082406       -0.74854326908513
H            6.63023816405857        1.19270233200493       -1.85049846866623
H            8.00336228743812        2.30905203793385       -1.69838729854092
H            6.33259482172787        2.68897310051550        0.16660567447986
H            7.88534072555332        2.12033416173554        0.78810928370281
H           -2.48250946543276       -1.70037635166541        1.65586037338308
H           -3.46293562784879       -3.66925878062476        1.07706672605080
H           -4.61567796717436       -2.82522692544269        0.04389564278405
H           -6.22905743172336       -2.66043114755355        1.75588880036816
H           -5.47164583910619       -4.18067033789275        2.26749059192986
H           -5.58265612850758       -2.21119027237411        4.06427274682996
H           -3.99529767176443       -2.95432416575007        3.80822280470411
H           -5.07519935431907       -0.42416396751598        2.50410816737204
H           -3.56527802005894       -0.56903838764204        3.41995960267421
