----- Optimization -----
      -----------------------------------------------------------      
     |                   =====================                   |     
     |                           x T B                           |     
     |                   =====================                   |     
     |                         S. Grimme                         |     
     |          Mulliken Center for Theoretical Chemistry        |     
     |                    University of Bonn                     |     
      -----------------------------------------------------------      

   * xtb version 6.7.1 (edcfbbe) compiled by 'conda@3ef47c1a292c' on 2024-11-25

   xtb is free software: you can redistribute it and/or modify it under
   the terms of the GNU Lesser General Public License as published by
   the Free Software Foundation, either version 3 of the License, or
   (at your option) any later version.
   
   xtb is distributed in the hope that it will be useful,
   but WITHOUT ANY WARRANTY; without even the implied warranty of
   MERCHANTABILITY or FITNESS FOR A PARTICULAR PURPOSE.  See the
   GNU Lesser General Public License for more details.
   
   Cite this work as:
   * C. Bannwarth, E. Caldeweyher, S. Ehlert, A. Hansen, P. Pracht,
     J. Seibert, S. Spicher, S. Grimme, WIREs Comput. Mol. Sci., 2020, 11,
     e01493. DOI: 10.1002/wcms.1493
   
   for GFN2-xTB:
   * C. Bannwarth, S. Ehlert and S. Grimme., J. Chem. Theory Comput., 2019,
     15, 1652-1671. DOI: 10.1021/acs.jctc.8b01176
   for GFN1-xTB:
   * S. Grimme, C. Bannwarth, P. Shushkov, J. Chem. Theory Comput., 2017,
     13, 1989-2009. DOI: 10.1021/acs.jctc.7b00118
   for GFN0-xTB:
   * P. Pracht, E. Caldeweyher, S. Ehlert, S. Grimme, ChemRxiv, 2019, preprint.
     DOI: 10.26434/chemrxiv.8326202.v1
   for GFN-FF:
   * S. Spicher and S. Grimme, Angew. Chem. Int. Ed., 2020, 59, 15665-15673.
     DOI: 10.1002/anie.202004239
   
   for ALPB and GBSA implicit solvation:
   * S. Ehlert, M. Stahn, S. Spicher, S. Grimme, J. Chem. Theory Comput.,
     2021, 17, 4250-4261. DOI: 10.1021/acs.jctc.1c00471
   
   for ddCOSMO and CPCM-X implicit solvation:
   * M. Stahn, S. Ehlert, S. Grimme, J. Phys. Chem. A,
     2023, XX, XXXX-XXXX. DOI: 10.1021/acs.jpca.3c04382
   
   for DFT-D4:
   * E. Caldeweyher, C. Bannwarth and S. Grimme, J. Chem. Phys., 2017,
     147, 034112. DOI: 10.1063/1.4993215
   * E. Caldeweyher, S. Ehlert, A. Hansen, H. Neugebauer, S. Spicher,
     C. Bannwarth and S. Grimme, J. Chem. Phys., 2019, 150, 154122.
     DOI: 10.1063/1.5090222
   * E. Caldeweyher, J.-M. Mewes, S. Ehlert and S. Grimme, Phys. Chem. Chem. Phys.
     2020, 22, 8499-8512. DOI: 10.1039/D0CP00502A
   
   for sTDA-xTB:
   * S. Grimme and C. Bannwarth, J. Chem. Phys., 2016, 145, 054103.
     DOI: 10.1063/1.4959605
   
   in the mass-spec context:
   * V. Asgeirsson, C. Bauer and S. Grimme, Chem. Sci., 2017, 8, 4879.
     DOI: 10.1039/c7sc00601b
   * J. Koopman and S. Grimme, ACS Omega 2019, 4, 12, 15120-15133.
     DOI: 10.1021/acsomega.9b02011
   
   for metadynamics refer to:
   * S. Grimme, J. Chem. Theory Comput., 2019, 155, 2847-2862
     DOI: 10.1021/acs.jctc.9b00143
   
   for SPH calculations refer to:
   * S. Spicher and S. Grimme, J. Chem. Theory Comput., 2021, 17, 1701-1714
     DOI: 10.1021/acs.jctc.0c01306
   
   for ONIOM refer to:
   * C. Plett, A. Katbashev, S. Ehlert, S. Grimme, M. Bursch,
     Phys. Chem. Chem. Phys., 2023, 25, 17860-17868. DOI: 10.1039/D3CP02178E
   
   for DIPRO refer to:
   * J. Kohn, N. Gildemeister, S. Grimme, D. Fazzi, A. Hansen,
     J. Chem. Phys., 2023, just accepted.
   
   for PTB refer to:
   * S. Grimme, M. Mueller, A. Hansen, J. Chem. Phys., 2023, 158, 124111.
     DOI: 10.1063/5.0137838
   
   with help from (in alphabetical order)
   P. Atkinson, C. Bannwarth, F. Bohle, G. Brandenburg, E. Caldeweyher
   M. Checinski, S. Dohm, S. Ehlert, S. Ehrlich, I. Gerasimov, C. Hölzer
   A. Katbashev, J. Kohn, J. Koopman, C. Lavigne, S. Lehtola, F. März, M. Müller,
   F. Musil, H. Neugebauer, J. Pisarek, C. Plett, P. Pracht, F. Pultar,
   J. Seibert, P. Shushkov, S. Spicher, M. Stahn, M. Steiner, T. Strunk,
   J. Stückrath, T. Rose, and J. Unsleber
   
 * started run on 2025/05/15 at 16:37:35.699     
   ID    Z sym.   atoms
    1    6 C      1-3, 5-8, 10, 11, 13, 15, 16, 18-20, 22, 23
    2    8 O      4, 21, 24
    3    7 N      9, 14, 17
    4   16 S      12
    5    1 H      25-43

           -------------------------------------------------
          |                Calculation Setup                |
           -------------------------------------------------

          program call               : xtb /rds/general/user/hgt20/home/callum/QDESCP/Omeprazole_rdkit_conf_18/Omeprazole_rdkit_conf_18.xyz --opt normal --acc 1 --gfn 2 --chrg 0 --uhf 0 -P 1
          hostname                   : login-c
          coordinate file            : /rds/general/user/hgt20/home/callum/QDESCP/Omeprazole_rdkit_conf_18/Omeprazole_rdkit_conf_18.xyz
          omp threads                :                     1


           -------------------------------------------------
          |                 G F N 2 - x T B                 |
           -------------------------------------------------

        Reference                      10.1021/acs.jctc.8b01176
      * Hamiltonian:
        H0-scaling (s, p, d)           1.850000    2.230000    2.230000
        zeta-weighting                 0.500000
      * Dispersion:
        s8                             2.700000
        a1                             0.520000
        a2                             5.000000
        s9                             5.000000
      * Repulsion:
        kExp                           1.500000    1.000000
        rExp                           1.000000
      * Coulomb:
        alpha                          2.000000
        third order                    shell-resolved
        anisotropic                    true
        a3                             3.000000
        a5                             4.000000
        cn-shift                       1.200000
        cn-exp                         4.000000
        max-rad                        5.000000


          ...................................................
          :                      SETUP                      :
          :.................................................:
          :  # basis functions                 121          :
          :  # atomic orbitals                 120          :
          :  # shells                           68          :
          :  # electrons                       126          :
          :  max. iterations                   250          :
          :  Hamiltonian                  GFN2-xTB          :
          :  restarted?                      false          :
          :  GBSA solvation                  false          :
          :  PC potential                    false          :
          :  electronic temp.          300.0000000     K    :
          :  accuracy                    1.0000000          :
          :  -> integral cutoff          0.2500000E+02      :
          :  -> integral neglect         0.1000000E-07      :
          :  -> SCF convergence          0.1000000E-05 Eh   :
          :  -> wf. convergence          0.1000000E-03 e    :
          :  Broyden damping             0.4000000          :
          :  net charge                          0          :
          :  unpaired electrons                  0          :
          ...................................................

 iter      E             dE          RMSdq      gap      omega  full diag
   1    -71.0640950 -0.710641E+02  0.456E+00    3.05       0.0  T
   2    -71.1686543 -0.104559E+00  0.264E+00    3.24       1.0  T
   3    -71.1588919  0.976236E-02  0.128E+00    2.92       1.0  T
   4    -71.1772963 -0.184044E-01  0.540E-01    2.95       1.0  T
   5    -71.1862567 -0.896043E-02  0.173E-01    2.90       1.0  T
   6    -71.1863758 -0.119110E-03  0.866E-02    2.90       1.0  T
   7    -71.1864930 -0.117163E-03  0.343E-02    2.90       1.0  T
   8    -71.1865065 -0.134738E-04  0.202E-02    2.90       1.0  T
   9    -71.1865080 -0.149882E-05  0.818E-03    2.91       1.9  T
  10    -71.1865091 -0.116801E-05  0.330E-03    2.91       4.6  T
  11    -71.1865092 -0.570271E-07  0.180E-03    2.91       8.5  T
  12    -71.1865092 -0.329256E-07  0.728E-04    2.91      21.0  T
  13    -71.1865092 -0.986377E-08  0.256E-04    2.91      59.6  T

   *** convergence criteria satisfied after 13 iterations ***

         #    Occupation            Energy/Eh            Energy/eV
      -------------------------------------------------------------
         1        2.0000           -0.7570047             -20.5991
       ...           ...                  ...                  ...
        57        2.0000           -0.4115831             -11.1997
        58        2.0000           -0.4058775             -11.0445
        59        2.0000           -0.4033746             -10.9764
        60        2.0000           -0.3980839             -10.8324
        61        2.0000           -0.3856480             -10.4940
        62        2.0000           -0.3818028             -10.3894
        63        2.0000           -0.3736078             -10.1664 (HOMO)
        64                         -0.2668215              -7.2606 (LUMO)
        65                         -0.2562588              -6.9732
        66                         -0.2413289              -6.5669
        67                         -0.2132349              -5.8024
        68                         -0.2069744              -5.6321
       ...                                ...                  ...
       120                          0.8040482              21.8793
      -------------------------------------------------------------
                  HL-Gap            0.1067863 Eh            2.9058 eV
             Fermi-level           -0.3202147 Eh           -8.7135 eV

 SCC (total)                   0 d,  0 h,  0 min,  0.107 sec
 SCC setup                      ...        0 min,  0.000 sec (  0.363%)
 Dispersion                     ...        0 min,  0.000 sec (  0.452%)
 classical contributions        ...        0 min,  0.000 sec (  0.156%)
 integral evaluation            ...        0 min,  0.010 sec (  8.907%)
 iterations                     ...        0 min,  0.067 sec ( 62.497%)
 molecular gradient             ...        0 min,  0.029 sec ( 27.433%)
 printout                       ...        0 min,  0.000 sec (  0.186%)

         :::::::::::::::::::::::::::::::::::::::::::::::::::::
         ::                     SUMMARY                     ::
         :::::::::::::::::::::::::::::::::::::::::::::::::::::
         :: total energy             -70.301341166850 Eh    ::
         :: gradient norm              0.104689720727 Eh/a0 ::
         :: HOMO-LUMO gap              2.905803088941 eV    ::
         ::.................................................::
         :: SCC energy               -71.184627104916 Eh    ::
         :: -> isotropic ES            0.094590389205 Eh    ::
         :: -> anisotropic ES          0.009251428779 Eh    ::
         :: -> anisotropic XC          0.030926057493 Eh    ::
         :: -> dispersion             -0.052326282614 Eh    ::
         :: repulsion energy           0.883285938065 Eh    ::
         :: add. restraining           0.000000000000 Eh    ::
         :: total charge              -0.000000000000 e     ::
         :::::::::::::::::::::::::::::::::::::::::::::::::::::

      ----------------------------------------------------------- 
     |                   =====================                   |
     |                        A N C O P T                        |
     |                   =====================                   |
     |               Approximate Normal Coordinate               |
     |                Rational Function Optimizer                |
      ----------------------------------------------------------- 
      ----------------------------------------------------------- 
     |                   =====================                   |
     |                        A N C O P T                        |
     |                   =====================                   |
     |               Approximate Normal Coordinate               |
     |                Rational Function Optimizer                |
      ----------------------------------------------------------- 

          ...................................................
          :                      SETUP                      :
          :.................................................:
          :   optimization level            normal          :
          :   max. optcycles                   200          :
          :   ANC micro-cycles                  20          :
          :   degrees of freedom               123          :
          :.................................................:
          :   RF solver                   davidson          :
          :   write xtbopt.log                true          :
          :   linear?                        false          :
          :   energy convergence         0.5000000E-05 Eh   :
          :   grad. convergence          0.1000000E-02 Eh/α :
          :   maxmium RF displ.          1.0000000          :
          :   Hlow (freq-cutoff)         0.1000000E-01      :
          :   Hmax (freq-cutoff)         5.0000000          :
          :   S6 in model hess.         20.0000000          :
          ...................................................

generating ANC from exact Hessian ...
Using Lindh-Hessian (1995)
 Shifting diagonal of input Hessian by    9.8194419300278307E-003
 Lowest  eigenvalues of input Hessian
    0.000000    0.000000    0.000000    0.000000    0.000000    0.000000
    0.010000    0.010158    0.010473    0.010884    0.011558    0.012071
    0.012796    0.013066    0.014620    0.015088    0.015681    0.016199
 Highest eigenvalues
    1.983927    2.033359    2.042298    2.106378    2.229130    2.273656


........................................................................
.............................. CYCLE    1 ..............................
........................................................................

 iter      E             dE          RMSdq      gap      omega  full diag
   1    -71.1865092 -0.711865E+02  0.106E-04    2.91       0.0  T
   2    -71.1865092 -0.815703E-10  0.616E-05    2.91     247.6  T
   3    -71.1865092 -0.452616E-10  0.412E-05    2.91     369.7  T
     SCC iter.                  ...        0 min,  0.008 sec
     gradient                   ...        0 min,  0.028 sec
 * total energy  :   -70.3013412 Eh     change       -0.6945982E-09 Eh
   gradient norm :     0.1046898 Eh/α   predicted     0.0000000E+00 (-100.00%)
   displ. norm   :     0.3044219 α      lambda       -0.1365688E-01
   maximum displ.:     0.0908946 α      in ANC's #21, #48, #26, ...

........................................................................
.............................. CYCLE    2 ..............................
........................................................................

 iter      E             dE          RMSdq      gap      omega  full diag
   1    -71.2229383 -0.712229E+02  0.195E-01    2.93       0.0  T
   2    -71.2230678 -0.129452E-03  0.127E-01    2.97       1.0  T
   3    -71.2230541  0.137059E-04  0.672E-02    2.95       1.0  T
   4    -71.2231368 -0.827593E-04  0.187E-02    2.96       1.0  T
   5    -71.2231459 -0.907995E-05  0.698E-03    2.96       2.2  T
   6    -71.2231460 -0.940015E-07  0.333E-03    2.96       4.6  T
   7    -71.2231462 -0.178304E-06  0.159E-03    2.96       9.6  T
   8    -71.2231462 -0.214481E-07  0.745E-04    2.96      20.5  T
   9    -71.2231462 -0.241253E-08  0.263E-04    2.96      58.0  T
     SCC iter.                  ...        0 min,  0.064 sec
     gradient                   ...        0 min,  0.029 sec
 * total energy  :   -70.3109217 Eh     change       -0.9580579E-02 Eh
   gradient norm :     0.0509261 Eh/α   predicted    -0.7470810E-02 ( -22.02%)
   displ. norm   :     0.2954065 α      lambda       -0.4778839E-02
   maximum displ.:     0.1296997 α      in ANC's #5, #9, #11, ...

........................................................................
.............................. CYCLE    3 ..............................
........................................................................

 iter      E             dE          RMSdq      gap      omega  full diag
   1    -71.2445806 -0.712446E+02  0.140E-01    2.97       0.0  T
   2    -71.2446875 -0.106908E-03  0.938E-02    2.99       1.0  T
   3    -71.2447116 -0.241010E-04  0.492E-02    2.98       1.0  T
   4    -71.2447167 -0.505306E-05  0.177E-02    2.98       1.0  T
   5    -71.2447271 -0.104320E-04  0.450E-03    2.98       3.4  T
   6    -71.2447273 -0.142855E-06  0.261E-03    2.98       5.8  T
   7    -71.2447273 -0.519251E-07  0.106E-03    2.98      14.4  T
   8    -71.2447273 -0.172327E-07  0.550E-04    2.98      27.7  T
   9    -71.2447273 -0.114946E-08  0.193E-04    2.98      79.0  T
     SCC iter.                  ...        0 min,  0.060 sec
     gradient                   ...        0 min,  0.029 sec
 * total energy  :   -70.3137758 Eh     change       -0.2854058E-02 Eh
   gradient norm :     0.0140684 Eh/α   predicted    -0.2599168E-02 (  -8.93%)
   displ. norm   :     0.2570620 α      lambda       -0.9855378E-03
   maximum displ.:     0.1472952 α      in ANC's #5, #9, #11, ...

........................................................................
.............................. CYCLE    4 ..............................
........................................................................

 iter      E             dE          RMSdq      gap      omega  full diag
   1    -71.2465036 -0.712465E+02  0.682E-02    2.98       0.0  T
   2    -71.2465151 -0.114783E-04  0.425E-02    2.98       1.0  T
   3    -71.2465143  0.732598E-06  0.177E-02    2.97       1.0  T
   4    -71.2465165 -0.220111E-05  0.513E-03    2.97       3.0  T
   5    -71.2465172 -0.683875E-06  0.232E-03    2.97       6.6  T
   6    -71.2465173 -0.716732E-07  0.105E-03    2.97      14.5  T
   7    -71.2465173 -0.125107E-07  0.268E-04    2.97      57.0  T
   8    -71.2465173 -0.914241E-09  0.155E-04    2.97      98.2  T
     SCC iter.                  ...        0 min,  0.058 sec
     gradient                   ...        0 min,  0.029 sec
 * total energy  :   -70.3145555 Eh     change       -0.7796504E-03 Eh
   gradient norm :     0.0093424 Eh/α   predicted    -0.5253712E-03 ( -32.61%)
   displ. norm   :     0.4388739 α      lambda       -0.1129826E-02
   maximum displ.:     0.2618390 α      in ANC's #5, #9, #11, ...

........................................................................
.............................. CYCLE    5 ..............................
........................................................................

 iter      E             dE          RMSdq      gap      omega  full diag
   1    -71.2449085 -0.712449E+02  0.101E-01    2.97       0.0  T
   2    -71.2449176 -0.913885E-05  0.600E-02    2.96       1.0  T
   3    -71.2449150  0.260680E-05  0.152E-02    2.95       1.0  T
   4    -71.2449191 -0.408876E-05  0.526E-03    2.95       2.9  T
   5    -71.2449195 -0.400391E-06  0.247E-03    2.95       6.2  T
   6    -71.2449196 -0.504553E-07  0.780E-04    2.95      19.5  T
   7    -71.2449196 -0.810213E-08  0.256E-04    2.95      59.5  T
     SCC iter.                  ...        0 min,  0.056 sec
     gradient                   ...        0 min,  0.029 sec
 * total energy  :   -70.3153545 Eh     change       -0.7990053E-03 Eh
   gradient norm :     0.0092844 Eh/α   predicted    -0.6737235E-03 ( -15.68%)
   displ. norm   :     0.3412612 α      lambda       -0.5125056E-03
   maximum displ.:     0.2051861 α      in ANC's #5, #3, #11, ...

........................................................................
.............................. CYCLE    6 ..............................
........................................................................

 iter      E             dE          RMSdq      gap      omega  full diag
   1    -71.2439869 -0.712440E+02  0.680E-02    2.95       0.0  T
   2    -71.2439895 -0.264776E-05  0.386E-02    2.94       1.0  T
   3    -71.2439885  0.101899E-05  0.908E-03    2.94       1.7  T
   4    -71.2439903 -0.176412E-05  0.291E-03    2.94       5.2  T
   5    -71.2439904 -0.838160E-07  0.128E-03    2.94      11.9  T
   6    -71.2439904 -0.187466E-07  0.332E-04    2.94      45.9  T
   7    -71.2439904 -0.863523E-09  0.165E-04    2.94      92.2  T
     SCC iter.                  ...        0 min,  0.016 sec
     gradient                   ...        0 min,  0.062 sec
 * total energy  :   -70.3157276 Eh     change       -0.3731422E-03 Eh
   gradient norm :     0.0079265 Eh/α   predicted    -0.2861238E-03 ( -23.32%)
   displ. norm   :     0.2846605 α      lambda       -0.3351771E-03
   maximum displ.:     0.1619082 α      in ANC's #5, #3, #8, ...

........................................................................
.............................. CYCLE    7 ..............................
........................................................................

 iter      E             dE          RMSdq      gap      omega  full diag
   1    -71.2445119 -0.712445E+02  0.489E-02    2.93       0.0  T
   2    -71.2445150 -0.312245E-05  0.280E-02    2.93       1.0  T
   3    -71.2445145  0.533971E-06  0.102E-02    2.93       1.5  T
   4    -71.2445157 -0.114641E-05  0.237E-03    2.93       6.4  T
   5    -71.2445158 -0.101559E-06  0.983E-04    2.93      15.5  T
   6    -71.2445158 -0.428768E-08  0.440E-04    2.93      34.7  T
     SCC iter.                  ...        0 min,  0.014 sec
     gradient                   ...        0 min,  0.062 sec
 * total energy  :   -70.3159804 Eh     change       -0.2527796E-03 Eh
   gradient norm :     0.0052424 Eh/α   predicted    -0.1811690E-03 ( -28.33%)
   displ. norm   :     0.2906672 α      lambda       -0.2827067E-03
   maximum displ.:     0.1441584 α      in ANC's #5, #3, #1, ...

........................................................................
.............................. CYCLE    8 ..............................
........................................................................

 iter      E             dE          RMSdq      gap      omega  full diag
   1    -71.2454241 -0.712454E+02  0.469E-02    2.93       0.0  T
   2    -71.2454272 -0.311970E-05  0.279E-02    2.93       1.0  T
   3    -71.2454266  0.570639E-06  0.983E-03    2.93       1.6  T
   4    -71.2454278 -0.112030E-05  0.237E-03    2.93       6.4  T
   5    -71.2454279 -0.931385E-07  0.108E-03    2.93      14.1  T
   6    -71.2454279 -0.711572E-08  0.456E-04    2.93      33.4  T
   7    -71.2454279 -0.313239E-08  0.153E-04    2.93      99.4  T
     SCC iter.                  ...        0 min,  0.017 sec
     gradient                   ...        0 min,  0.029 sec
 * total energy  :   -70.3161911 Eh     change       -0.2106826E-03 Eh
   gradient norm :     0.0045397 Eh/α   predicted    -0.1532971E-03 ( -27.24%)
   displ. norm   :     0.2867554 α      lambda       -0.2268609E-03
   maximum displ.:     0.1344742 α      in ANC's #3, #1, #5, ...

........................................................................
.............................. CYCLE    9 ..............................
........................................................................

 iter      E             dE          RMSdq      gap      omega  full diag
   1    -71.2459396 -0.712459E+02  0.484E-02    2.93       0.0  T
   2    -71.2459414 -0.179992E-05  0.290E-02    2.93       1.0  T
   3    -71.2459410  0.470514E-06  0.711E-03    2.93       2.1  T
   4    -71.2459418 -0.809420E-06  0.190E-03    2.93       8.0  T
   5    -71.2459418 -0.387046E-07  0.115E-03    2.93      13.2  T
   6    -71.2459418 -0.160657E-07  0.422E-04    2.93      36.2  T
   7    -71.2459418 -0.445826E-08  0.147E-04    2.93     103.5  T
     SCC iter.                  ...        0 min,  0.016 sec
     gradient                   ...        0 min,  0.029 sec
 * total energy  :   -70.3163656 Eh     change       -0.1745758E-03 Eh
   gradient norm :     0.0053836 Eh/α   predicted    -0.1227600E-03 ( -29.68%)
   displ. norm   :     0.3023719 α      lambda       -0.2189244E-03
   maximum displ.:     0.1543761 α      in ANC's #1, #3, #8, ...

........................................................................
.............................. CYCLE   10 ..............................
........................................................................

 iter      E             dE          RMSdq      gap      omega  full diag
   1    -71.2460623 -0.712461E+02  0.562E-02    2.93       0.0  T
   2    -71.2460635 -0.117174E-05  0.335E-02    2.93       1.0  T
   3    -71.2460623  0.119003E-05  0.715E-03    2.93       2.1  T
   4    -71.2460638 -0.158298E-05  0.208E-03    2.93       7.3  T
   5    -71.2460639 -0.263861E-07  0.119E-03    2.93      12.9  T
   6    -71.2460639 -0.230145E-07  0.357E-04    2.93      42.7  T
   7    -71.2460639 -0.252047E-08  0.176E-04    2.93      86.6  T
     SCC iter.                  ...        0 min,  0.049 sec
     gradient                   ...        0 min,  0.029 sec
 * total energy  :   -70.3165359 Eh     change       -0.1702470E-03 Eh
   gradient norm :     0.0054535 Eh/α   predicted    -0.1194751E-03 ( -29.82%)
   displ. norm   :     0.3086659 α      lambda       -0.2041778E-03
   maximum displ.:     0.1702028 α      in ANC's #1, #3, #9, ...

........................................................................
.............................. CYCLE   11 ..............................
........................................................................

 iter      E             dE          RMSdq      gap      omega  full diag
   1    -71.2459065 -0.712459E+02  0.611E-02    2.94       0.0  T
   2    -71.2459078 -0.134043E-05  0.360E-02    2.94       1.0  T
   3    -71.2459049  0.292320E-05  0.100E-02    2.94       1.5  T
   4    -71.2459085 -0.360651E-05  0.245E-03    2.94       6.2  T
   5    -71.2459085 -0.137519E-07  0.107E-03    2.94      14.2  T
   6    -71.2459085 -0.175397E-07  0.437E-04    2.94      34.9  T
   7    -71.2459085 -0.366192E-08  0.220E-04    2.94      69.4  T
     SCC iter.                  ...        0 min,  0.055 sec
     gradient                   ...        0 min,  0.029 sec
 * total energy  :   -70.3166917 Eh     change       -0.1557726E-03 Eh
   gradient norm :     0.0046470 Eh/α   predicted    -0.1118177E-03 ( -28.22%)
   displ. norm   :     0.2820750 α      lambda       -0.1597588E-03
   maximum displ.:     0.1675139 α      in ANC's #1, #3, #2, ...

........................................................................
.............................. CYCLE   12 ..............................
........................................................................

 iter      E             dE          RMSdq      gap      omega  full diag
   1    -71.2457974 -0.712458E+02  0.555E-02    2.94       0.0  T
   2    -71.2457991 -0.172884E-05  0.325E-02    2.94       1.0  T
   3    -71.2457967  0.236905E-05  0.999E-03    2.94       1.5  T
   4    -71.2457997 -0.295510E-05  0.296E-03    2.94       5.2  T
   5    -71.2457998 -0.108834E-06  0.132E-03    2.94      11.6  T
   6    -71.2457998 -0.133559E-07  0.517E-04    2.94      29.5  T
   7    -71.2457998 -0.560669E-08  0.253E-04    2.94      60.2  T
     SCC iter.                  ...        0 min,  0.016 sec
     gradient                   ...        0 min,  0.062 sec
 * total energy  :   -70.3168134 Eh     change       -0.1217146E-03 Eh
   gradient norm :     0.0038718 Eh/α   predicted    -0.8623864E-04 ( -29.15%)
   displ. norm   :     0.2556181 α      lambda       -0.1268261E-03
   maximum displ.:     0.1599630 α      in ANC's #1, #3, #2, ...

........................................................................
.............................. CYCLE   13 ..............................
........................................................................

 iter      E             dE          RMSdq      gap      omega  full diag
   1    -71.2458669 -0.712459E+02  0.481E-02    2.94       0.0  T
   2    -71.2458687 -0.175662E-05  0.280E-02    2.94       1.0  T
   3    -71.2458674  0.123403E-05  0.839E-03    2.94       1.8  T
   4    -71.2458690 -0.156290E-05  0.302E-03    2.94       5.0  T
   5    -71.2458692 -0.176416E-06  0.128E-03    2.94      11.9  T
   6    -71.2458692 -0.141476E-07  0.495E-04    2.94      30.8  T
   7    -71.2458692 -0.429567E-08  0.232E-04    2.94      65.8  T
     SCC iter.                  ...        0 min,  0.016 sec
     gradient                   ...        0 min,  0.061 sec
 * total energy  :   -70.3169138 Eh     change       -0.1004318E-03 Eh
   gradient norm :     0.0034902 Eh/α   predicted    -0.6755762E-04 ( -32.73%)
   displ. norm   :     0.2708934 α      lambda       -0.1293534E-03
   maximum displ.:     0.1723437 α      in ANC's #1, #3, #15, ...

........................................................................
.............................. CYCLE   14 ..............................
........................................................................

 iter      E             dE          RMSdq      gap      omega  full diag
   1    -71.2460075 -0.712460E+02  0.506E-02    2.94       0.0  T
   2    -71.2460094 -0.187691E-05  0.294E-02    2.94       1.0  T
   3    -71.2460084  0.104897E-05  0.805E-03    2.94       1.9  T
   4    -71.2460097 -0.132128E-05  0.303E-03    2.93       5.0  T
   5    -71.2460099 -0.219458E-06  0.128E-03    2.94      12.0  T
   6    -71.2460099 -0.170653E-07  0.500E-04    2.94      30.5  T
   7    -71.2460099 -0.395926E-08  0.219E-04    2.94      69.7  T
     SCC iter.                  ...        0 min,  0.016 sec
     gradient                   ...        0 min,  0.062 sec
 * total energy  :   -70.3170193 Eh     change       -0.1054691E-03 Eh
   gradient norm :     0.0036442 Eh/α   predicted    -0.6942485E-04 ( -34.18%)
   displ. norm   :     0.3252982 α      lambda       -0.1512123E-03
   maximum displ.:     0.2055928 α      in ANC's #1, #3, #4, ...

........................................................................
.............................. CYCLE   15 ..............................
........................................................................

 iter      E             dE          RMSdq      gap      omega  full diag
   1    -71.2459311 -0.712459E+02  0.632E-02    2.94       0.0  T
   2    -71.2459333 -0.210948E-05  0.369E-02    2.94       1.0  T
   3    -71.2459315  0.174539E-05  0.879E-03    2.94       1.7  T
   4    -71.2459337 -0.215611E-05  0.322E-03    2.94       4.7  T
   5    -71.2459340 -0.285400E-06  0.135E-03    2.94      11.3  T
   6    -71.2459340 -0.174621E-07  0.543E-04    2.94      28.1  T
   7    -71.2459340 -0.481542E-08  0.224E-04    2.94      68.0  T
     SCC iter.                  ...        0 min,  0.016 sec
     gradient                   ...        0 min,  0.030 sec
 * total energy  :   -70.3171432 Eh     change       -0.1239711E-03 Eh
   gradient norm :     0.0045160 Eh/α   predicted    -0.8360966E-04 ( -32.56%)
   displ. norm   :     0.3522094 α      lambda       -0.1609920E-03
   maximum displ.:     0.2225380 α      in ANC's #1, #4, #3, ...

........................................................................
.............................. CYCLE   16 ..............................
........................................................................

 iter      E             dE          RMSdq      gap      omega  full diag
   1    -71.2457889 -0.712458E+02  0.721E-02    2.95       0.0  T
   2    -71.2457908 -0.188842E-05  0.423E-02    2.94       1.0  T
   3    -71.2457880  0.274021E-05  0.921E-03    2.95       1.7  T
   4    -71.2457915 -0.342938E-05  0.290E-03    2.94       5.3  T
   5    -71.2457917 -0.187231E-06  0.132E-03    2.94      11.6  T
   6    -71.2457917 -0.130835E-07  0.523E-04    2.94      29.1  T
   7    -71.2457917 -0.517761E-08  0.202E-04    2.94      75.3  T
     SCC iter.                  ...        0 min,  0.016 sec
     gradient                   ...        0 min,  0.030 sec
 * total energy  :   -70.3172744 Eh     change       -0.1311148E-03 Eh
   gradient norm :     0.0052458 Eh/α   predicted    -0.9048255E-04 ( -30.99%)
   displ. norm   :     0.3389539 α      lambda       -0.1545210E-03
   maximum displ.:     0.2173071 α      in ANC's #1, #4, #3, ...

........................................................................
.............................. CYCLE   17 ..............................
........................................................................

 iter      E             dE          RMSdq      gap      omega  full diag
   1    -71.2457823 -0.712458E+02  0.712E-02    2.96       0.0  T
   2    -71.2457838 -0.148417E-05  0.420E-02    2.96       1.0  T
   3    -71.2457805  0.333199E-05  0.949E-03    2.96       1.6  T
   4    -71.2457847 -0.416960E-05  0.228E-03    2.96       6.7  T
   5    -71.2457847 -0.299058E-07  0.113E-03    2.96      13.5  T
   6    -71.2457847 -0.191447E-07  0.400E-04    2.96      38.1  T
   7    -71.2457847 -0.274116E-08  0.154E-04    2.96      98.9  T
     SCC iter.                  ...        0 min,  0.051 sec
     gradient                   ...        0 min,  0.028 sec
 * total energy  :   -70.3173963 Eh     change       -0.1219726E-03 Eh
   gradient norm :     0.0049922 Eh/α   predicted    -0.8613918E-04 ( -29.38%)
   displ. norm   :     0.2822071 α      lambda       -0.1268131E-03
   maximum displ.:     0.1884788 α      in ANC's #1, #4, #3, ...

........................................................................
.............................. CYCLE   18 ..............................
........................................................................

 iter      E             dE          RMSdq      gap      omega  full diag
   1    -71.2465631 -0.712466E+02  0.588E-02    2.98       0.0  T
   2    -71.2465642 -0.113393E-05  0.349E-02    2.98       1.0  T
   3    -71.2465614  0.276425E-05  0.889E-03    2.98       1.7  T
   4    -71.2465648 -0.338937E-05  0.195E-03    2.98       7.8  T
   5    -71.2465648 -0.226184E-07  0.961E-04    2.98      15.9  T
   6    -71.2465648 -0.108780E-07  0.373E-04    2.98      40.9  T
     SCC iter.                  ...        0 min,  0.048 sec
     gradient                   ...        0 min,  0.030 sec
 * total energy  :   -70.3174911 Eh     change       -0.9480414E-04 Eh
   gradient norm :     0.0036359 Eh/α   predicted    -0.6846179E-04 ( -27.79%)
   displ. norm   :     0.2138150 α      lambda       -0.7602405E-04
   maximum displ.:     0.1517832 α      in ANC's #1, #4, #8, ...

........................................................................
.............................. CYCLE   19 ..............................
........................................................................

 iter      E             dE          RMSdq      gap      omega  full diag
   1    -71.2465376 -0.712465E+02  0.395E-02    2.99       0.0  T
   2    -71.2465382 -0.561854E-06  0.235E-02    2.99       1.0  T
   3    -71.2465369  0.123987E-05  0.627E-03    2.99       2.4  T
   4    -71.2465384 -0.150973E-05  0.145E-03    2.99      10.5  T
   5    -71.2465384 -0.254045E-07  0.696E-04    2.99      21.9  T
   6    -71.2465385 -0.383123E-08  0.279E-04    2.99      54.7  T
     SCC iter.                  ...        0 min,  0.014 sec
     gradient                   ...        0 min,  0.062 sec
 * total energy  :   -70.3175443 Eh     change       -0.5316511E-04 Eh
   gradient norm :     0.0025555 Eh/α   predicted    -0.3975074E-04 ( -25.23%)
   displ. norm   :     0.1329229 α      lambda       -0.4821703E-04
   maximum displ.:     0.0984463 α      in ANC's #1, #4, #12, ...

........................................................................
.............................. CYCLE   20 ..............................
........................................................................

 iter      E             dE          RMSdq      gap      omega  full diag
   1    -71.2486241 -0.712486E+02  0.264E-02    3.00       0.0  T
   2    -71.2486246 -0.537311E-06  0.154E-02    3.00       1.0  T
   3    -71.2486243  0.301167E-06  0.376E-03    3.01       4.1  T
   4    -71.2486247 -0.392602E-06  0.133E-03    3.00      11.4  T
   5    -71.2486247 -0.389697E-07  0.505E-04    3.00      30.2  T
   6    -71.2486247 -0.806324E-10  0.219E-04    3.00      69.7  T
     SCC iter.                  ...        0 min,  0.014 sec
     gradient                   ...        0 min,  0.068 sec
 * total energy  :   -70.3175648 Eh     change       -0.2050564E-04 Eh
   gradient norm :     0.0031607 Eh/α   predicted    -0.2453482E-04 (  19.65%)
   displ. norm   :     0.0806178 α      lambda       -0.3403611E-04
   maximum displ.:     0.0599908 α      in ANC's #1, #8, #4, ...
 * RMSD in coord.:     0.6430952 α      energy gain  -0.1622364E-01 Eh

generating ANC from exact Hessian ...
Using Lindh-Hessian (1995)
 Shifting diagonal of input Hessian by    9.7552982340987290E-003
 Lowest  eigenvalues of input Hessian
    0.000000    0.000000    0.000000    0.000000    0.000000    0.000000
    0.010000    0.010195    0.010730    0.011140    0.011583    0.012093
    0.012828    0.013176    0.014859    0.015444    0.016066    0.016114
 Highest eigenvalues
    2.053279    2.084278    2.149087    2.153702    2.254566    2.515479


........................................................................
.............................. CYCLE   21 ..............................
........................................................................

 iter      E             dE          RMSdq      gap      omega  full diag
   1    -71.2475393 -0.712475E+02  0.141E-02    3.01       0.0  T
   2    -71.2475395 -0.235897E-06  0.809E-03    3.01       1.9  T
   3    -71.2475395  0.502143E-07  0.197E-03    3.01       7.8  T
   4    -71.2475395 -0.732154E-07  0.798E-04    3.01      19.1  T
   5    -71.2475395 -0.139879E-07  0.318E-04    3.01      47.9  T
     SCC iter.                  ...        0 min,  0.012 sec
     gradient                   ...        0 min,  0.062 sec
 * total energy  :   -70.3175878 Eh     change       -0.2297798E-04 Eh
   gradient norm :     0.0020349 Eh/α   predicted     0.0000000E+00 (-100.00%)
   displ. norm   :     0.0309255 α      lambda       -0.1554030E-04
   maximum displ.:     0.0233832 α      in ANC's #1, #6, #2, ...

........................................................................
.............................. CYCLE   22 ..............................
........................................................................

 iter      E             dE          RMSdq      gap      omega  full diag
   1    -71.2471371 -0.712471E+02  0.664E-03    3.01       0.0  T
   2    -71.2471372 -0.581994E-07  0.399E-03    3.01       3.8  T
   3    -71.2471371  0.448117E-07  0.156E-03    3.01       9.8  T
   4    -71.2471372 -0.617293E-07  0.412E-04    3.01      37.0  T
   5    -71.2471372 -0.338818E-08  0.190E-04    3.01      80.4  T
     SCC iter.                  ...        0 min,  0.012 sec
     gradient                   ...        0 min,  0.068 sec
 * total energy  :   -70.3176019 Eh     change       -0.1414481E-04 Eh
   gradient norm :     0.0010555 Eh/α   predicted    -0.8017937E-05 ( -43.32%)
   displ. norm   :     0.1370808 α      lambda       -0.3492215E-04
   maximum displ.:     0.0938597 α      in ANC's #1, #6, #2, ...

........................................................................
.............................. CYCLE   23 ..............................
........................................................................

 iter      E             dE          RMSdq      gap      omega  full diag
   1    -71.2462256 -0.712462E+02  0.285E-02    3.00       0.0  T
   2    -71.2462263 -0.676449E-06  0.170E-02    3.00       1.0  T
   3    -71.2462256  0.705205E-06  0.553E-03    3.00       2.8  T
   4    -71.2462265 -0.922754E-06  0.134E-03    3.00      11.4  T
   5    -71.2462265 -0.269641E-07  0.677E-04    3.00      22.5  T
   6    -71.2462265 -0.439148E-08  0.296E-04    3.00      51.6  T
     SCC iter.                  ...        0 min,  0.014 sec
     gradient                   ...        0 min,  0.068 sec
 * total energy  :   -70.3176363 Eh     change       -0.3434759E-04 Eh
   gradient norm :     0.0022710 Eh/α   predicted    -0.1760800E-04 ( -48.74%)
   displ. norm   :     0.0673198 α      lambda       -0.1703011E-04
   maximum displ.:     0.0477670 α      in ANC's #1, #2, #3, ...

........................................................................
.............................. CYCLE   24 ..............................
........................................................................

 iter      E             dE          RMSdq      gap      omega  full diag
   1    -71.2463610 -0.712464E+02  0.129E-02    2.99       0.0  T
   2    -71.2463611 -0.507175E-07  0.760E-03    2.99       2.0  T
   3    -71.2463611  0.166649E-07  0.104E-03    2.99      14.7  T
   4    -71.2463611 -0.358548E-07  0.398E-04    2.99      38.3  T
   5    -71.2463611 -0.121511E-08  0.164E-04    2.99      93.0  T
     SCC iter.                  ...        0 min,  0.012 sec
     gradient                   ...        0 min,  0.028 sec
 * total energy  :   -70.3176519 Eh     change       -0.1563136E-04 Eh
   gradient norm :     0.0023513 Eh/α   predicted    -0.8555957E-05 ( -45.26%)
   displ. norm   :     0.1049953 α      lambda       -0.2884729E-04
   maximum displ.:     0.0727728 α      in ANC's #1, #2, #3, ...

........................................................................
.............................. CYCLE   25 ..............................
........................................................................

 iter      E             dE          RMSdq      gap      omega  full diag
   1    -71.2468146 -0.712468E+02  0.203E-02    2.99       0.0  T
   2    -71.2468148 -0.143248E-06  0.120E-02    2.99       1.3  T
   3    -71.2468145  0.265676E-06  0.298E-03    2.99       5.1  T
   4    -71.2468148 -0.335185E-06  0.628E-04    2.99      24.3  T
   5    -71.2468148 -0.490256E-08  0.290E-04    2.99      52.6  T
     SCC iter.                  ...        0 min,  0.046 sec
     gradient                   ...        0 min,  0.029 sec
 * total energy  :   -70.3176772 Eh     change       -0.2526824E-04 Eh
   gradient norm :     0.0016431 Eh/α   predicted    -0.1458404E-04 ( -42.28%)
   displ. norm   :     0.2161270 α      lambda       -0.3296420E-04
   maximum displ.:     0.1519957 α      in ANC's #1, #3, #2, ...

........................................................................
.............................. CYCLE   26 ..............................
........................................................................

 iter      E             dE          RMSdq      gap      omega  full diag
   1    -71.2472247 -0.712472E+02  0.410E-02    2.99       0.0  T
   2    -71.2472254 -0.662693E-06  0.242E-02    2.99       1.0  T
   3    -71.2472240  0.135181E-05  0.679E-03    2.99       2.2  T
   4    -71.2472257 -0.165312E-05  0.142E-03    2.99      10.7  T
   5    -71.2472257 -0.370929E-07  0.635E-04    2.99      24.0  T
   6    -71.2472257 -0.215375E-08  0.232E-04    2.99      65.6  T
     SCC iter.                  ...        0 min,  0.014 sec
     gradient                   ...        0 min,  0.062 sec
 * total energy  :   -70.3177143 Eh     change       -0.3710426E-04 Eh
   gradient norm :     0.0009644 Eh/α   predicted    -0.1685397E-04 ( -54.58%)
   displ. norm   :     0.1303786 α      lambda       -0.1429507E-04
   maximum displ.:     0.0992015 α      in ANC's #1, #3, #2, ...

........................................................................
.............................. CYCLE   27 ..............................
........................................................................

 iter      E             dE          RMSdq      gap      omega  full diag
   1    -71.2473162 -0.712473E+02  0.236E-02    2.99       0.0  T
   2    -71.2473164 -0.179769E-06  0.140E-02    2.99       1.1  T
   3    -71.2473161  0.327320E-06  0.330E-03    2.99       4.6  T
   4    -71.2473165 -0.403741E-06  0.771E-04    2.99      19.8  T
   5    -71.2473165 -0.930113E-08  0.348E-04    2.99      43.8  T
     SCC iter.                  ...        0 min,  0.012 sec
     gradient                   ...        0 min,  0.060 sec
 * total energy  :   -70.3177326 Eh     change       -0.1831944E-04 Eh
   gradient norm :     0.0007664 Eh/α   predicted    -0.7203186E-05 ( -60.68%)
   displ. norm   :     0.0717280 α      lambda       -0.9442444E-05
   maximum displ.:     0.0607147 α      in ANC's #1, #3, #12, ...

........................................................................
.............................. CYCLE   28 ..............................
........................................................................

 iter      E             dE          RMSdq      gap      omega  full diag
   1    -71.2474771 -0.712475E+02  0.136E-02    2.99       0.0  T
   2    -71.2474772 -0.536130E-07  0.799E-03    2.99       1.9  T
   3    -71.2474771  0.693443E-07  0.151E-03    2.99      10.1  T
   4    -71.2474772 -0.915186E-07  0.406E-04    2.99      37.5  T
   5    -71.2474772 -0.147695E-08  0.171E-04    2.99      89.0  T
     SCC iter.                  ...        0 min,  0.012 sec
     gradient                   ...        0 min,  0.029 sec
 * total energy  :   -70.3177456 Eh     change       -0.1300345E-04 Eh
   gradient norm :     0.0005965 Eh/α   predicted    -0.4736345E-05 ( -63.58%)
   displ. norm   :     0.0647993 α      lambda       -0.9819289E-05
   maximum displ.:     0.0550365 α      in ANC's #1, #10, #5, ...

........................................................................
.............................. CYCLE   29 ..............................
........................................................................

 iter      E             dE          RMSdq      gap      omega  full diag
   1    -71.2474610 -0.712475E+02  0.142E-02    3.00       0.0  T
   2    -71.2474611 -0.689215E-07  0.825E-03    3.00       1.8  T
   3    -71.2474611  0.303055E-07  0.120E-03    3.00      12.7  T
   4    -71.2474611 -0.533952E-07  0.463E-04    3.00      33.0  T
   5    -71.2474611 -0.315494E-08  0.183E-04    3.00      83.5  T
     SCC iter.                  ...        0 min,  0.048 sec
     gradient                   ...        0 min,  0.030 sec
 * total energy  :   -70.3177590 Eh     change       -0.1338924E-04 Eh
   gradient norm :     0.0005539 Eh/α   predicted    -0.4920016E-05 ( -63.25%)
   displ. norm   :     0.0723537 α      lambda       -0.1019908E-04
   maximum displ.:     0.0595220 α      in ANC's #1, #5, #10, ...

........................................................................
.............................. CYCLE   30 ..............................
........................................................................

 iter      E             dE          RMSdq      gap      omega  full diag
   1    -71.2474502 -0.712475E+02  0.167E-02    3.00       0.0  T
   2    -71.2474503 -0.107917E-06  0.972E-03    3.00       1.6  T
   3    -71.2474503  0.361941E-07  0.151E-03    3.00      10.1  T
   4    -71.2474503 -0.680381E-07  0.593E-04    3.00      25.7  T
   5    -71.2474503 -0.586255E-08  0.251E-04    3.00      60.6  T
     SCC iter.                  ...        0 min,  0.012 sec
     gradient                   ...        0 min,  0.064 sec
 * total energy  :   -70.3177724 Eh     change       -0.1336121E-04 Eh
   gradient norm :     0.0005027 Eh/α   predicted    -0.5112209E-05 ( -61.74%)
   displ. norm   :     0.0660192 α      lambda       -0.8027888E-05
   maximum displ.:     0.0551256 α      in ANC's #1, #5, #10, ...

........................................................................
.............................. CYCLE   31 ..............................
........................................................................

 iter      E             dE          RMSdq      gap      omega  full diag
   1    -71.2474257 -0.712474E+02  0.144E-02    3.00       0.0  T
   2    -71.2474258 -0.920580E-07  0.834E-03    3.00       1.8  T
   3    -71.2474257  0.309587E-07  0.146E-03    3.00      10.4  T
   4    -71.2474258 -0.573409E-07  0.556E-04    3.00      27.4  T
   5    -71.2474258 -0.476129E-08  0.239E-04    3.00      63.7  T
     SCC iter.                  ...        0 min,  0.012 sec
     gradient                   ...        0 min,  0.067 sec
 * total energy  :   -70.3177828 Eh     change       -0.1048820E-04 Eh
   gradient norm :     0.0004334 Eh/α   predicted    -0.4023149E-05 ( -61.64%)
   displ. norm   :     0.0507687 α      lambda       -0.5805632E-05
   maximum displ.:     0.0434565 α      in ANC's #1, #5, #4, ...

........................................................................
.............................. CYCLE   32 ..............................
........................................................................

 iter      E             dE          RMSdq      gap      omega  full diag
   1    -71.2474020 -0.712474E+02  0.102E-02    3.01       0.0  T
   2    -71.2474021 -0.414524E-07  0.592E-03    3.01       2.6  T
   3    -71.2474021  0.134208E-07  0.105E-03    3.01      14.5  T
   4    -71.2474021 -0.244796E-07  0.440E-04    3.01      34.7  T
   5    -71.2474021 -0.254136E-08  0.177E-04    3.01      86.4  T
     SCC iter.                  ...        0 min,  0.012 sec
     gradient                   ...        0 min,  0.068 sec
 * total energy  :   -70.3177908 Eh     change       -0.8001340E-05 Eh
   gradient norm :     0.0003604 Eh/α   predicted    -0.2908570E-05 ( -63.65%)
   displ. norm   :     0.0422751 α      lambda       -0.5151623E-05
   maximum displ.:     0.0364205 α      in ANC's #1, #8, #4, ...

........................................................................
.............................. CYCLE   33 ..............................
........................................................................

 iter      E             dE          RMSdq      gap      omega  full diag
   1    -71.2474091 -0.712474E+02  0.741E-03    3.01       0.0  T
   2    -71.2474092 -0.244026E-07  0.426E-03    3.01       3.6  T
   3    -71.2474091  0.103537E-07  0.898E-04    3.01      17.0  T
   4    -71.2474092 -0.169356E-07  0.402E-04    3.01      38.0  T
     SCC iter.                  ...        0 min,  0.009 sec
     gradient                   ...        0 min,  0.029 sec
 * total energy  :   -70.3177983 Eh     change       -0.7434610E-05 Eh
   gradient norm :     0.0003347 Eh/α   predicted    -0.2578962E-05 ( -65.31%)
   displ. norm   :     0.0476394 α      lambda       -0.6201814E-05
   maximum displ.:     0.0395141 α      in ANC's #1, #8, #4, ...

........................................................................
.............................. CYCLE   34 ..............................
........................................................................

 iter      E             dE          RMSdq      gap      omega  full diag
   1    -71.2473866 -0.712474E+02  0.796E-03    3.01       0.0  T
   2    -71.2473866 -0.267125E-07  0.454E-03    3.01       3.4  T
   3    -71.2473866  0.141292E-07  0.101E-03    3.01      15.2  T
   4    -71.2473866 -0.213665E-07  0.475E-04    3.01      32.1  T
   5    -71.2473866 -0.276115E-08  0.123E-04    3.01     123.5  T
     SCC iter.                  ...        0 min,  0.012 sec
     gradient                   ...        0 min,  0.029 sec
 * total energy  :   -70.3178072 Eh     change       -0.8920756E-05 Eh
   gradient norm :     0.0003097 Eh/α   predicted    -0.3105714E-05 ( -65.19%)
   displ. norm   :     0.0650999 α      lambda       -0.8212417E-05
   maximum displ.:     0.0517704 α      in ANC's #1, #8, #12, ...

........................................................................
.............................. CYCLE   35 ..............................
........................................................................

 iter      E             dE          RMSdq      gap      omega  full diag
   1    -71.2473571 -0.712474E+02  0.109E-02    3.01       0.0  T
   2    -71.2473571 -0.525751E-07  0.618E-03    3.01       2.5  T
   3    -71.2473571  0.228263E-07  0.141E-03    3.01      10.8  T
   4    -71.2473571 -0.381328E-07  0.669E-04    3.01      22.8  T
   5    -71.2473571 -0.448911E-08  0.158E-04    3.01      96.6  T
     SCC iter.                  ...        0 min,  0.012 sec
     gradient                   ...        0 min,  0.062 sec
 * total energy  :   -70.3178187 Eh     change       -0.1150140E-04 Eh
   gradient norm :     0.0003132 Eh/α   predicted    -0.4116800E-05 ( -64.21%)
   displ. norm   :     0.0812127 α      lambda       -0.9285751E-05
   maximum displ.:     0.0640762 α      in ANC's #1, #8, #5, ...

........................................................................
.............................. CYCLE   36 ..............................
........................................................................

 iter      E             dE          RMSdq      gap      omega  full diag
   1    -71.2473229 -0.712473E+02  0.137E-02    3.01       0.0  T
   2    -71.2473230 -0.875621E-07  0.771E-03    3.01       2.0  T
   3    -71.2473230  0.267878E-07  0.167E-03    3.01       9.2  T
   4    -71.2473231 -0.479748E-07  0.824E-04    3.01      18.5  T
   5    -71.2473231 -0.865458E-08  0.183E-04    3.01      83.5  T
     SCC iter.                  ...        0 min,  0.012 sec
     gradient                   ...        0 min,  0.063 sec
 * total energy  :   -70.3178314 Eh     change       -0.1268894E-04 Eh
   gradient norm :     0.0003334 Eh/α   predicted    -0.4659290E-05 ( -63.28%)
   displ. norm   :     0.0818194 α      lambda       -0.8291780E-05
   maximum displ.:     0.0654871 α      in ANC's #1, #8, #5, ...

........................................................................
.............................. CYCLE   37 ..............................
........................................................................

 iter      E             dE          RMSdq      gap      omega  full diag
   1    -71.2472792 -0.712473E+02  0.137E-02    3.01       0.0  T
   2    -71.2472793 -0.870792E-07  0.774E-03    3.01       2.0  T
   3    -71.2472793  0.351611E-07  0.179E-03    3.01       8.5  T
   4    -71.2472793 -0.609632E-07  0.847E-04    3.01      18.0  T
   5    -71.2472793 -0.688362E-08  0.205E-04    3.01      74.4  T
     SCC iter.                  ...        0 min,  0.012 sec
     gradient                   ...        0 min,  0.067 sec
 * total energy  :   -70.3178427 Eh     change       -0.1132403E-04 Eh
   gradient norm :     0.0003562 Eh/α   predicted    -0.4159539E-05 ( -63.27%)
   displ. norm   :     0.0675317 α      lambda       -0.6404475E-05
   maximum displ.:     0.0558771 α      in ANC's #1, #5, #8, ...

........................................................................
.............................. CYCLE   38 ..............................
........................................................................

 iter      E             dE          RMSdq      gap      omega  full diag
   1    -71.2473147 -0.712473E+02  0.115E-02    3.01       0.0  T
   2    -71.2473147 -0.639750E-07  0.648E-03    3.01       2.4  T
   3    -71.2473147  0.259735E-07  0.146E-03    3.01      10.5  T
   4    -71.2473148 -0.430530E-07  0.691E-04    3.01      22.1  T
   5    -71.2473148 -0.561491E-08  0.158E-04    3.01      96.7  T
     SCC iter.                  ...        0 min,  0.012 sec
     gradient                   ...        0 min,  0.029 sec
 * total energy  :   -70.3178517 Eh     change       -0.9008025E-05 Eh
   gradient norm :     0.0003206 Eh/α   predicted    -0.3211247E-05 ( -64.35%)
   displ. norm   :     0.0533264 α      lambda       -0.5221143E-05
   maximum displ.:     0.0459984 α      in ANC's #1, #5, #6, ...

........................................................................
.............................. CYCLE   39 ..............................
........................................................................

 iter      E             dE          RMSdq      gap      omega  full diag
   1    -71.2473309 -0.712473E+02  0.930E-03    3.01       0.0  T
   2    -71.2473310 -0.410343E-07  0.528E-03    3.01       2.9  T
   3    -71.2473309  0.173384E-07  0.117E-03    3.01      13.0  T
   4    -71.2473310 -0.293052E-07  0.536E-04    3.01      28.5  T
   5    -71.2473310 -0.320760E-08  0.146E-04    3.01     104.2  T
     SCC iter.                  ...        0 min,  0.012 sec
     gradient                   ...        0 min,  0.029 sec
 * total energy  :   -70.3178593 Eh     change       -0.7580216E-05 Eh
   gradient norm :     0.0002758 Eh/α   predicted    -0.2614976E-05 ( -65.50%)
   displ. norm   :     0.0467032 α      lambda       -0.4973729E-05
   maximum displ.:     0.0410411 α      in ANC's #1, #5, #2, ...

........................................................................
.............................. CYCLE   40 ..............................
........................................................................

 iter      E             dE          RMSdq      gap      omega  full diag
   1    -71.2473652 -0.712474E+02  0.862E-03    3.01       0.0  T
   2    -71.2473652 -0.326962E-07  0.493E-03    3.01       3.1  T
   3    -71.2473652  0.150467E-07  0.104E-03    3.01      14.7  T
   4    -71.2473652 -0.249895E-07  0.454E-04    3.01      33.6  T
   5    -71.2473652 -0.235630E-08  0.138E-04    3.01     110.5  T
     SCC iter.                  ...        0 min,  0.052 sec
     gradient                   ...        0 min,  0.029 sec
 * total energy  :   -70.3178666 Eh     change       -0.7281521E-05 Eh
   gradient norm :     0.0002334 Eh/α   predicted    -0.2493469E-05 ( -65.76%)
   displ. norm   :     0.0502004 α      lambda       -0.5602612E-05
   maximum displ.:     0.0434948 α      in ANC's #1, #2, #5, ...

........................................................................
.............................. CYCLE   41 ..............................
........................................................................

 iter      E             dE          RMSdq      gap      omega  full diag
   1    -71.2473763 -0.712474E+02  0.965E-03    3.02       0.0  T
   2    -71.2473763 -0.382889E-07  0.555E-03    3.02       2.7  T
   3    -71.2473763  0.150332E-07  0.105E-03    3.02      14.6  T
   4    -71.2473763 -0.265476E-07  0.456E-04    3.02      33.4  T
   5    -71.2473763 -0.259062E-08  0.143E-04    3.02     106.4  T
     SCC iter.                  ...        0 min,  0.012 sec
     gradient                   ...        0 min,  0.068 sec
 * total energy  :   -70.3178747 Eh     change       -0.8147796E-05 Eh
   gradient norm :     0.0002251 Eh/α   predicted    -0.2805210E-05 ( -65.57%)
   displ. norm   :     0.0595892 α      lambda       -0.6556259E-05
   maximum displ.:     0.0501554 α      in ANC's #1, #2, #12, ...

........................................................................
.............................. CYCLE   42 ..............................
........................................................................

 iter      E             dE          RMSdq      gap      omega  full diag
   1    -71.2473876 -0.712474E+02  0.115E-02    3.02       0.0  T
   2    -71.2473877 -0.492572E-07  0.670E-03    3.02       2.3  T
   3    -71.2473877  0.224027E-07  0.120E-03    3.02      12.7  T
   4    -71.2473877 -0.384718E-07  0.495E-04    3.02      30.8  T
   5    -71.2473877 -0.266603E-08  0.171E-04    3.02      89.1  T
     SCC iter.                  ...        0 min,  0.012 sec
     gradient                   ...        0 min,  0.062 sec
 * total energy  :   -70.3178842 Eh     change       -0.9454400E-05 Eh
   gradient norm :     0.0002331 Eh/α   predicted    -0.3284122E-05 ( -65.26%)
   displ. norm   :     0.0706146 α      lambda       -0.7344564E-05
   maximum displ.:     0.0583805 α      in ANC's #1, #2, #12, ...
 * RMSD in coord.:     0.2003984 α      energy gain  -0.3193788E-03 Eh

generating ANC from exact Hessian ...
Using Lindh-Hessian (1995)
 Shifting diagonal of input Hessian by    9.7510122375069203E-003
 Lowest  eigenvalues of input Hessian
    0.000000    0.000000    0.000000    0.000000    0.000000    0.000000
    0.010000    0.010201    0.010714    0.011147    0.011618    0.012080
    0.012841    0.013207    0.014873    0.015441    0.016086    0.016107
 Highest eigenvalues
    2.053152    2.084398    2.149354    2.152600    2.254752    2.514647


........................................................................
.............................. CYCLE   43 ..............................
........................................................................

 iter      E             dE          RMSdq      gap      omega  full diag
   1    -71.2474133 -0.712474E+02  0.137E-02    3.02       0.0  T
   2    -71.2474134 -0.667725E-07  0.793E-03    3.02       1.9  T
   3    -71.2474134  0.239756E-07  0.132E-03    3.02      11.5  T
   4    -71.2474134 -0.450354E-07  0.562E-04    3.02      27.1  T
   5    -71.2474134 -0.359495E-08  0.187E-04    3.02      81.4  T
     SCC iter.                  ...        0 min,  0.012 sec
     gradient                   ...        0 min,  0.068 sec
 * total energy  :   -70.3178948 Eh     change       -0.1059263E-04 Eh
   gradient norm :     0.0002492 Eh/α   predicted     0.0000000E+00 (-100.00%)
   displ. norm   :     0.0258074 α      lambda       -0.9425950E-07
   maximum displ.:     0.0249681 α      in ANC's #1, #5, #6, ...

........................................................................
.............................. CYCLE   44 ..............................
........................................................................

 iter      E             dE          RMSdq      gap      omega  full diag
   1    -71.2474778 -0.712475E+02  0.394E-03    3.02       0.0  T
   2    -71.2474778 -0.510775E-08  0.231E-03    3.02       6.6  T
   3    -71.2474778  0.995458E-08  0.553E-04    3.02      27.6  T
   4    -71.2474778 -0.123634E-07  0.135E-04    3.02     113.2  T
     SCC iter.                  ...        0 min,  0.009 sec
     gradient                   ...        0 min,  0.062 sec
 * total energy  :   -70.3178993 Eh     change       -0.4524039E-05 Eh
   gradient norm :     0.0001922 Eh/α   predicted    -0.1549937E-05 ( -65.74%)
   displ. norm   :     0.0306042 α      lambda       -0.3489509E-05
   maximum displ.:     0.0282625 α      in ANC's #1, #6, #2, ...

   *** GEOMETRY OPTIMIZATION CONVERGED AFTER 44 ITERATIONS ***

------------------------------------------------------------------------
 total energy gain   :        -0.0165581 Eh      -10.3904 kcal/mol
 total RMSD          :         0.7492847 a0        0.3965 Å
 total power (kW/mol):        -0.9880315 (step)  -11.5264 (real)
------------------------------------------------------------------------

 ANCopt (total)                0 d,  0 h,  0 min,  3.772 sec
 optimizer setup                ...        0 min,  0.000 sec (  0.002%)
 model hessian                  ...        0 min,  0.055 sec (  1.456%)
 ANC generation                 ...        0 min,  0.005 sec (  0.121%)
 coordinate transformation      ...        0 min,  0.000 sec (  0.008%)
 single point calculation       ...        0 min,  3.701 sec ( 98.127%)
 optimization log               ...        0 min,  0.006 sec (  0.171%)
 hessian update                 ...        0 min,  0.001 sec (  0.015%)
 rational function              ...        0 min,  0.002 sec (  0.065%)

================
 final structure:
================
43
 xtb: 6.7.1 (edcfbbe)
C           -1.97908168144327       -0.85671099084842        2.68299559671729
C           -1.86781462925935        0.26189505498292        1.69547803687462
C           -2.02564500642913        0.05409031958175        0.32159567409795
O           -2.33970684961114       -1.20558785432237       -0.15213598647672
C           -1.22902196797757       -2.05619781839923       -0.34959785676275
C           -1.93183166126150        1.12603741927305       -0.57058002138454
C           -2.10685023234802        0.90583812339508       -2.04037584291274
C           -1.62455999302399        1.56543532593264        2.10539263573069
N           -1.52782139019745        2.58717950426902        1.28105526541185
C           -1.67194171218778        2.38936367429301       -0.02327264468244
C           -1.47703572022222        3.60205365077201       -0.86075211896123
S            0.34717139845296        4.05269443555025       -1.00965630477873
C            0.93189695778664        2.35929376700332       -0.81381941920727
N            1.05431181078436        1.45110408624823       -1.73645461025595
C            1.54426194670245        0.34634041446570       -1.08264626428305
C            1.70920791487341        0.64778084880633        0.29412379795456
N            1.32236619564500        1.95634459762734        0.42131503906944
C            2.17063622231305       -0.30253711152967        1.18533157964258
C            2.47778700514179       -1.55473870854761        0.68742657690233
C            2.33537318529408       -1.85966688764603       -0.67445536167184
O            2.62634704108185       -3.07788102531888       -1.21712782714212
C            3.15850116827817       -4.08494292146968       -0.39275293930814
C            1.86325921740547       -0.91011011154891       -1.57241826416728
O            0.73658656202178        4.67072771143023        0.25625168479419
H           -0.99434414368347       -1.27406771051739        2.89862662829609
H           -2.61082158839504       -1.64739831347035        2.28491932679109
H           -2.40320481792284       -0.49438124141734        3.61672454468159
H           -0.63445395728734       -2.16579835079654        0.56273010699977
H           -0.57756147593339       -1.68125438068972       -1.14527444161992
H           -1.63908961348707       -3.02305025376360       -0.63598909226267
H           -2.43971529624884       -0.11282951976994       -2.21928073400735
H           -2.85065647158113        1.58795328281578       -2.44863290436258
H           -1.16000454249718        1.06783013854544       -2.55660444214591
H           -1.50472196850369        1.80104001205949        3.15519456524356
H           -1.91805882249863        4.47596984967775       -0.38537233703154
H           -1.82771757861582        3.48536566154202       -1.88037900766242
H            1.27761607153897        2.54434361999272        1.23967214254469
H            2.29091170716903       -0.07950310250626        2.23431880719293
H            2.83911149646709       -2.30438465353181        1.37301580574653
H            2.45358106433951       -4.38179161975282        0.39105967389921
H            4.10408813971282       -3.77575554994905        0.06426349053193
H            3.33960822368151       -4.93414972688413       -1.04986301156559
H            1.75933779191508       -1.15574364558539       -2.61554954645735

 Bond Distances (Angstroems)
 ---------------------------
C1-C2=1.4963         C1-H25=1.0911        C1-H26=1.0875        C1-H27=1.0877        C2-C1=1.4963         C2-C3=1.3984         
C2-C8=1.3880         C3-C2=1.3984         C3-O4=1.3820         C3-C6=1.3978         O4-C3=1.3820         O4-C5=1.4129         
C5-O4=1.4129         C5-H28=1.0945        C5-H29=1.0946        C5-H30=1.0886        C6-C3=1.3978         C6-C7=1.4965         
C6-C10=1.4011        C7-C6=1.4965         C7-H31=1.0865        C7-H32=1.0887        C7-H33=1.0905        C8-C2=1.3880         
C8-N9=1.3164         C8-H34=1.0826        N9-C8=1.3164         N9-C10=1.3271        C10-C6=1.4011        C10-N9=1.3271        
C10-C11=1.4866       C11-C10=1.4866       C11-S12=1.8849       C11-H35=1.0882       C11-H36=1.0845       S12-C11=1.8849       
S12-C13=1.8022       S12-O24=1.4616       C13-S12=1.8022       C13-N14=1.3004       C13-N17=1.3566       N14-C13=1.3004       
N14-C15=1.3741       C15-N14=1.3741       C15-C16=1.4190       C15-C23=1.3858       C16-C15=1.4190       C16-N17=1.3705       
C16-C18=1.3821       N17-C13=1.3566       N17-C16=1.3705       N17-H37=1.0087       C18-C16=1.3821       C18-C19=1.3821       
C18-H38=1.0792       C19-C18=1.3821       C19-C20=1.4028       C19-H39=1.0782       C20-C19=1.4028       C20-O21=1.3650       
C20-C23=1.3896       O21-C20=1.3650       O21-C22=1.4060       C22-O21=1.4060       C22-H40=1.0952       C22-H41=1.0948       
C22-H42=1.0889       C23-C15=1.3858       C23-C20=1.3896       C23-H43=1.0767       O24-S12=1.4616       H25-C1=1.0911        
H26-C1=1.0875        H27-C1=1.0877        H28-C5=1.0945        H29-C5=1.0946        H30-C5=1.0886        H31-C7=1.0865        
H32-C7=1.0887        H33-C7=1.0905        H34-C8=1.0826        H35-C11=1.0882       H36-C11=1.0845       H37-N17=1.0087       
H38-C18=1.0792       H39-C19=1.0782       H40-C22=1.0952       H41-C22=1.0948       H42-C22=1.0889       H43-C23=1.0767       
 C  H  Rav=1.0877 sigma=0.0055  Rmin=1.0767  Rmax=1.0952    18
 C  C  Rav=1.4174 sigma=0.0426  Rmin=1.3821  Rmax=1.4965    13
 N  H  Rav=1.0087 sigma=0.0000  Rmin=1.0087  Rmax=1.0087     1
 N  C  Rav=1.3408 sigma=0.0278  Rmin=1.3004  Rmax=1.3741     6
 O  C  Rav=1.3915 sigma=0.0191  Rmin=1.3650  Rmax=1.4129     4
 S  C  Rav=1.8436 sigma=0.0414  Rmin=1.8022  Rmax=1.8849     2
 S  O  Rav=1.4616 sigma=0.0000  Rmin=1.4616  Rmax=1.4616     1

 selected bond angles (degree)
 --------------------
H25-C1-C2=110.44               H26-C1-C2=110.19               H26-C1-H25=108.57              H27-C1-C2=110.28               
H27-C1-H25=108.04              H27-C1-H26=109.26              C3-C2-C1=121.93                C8-C2-C1=121.35                
C8-C2-C3=116.71                O4-C3-C2=119.86                C6-C3-C2=120.37                C6-C3-O4=119.70                
C5-O4-C3=114.71                H28-C5-O4=111.77               H29-C5-O4=111.30               H29-C5-H28=108.48              
H30-C5-O4=105.98               H30-C5-H28=109.57              H30-C5-H29=109.71              C7-C6-C3=120.41                
C10-C6-C3=117.04               C10-C6-C7=122.55               H31-C7-C6=109.60               H32-C7-C6=110.86               
H32-C7-H31=108.44              H33-C7-C6=109.97               H33-C7-H31=109.11              H33-C7-H32=108.82              
N9-C8-C2=123.84                H34-C8-C2=120.68               H34-C8-N9=115.48               C10-N9-C8=119.46               
N9-C10-C6=122.58               C11-C10-C6=122.67              C11-C10-N9=114.70              

 selected dihedral angles (degree)
 ---------------------------------
C3-C2-C1-H25= 93.93           C3-C2-C1-H26=333.97           C3-C2-C1-H27=213.27           C8-C2-C1-H25=272.79           
C8-C2-C1-H26=152.84           C8-C2-C1-H27= 32.14           O4-C3-C2-C1=  2.30            O4-C3-C2-C8=183.38            
C6-C3-C2-C1=179.18            C6-C3-C2-C8=  0.26            C5-O4-C3-C2=275.10            C5-O4-C3-C6= 98.20            
H28-C5-O4-C3= 55.90           H29-C5-O4-C3=294.44           H30-C5-O4-C3=175.22           C7-C6-C3-C2=180.28            
C7-C6-C3-O4=357.17            C10-C6-C3-C2=  0.23           C10-C6-C3-O4=177.11           H31-C7-C6-C3=  8.11           
H31-C7-C6-C10=188.17          H32-C7-C6-C3=127.78           H32-C7-C6-C10=307.85          H33-C7-C6-C3=248.17           
H33-C7-C6-C10= 68.23          N9-C8-C2-C1=180.54            N9-C8-C2-C3=359.47            H34-C8-C2-C1=  0.29           
H34-C8-C2-C3=179.22           C10-N9-C8-C2=  0.26           C10-N9-C8-H34=180.50          N9-C10-C6-C3=359.48           
N9-C10-C6-C7=179.42           C11-C10-C6-C3=176.73          C11-C10-C6-C7=356.67          C6-C10-N9-C8=  0.29           
C11-C10-N9-C8=182.84          
           -------------------------------------------------
          |                Final Singlepoint                |
           -------------------------------------------------

          ...................................................
          :                      SETUP                      :
          :.................................................:
          :  # basis functions                 121          :
          :  # atomic orbitals                 120          :
          :  # shells                           68          :
          :  # electrons                       126          :
          :  max. iterations                   250          :
          :  Hamiltonian                  GFN2-xTB          :
          :  restarted?                      false          :
          :  GBSA solvation                  false          :
          :  PC potential                    false          :
          :  electronic temp.          300.0000000     K    :
          :  accuracy                    1.0000000          :
          :  -> integral cutoff          0.2500000E+02      :
          :  -> integral neglect         0.1000000E-07      :
          :  -> SCF convergence          0.1000000E-05 Eh   :
          :  -> wf. convergence          0.1000000E-03 e    :
          :  Broyden damping             0.4000000          :
          :  net charge                          0          :
          :  unpaired electrons                  0          :
          ...................................................

 iter      E             dE          RMSdq      gap      omega  full diag
   1    -71.2474778 -0.712475E+02  0.611E-05    3.02       0.0  T
   2    -71.2474778 -0.238032E-10  0.388E-05    3.02     393.0  T
   3    -71.2474778 -0.178488E-10  0.244E-05    3.02     624.6  T

   *** convergence criteria satisfied after 3 iterations ***

         #    Occupation            Energy/Eh            Energy/eV
      -------------------------------------------------------------
         1        2.0000           -0.7619185             -20.7329
       ...           ...                  ...                  ...
        57        2.0000           -0.4099536             -11.1554
        58        2.0000           -0.4087672             -11.1231
        59        2.0000           -0.4003528             -10.8942
        60        2.0000           -0.3972292             -10.8092
        61        2.0000           -0.3866269             -10.5207
        62        2.0000           -0.3810525             -10.3690
        63        2.0000           -0.3729234             -10.1478 (HOMO)
        64                         -0.2619908              -7.1291 (LUMO)
        65                         -0.2510559              -6.8316
        66                         -0.2406021              -6.5471
        67                         -0.2120653              -5.7706
        68                         -0.2086170              -5.6768
       ...                                ...                  ...
       120                          0.9186038              24.9965
      -------------------------------------------------------------
                  HL-Gap            0.1109326 Eh            3.0186 eV
             Fermi-level           -0.3174571 Eh           -8.6384 eV

 SCC (total)                   0 d,  0 h,  0 min,  0.046 sec
 SCC setup                      ...        0 min,  0.000 sec (  0.686%)
 Dispersion                     ...        0 min,  0.000 sec (  0.653%)
 classical contributions        ...        0 min,  0.000 sec (  0.333%)
 integral evaluation            ...        0 min,  0.009 sec ( 20.163%)
 iterations                     ...        0 min,  0.007 sec ( 15.334%)
 molecular gradient             ...        0 min,  0.029 sec ( 62.484%)
 printout                       ...        0 min,  0.000 sec (  0.333%)

         :::::::::::::::::::::::::::::::::::::::::::::::::::::
         ::                     SUMMARY                     ::
         :::::::::::::::::::::::::::::::::::::::::::::::::::::
         :: total energy             -70.317899304983 Eh    ::
         :: gradient norm              0.000199277341 Eh/a0 ::
         :: HOMO-LUMO gap              3.018630142034 eV    ::
         ::.................................................::
         :: SCC energy               -71.245527027489 Eh    ::
         :: -> isotropic ES            0.091231606044 Eh    ::
         :: -> anisotropic ES          0.006040445040 Eh    ::
         :: -> anisotropic XC          0.029456695050 Eh    ::
         :: -> dispersion             -0.057050100417 Eh    ::
         :: repulsion energy           0.927627722506 Eh    ::
         :: add. restraining           0.000000000000 Eh    ::
         :: total charge               0.000000000000 e     ::
         :::::::::::::::::::::::::::::::::::::::::::::::::::::

           -------------------------------------------------
          |                Property Printout                |
           -------------------------------------------------

    * Orbital Energies and Occupations

         #    Occupation            Energy/Eh            Energy/eV
      -------------------------------------------------------------
         1        2.0000           -0.7619185             -20.7329
       ...           ...                  ...                  ...
        51        2.0000           -0.4575044             -12.4493
        52        2.0000           -0.4507523             -12.2656
        53        2.0000           -0.4471155             -12.1666
        54        2.0000           -0.4420890             -12.0299
        55        2.0000           -0.4243684             -11.5477
        56        2.0000           -0.4192415             -11.4081
        57        2.0000           -0.4099536             -11.1554
        58        2.0000           -0.4087672             -11.1231
        59        2.0000           -0.4003528             -10.8942
        60        2.0000           -0.3972292             -10.8092
        61        2.0000           -0.3866269             -10.5207
        62        2.0000           -0.3810525             -10.3690
        63        2.0000           -0.3729234             -10.1478 (HOMO)
        64                         -0.2619908              -7.1291 (LUMO)
        65                         -0.2510559              -6.8316
        66                         -0.2406021              -6.5471
        67                         -0.2120653              -5.7706
        68                         -0.2086170              -5.6768
        69                         -0.1928513              -5.2478
        70                         -0.1612397              -4.3876
        71                         -0.1187849              -3.2323
        72                         -0.0907821              -2.4703
        73                         -0.0604865              -1.6459
        74                          0.0056288               0.1532
       ...                                ...                  ...
       120                          0.9186038              24.9965
      -------------------------------------------------------------
                  HL-Gap            0.1109326 Eh            3.0186 eV
             Fermi-level           -0.3174571 Eh           -8.6384 eV

     #   Z          covCN         q      C6AA      α(0)
     1   6 C        3.757    -0.102    22.509     6.764
     2   6 C        2.957    -0.019    28.476     8.753
     3   6 C        2.891     0.135    25.042     8.204
     4   8 O        1.703    -0.307    19.115     5.903
     5   6 C        3.652     0.046    20.112     6.440
     6   6 C        2.959    -0.021    28.517     8.759
[...]
   * M. Stahn, S. Ehlert, S. Grimme, J. Phys. Chem. A,
     2023, XX, XXXX-XXXX. DOI: 10.1021/acs.jpca.3c04382
   
   for DFT-D4:
   * E. Caldeweyher, C. Bannwarth and S. Grimme, J. Chem. Phys., 2017,
     147, 034112. DOI: 10.1063/1.4993215
   * E. Caldeweyher, S. Ehlert, A. Hansen, H. Neugebauer, S. Spicher,
     C. Bannwarth and S. Grimme, J. Chem. Phys., 2019, 150, 154122.
     DOI: 10.1063/1.5090222
   * E. Caldeweyher, J.-M. Mewes, S. Ehlert and S. Grimme, Phys. Chem. Chem. Phys.
     2020, 22, 8499-8512. DOI: 10.1039/D0CP00502A
   
   for sTDA-xTB:
   * S. Grimme and C. Bannwarth, J. Chem. Phys., 2016, 145, 054103.
     DOI: 10.1063/1.4959605
   
   in the mass-spec context:
   * V. Asgeirsson, C. Bauer and S. Grimme, Chem. Sci., 2017, 8, 4879.
     DOI: 10.1039/c7sc00601b
   * J. Koopman and S. Grimme, ACS Omega 2019, 4, 12, 15120-15133.
     DOI: 10.1021/acsomega.9b02011
   
   for metadynamics refer to:
   * S. Grimme, J. Chem. Theory Comput., 2019, 155, 2847-2862
     DOI: 10.1021/acs.jctc.9b00143
   
   for SPH calculations refer to:
   * S. Spicher and S. Grimme, J. Chem. Theory Comput., 2021, 17, 1701-1714
     DOI: 10.1021/acs.jctc.0c01306
   
   for ONIOM refer to:
   * C. Plett, A. Katbashev, S. Ehlert, S. Grimme, M. Bursch,
     Phys. Chem. Chem. Phys., 2023, 25, 17860-17868. DOI: 10.1039/D3CP02178E
   
   for DIPRO refer to:
   * J. Kohn, N. Gildemeister, S. Grimme, D. Fazzi, A. Hansen,
     J. Chem. Phys., 2023, just accepted.
   
   for PTB refer to:
   * S. Grimme, M. Mueller, A. Hansen, J. Chem. Phys., 2023, 158, 124111.
     DOI: 10.1063/5.0137838
   
   with help from (in alphabetical order)
   P. Atkinson, C. Bannwarth, F. Bohle, G. Brandenburg, E. Caldeweyher
   M. Checinski, S. Dohm, S. Ehlert, S. Ehrlich, I. Gerasimov, C. Hölzer
   A. Katbashev, J. Kohn, J. Koopman, C. Lavigne, S. Lehtola, F. März, M. Müller,
   F. Musil, H. Neugebauer, J. Pisarek, C. Plett, P. Pracht, F. Pultar,
   J. Seibert, P. Shushkov, S. Spicher, M. Stahn, M. Steiner, T. Strunk,
   J. Stückrath, T. Rose, and J. Unsleber
   
 * started run on 2025/05/15 at 16:37:42.229     
   ID    Z sym.   atoms
    1    6 C      1-3, 5-8, 10, 11, 13, 15, 16, 18-20, 22, 23
    2    8 O      4, 21, 24
    3    7 N      9, 14, 17
    4   16 S      12
    5    1 H      25-43

           -------------------------------------------------
          |                Calculation Setup                |
           -------------------------------------------------

          program call               : xtb /rds/general/user/hgt20/home/callum/QDESCP/Omeprazole_rdkit_conf_18/Omeprazole_rdkit_conf_18.xyz --acc 1 --gfn 2 --chrg 0 --uhf 2 --etemp 300 --input /rds/general/user/hgt20/home/callum/QDESCP/Omeprazole_rdkit_conf_18/Omeprazole_rdkit_conf_18_xtb.inp -P 1
          hostname                   : login-c
          coordinate file            : /rds/general/user/hgt20/home/callum/QDESCP/Omeprazole_rdkit_conf_18/Omeprazole_rdkit_conf_18.xyz
          omp threads                :                     1


           -------------------------------------------------
          |                 G F N 2 - x T B                 |
           -------------------------------------------------

        Reference                      10.1021/acs.jctc.8b01176
      * Hamiltonian:
        H0-scaling (s, p, d)           1.850000    2.230000    2.230000
        zeta-weighting                 0.500000
      * Dispersion:
        s8                             2.700000
        a1                             0.520000
        a2                             5.000000
        s9                             5.000000
      * Repulsion:
        kExp                           1.500000    1.000000
        rExp                           1.000000
      * Coulomb:
        alpha                          2.000000
        third order                    shell-resolved
        anisotropic                    true
        a3                             3.000000
        a5                             4.000000
        cn-shift                       1.200000
        cn-exp                         4.000000
        max-rad                        5.000000


          ...................................................
          :                      SETUP                      :
          :.................................................:
          :  # basis functions                 121          :
          :  # atomic orbitals                 120          :
          :  # shells                           68          :
          :  # electrons                       126          :
          :  max. iterations                   250          :
          :  Hamiltonian                  GFN2-xTB          :
          :  restarted?                      false          :
          :  GBSA solvation                  false          :
          :  PC potential                    false          :
          :  electronic temp.          300.0000000     K    :
          :  accuracy                    1.0000000          :
          :  -> integral cutoff          0.2500000E+02      :
          :  -> integral neglect         0.1000000E-07      :
          :  -> SCF convergence          0.1000000E-05 Eh   :
          :  -> wf. convergence          0.1000000E-03 e    :
          :  Broyden damping             0.4000000          :
          :  net charge                          0          :
          :  unpaired electrons                  2          :
          ...................................................

 iter      E             dE          RMSdq      gap      omega  full diag
   1    -70.9477996 -0.709478E+02  0.447E+00    0.31       0.0  T
   2    -70.8726997  0.750999E-01  0.320E+00    0.43       1.0  T
   3    -70.7790437  0.936560E-01  0.251E+00    1.08       1.0  T
   4    -71.0286940 -0.249650E+00  0.140E+00    0.12       1.0  T
   5    -70.9939997  0.346943E-01  0.143E+00    0.18       1.0  T
   6    -71.1158356 -0.121836E+00  0.604E-01    0.08       1.0  T
   7    -71.0523360  0.634996E-01  0.952E-01    0.35       1.0  T
   8    -71.0750925 -0.227565E-01  0.716E-01    0.07       1.0  T
   9    -71.0817524 -0.665995E-02  0.688E-01    0.24       1.0  T
  10    -71.1214656 -0.397131E-01  0.249E-01    0.10       1.0  T
  11    -71.1244247 -0.295915E-02  0.140E-01    0.12       1.0  T
  12    -71.1227096  0.171515E-02  0.171E-01    0.08       1.0  T
  13    -71.1248819 -0.217237E-02  0.841E-02    0.11       1.0  T
  14    -71.1248995 -0.175816E-04  0.605E-02    0.09       1.0  T
  15    -71.1250677 -0.168228E-03  0.436E-02    0.10       1.0  T
  16    -71.1251333 -0.655828E-04  0.323E-02    0.10       1.0  T
  17    -71.1252141 -0.807278E-04  0.124E-02    0.10       1.2  T
  18    -71.1252058  0.827186E-05  0.135E-02    0.10       1.1  T
  19    -71.1252231 -0.173082E-04  0.212E-03    0.10       7.2  T
  20    -71.1252204  0.264533E-05  0.544E-03    0.10       2.8  T
  21    -71.1252232 -0.274879E-05  0.110E-03    0.10      13.9  T
  22    -71.1252233 -0.770642E-07  0.561E-04    0.10      27.2  T
  23    -71.1252233 -0.200502E-07  0.339E-04    0.10      45.1  T

   *** convergence criteria satisfied after 23 iterations ***

         #    Occupation            Energy/Eh            Energy/eV
      -------------------------------------------------------------
         1        2.0000           -0.7556704             -20.5628
       ...           ...                  ...                  ...
        58        2.0000           -0.4049731             -11.0199
        59        2.0000           -0.3942718             -10.7287
        60        1.9999           -0.3888566             -10.5813
        61        1.9936           -0.3852520             -10.4832
        62        1.5997           -0.3808384             -10.3631
        63        1.4068           -0.3800957             -10.3429
        64        0.8683           -0.2523103              -6.8657 (HOMO)
        65        0.1317           -0.2487272              -6.7682 (LUMO)
        66        0.0000           -0.2388204              -6.4986
        67                         -0.2103138              -5.7229
        68                         -0.2018273              -5.4920
        69                         -0.1831510              -4.9838
       ...                                ...                  ...
       120                          0.9219269              25.0869
      -------------------------------------------------------------
                  HL-Gap            0.0035831 Eh            0.0975 eV
             Fermi-level           -0.3154865 Eh           -8.5848 eV

 transition dipole moment (au) for excitation:          63          64
     X       Y       Z   
  -0.6878   0.4788  -0.3341  total (au/Debye):    0.902   2.293
 dE (eV)             :    3.477
 oscillator strength :  0.98062E-01

 SCC (total)                   0 d,  0 h,  0 min,  0.107 sec
 SCC setup                      ...        0 min,  0.000 sec (  0.351%)
 Dispersion                     ...        0 min,  0.000 sec (  0.457%)
 classical contributions        ...        0 min,  0.000 sec (  0.143%)
 integral evaluation            ...        0 min,  0.010 sec (  9.178%)
 iterations                     ...        0 min,  0.056 sec ( 52.348%)
 molecular gradient             ...        0 min,  0.030 sec ( 28.443%)
 printout                       ...        0 min,  0.010 sec (  9.075%)

         :::::::::::::::::::::::::::::::::::::::::::::::::::::
         ::                     SUMMARY                     ::
         :::::::::::::::::::::::::::::::::::::::::::::::::::::
         :: total energy             -70.195644799993 Eh    ::
         :: gradient norm              0.091113529204 Eh/a0 ::
         :: HOMO-LUMO gap              0.097500044665 eV    ::
         ::.................................................::
         :: SCC energy               -71.123272522500 Eh    ::
         :: -> isotropic ES            0.084980059078 Eh    ::
         :: -> anisotropic ES          0.005411739004 Eh    ::
         :: -> anisotropic XC          0.025014262810 Eh    ::
         :: -> dispersion             -0.057057441310 Eh    ::
         :: repulsion energy           0.927627722506 Eh    ::
         :: add. restraining           0.000000000000 Eh    ::
         :: total charge               0.000000000000 e     ::
         :::::::::::::::::::::::::::::::::::::::::::::::::::::

           -------------------------------------------------
          |                Property Printout                |
           -------------------------------------------------

    * Orbital Energies and Occupations

         #    Occupation            Energy/Eh            Energy/eV
      -------------------------------------------------------------
         1        2.0000           -0.7556704             -20.5628
       ...           ...                  ...                  ...
        52        2.0000           -0.4489659             -12.2170
        53        2.0000           -0.4450593             -12.1107
        54        2.0000           -0.4394885             -11.9591
        55        2.0000           -0.4231926             -11.5157
        56        2.0000           -0.4167939             -11.3415
        57        2.0000           -0.4074718             -11.0879
        58        2.0000           -0.4049731             -11.0199
        59        2.0000           -0.3942718             -10.7287
        60        1.9999           -0.3888566             -10.5813
        61        1.9936           -0.3852520             -10.4832
        62        1.5997           -0.3808384             -10.3631
        63        1.4068           -0.3800957             -10.3429
        64        0.8683           -0.2523103              -6.8657 (HOMO)
        65        0.1317           -0.2487272              -6.7682 (LUMO)
        66        0.0000           -0.2388204              -6.4986
        67                         -0.2103138              -5.7229
        68                         -0.2018273              -5.4920
        69                         -0.1831510              -4.9838
        70                         -0.1560078              -4.2452
        71                         -0.1167777              -3.1777
        72                         -0.0865645              -2.3555
        73                         -0.0553191              -1.5053
        74                          0.0091574               0.2492
        75                          0.0144160               0.3923
       ...                                ...                  ...
       120                          0.9219269              25.0869
      -------------------------------------------------------------
                  HL-Gap            0.0035831 Eh            0.0975 eV
             Fermi-level           -0.3154865 Eh           -8.5848 eV

     #   Z          covCN         q      C6AA      α(0)
     1   6 C        3.757    -0.101    22.487     6.761
     2   6 C        2.957    -0.022    28.561     8.766
     3   6 C        2.891     0.124    25.269     8.242
     4   8 O        1.703    -0.306    19.095     5.900
     5   6 C        3.652     0.045    20.123     6.442
     6   6 C        2.959    -0.013    28.332     8.731
     7   6 C        3.756    -0.113    22.715     6.795
     8   6 C        2.908     0.037    27.174     8.548
     9   7 N        1.844    -0.207    26.332     7.605
    10   6 C        2.980     0.067    26.484     8.442
    11   6 C        3.800    -0.092    22.255     6.717
    12  16 S        2.853     0.396   125.952    18.889
    13   6 C        3.210     0.087    25.456     8.213
    14   7 N        1.893    -0.297    28.545     7.921
    15   6 C        3.222     0.069    25.750     8.248
    16   6 C        3.102     0.049    26.769     8.478
    17   7 N        2.801    -0.111    23.429     7.189
    18   6 C        2.907    -0.066    29.638     8.927
    19   6 C        2.923    -0.083    30.082     8.994
    20   6 C        2.865     0.144    24.863     8.173
    21   8 O        1.706    -0.242    18.003     5.729
    22   6 C        3.642     0.032    20.388     6.492
    23   6 C        2.911    -0.078    29.960     8.975
    24   8 O        0.860    -0.454    22.797     6.402
    25   1 H        0.924     0.044     2.397     2.421
    26   1 H        0.925     0.061     2.187     2.313
    27   1 H        0.925     0.045     2.379     2.412
    28   1 H        0.924     0.028     2.615     2.529
    29   1 H        0.924     0.038     2.473     2.459
    30   1 H        0.925     0.057     2.235     2.338
    31   1 H        0.925     0.065     2.144     2.290
    32   1 H        0.925     0.049     2.339     2.391
    33   1 H        0.924     0.073     2.049     2.239
    34   1 H        0.925     0.046     2.368     2.406
    35   1 H        0.925     0.081     1.968     2.194
    36   1 H        0.925     0.061     2.183     2.311
    37   1 H        0.860     0.192     1.150     1.680
    38   1 H        0.926     0.031     2.566     2.505
    39   1 H        0.926     0.034     2.530     2.488
    40   1 H        0.924     0.049     2.335     2.390
    41   1 H        0.924     0.052     2.295     2.369
    42   1 H        0.925     0.069     2.094     2.263
    43   1 H        0.926     0.059     2.205     2.322

 Mol. C6AA /au·bohr⁶  :      23680.348314
 Mol. C8AA /au·bohr⁸  :     592519.696538
 Mol. α(0) /au        :        239.897426


Wiberg/Mayer (AO) data.
largest (>0.10) Wiberg bond orders for each atom

 ---------------------------------------------------------------------------
     #   Z sym  total        # sym  WBO       # sym  WBO       # sym  WBO
 ---------------------------------------------------------------------------
     1   6 C    3.988 --     2 C    1.025    27 H    0.980    26 H    0.976
                            25 H    0.966
     2   6 C    3.935 --     8 C    1.392     3 C    1.308     1 C    1.025
     3   6 C    3.874 --     6 C    1.375     2 C    1.308     4 O    1.001
     4   8 O    2.102 --     3 C    1.001     5 C    0.970
     5   6 C    3.941 --    30 H    0.979    28 H    0.978    29 H    0.973
                             4 O    0.970
     6   6 C    3.944 --     3 C    1.375    10 C    1.312     7 C    1.031
     7   6 C    3.985 --     6 C    1.031    31 H    0.978    32 H    0.967
                            33 H    0.954
     8   6 C    3.944 --     9 N    1.419     2 C    1.392    34 H    0.957
     9   7 N    3.020 --     8 C    1.419    10 C    1.327
    10   6 C    3.904 --     9 N    1.327     6 C    1.312    11 C    1.061
    11   6 C    3.915 --    10 C    1.061    36 H    0.969    35 H    0.959
                            12 S    0.761
    12  16 S    3.755 --    24 O    1.780    13 C    0.976    11 C    0.761
    13   6 C    3.832 --    14 N    1.448    17 N    1.144    12 S    0.976
    14   7 N    2.961 --    13 C    1.448    15 C    1.225
    15   6 C    3.951 --    23 C    1.325    14 N    1.225    16 C    1.206
    16   6 C    3.895 --    18 C    1.300    15 C    1.206    17 N    1.199
    17   7 N    3.490 --    16 C    1.199    13 C    1.144    37 H    0.929
    18   6 C    3.858 --    19 C    1.396    16 C    1.300    38 H    0.968
    19   6 C    3.898 --    18 C    1.396    20 C    1.336    39 H    0.966
    20   6 C    3.823 --    19 C    1.336    23 C    1.270    21 O    1.088
    21   8 O    2.211 --    20 C    1.088    22 C    0.986
    22   6 C    3.939 --    21 O    0.986    42 H    0.978    41 H    0.972
                            40 H    0.971
    23   6 C    3.798 --    15 C    1.325    20 C    1.270    43 H    0.965
    24   8 O    1.974 --    12 S    1.780
    25   1 H    0.995 --     1 C    0.966
    26   1 H    0.992 --     1 C    0.976
    27   1 H    0.997 --     1 C    0.980
    28   1 H    0.999 --     5 C    0.978
    29   1 H    0.998 --     5 C    0.973
    30   1 H    0.995 --     5 C    0.979
    31   1 H    0.994 --     7 C    0.978
    32   1 H    0.995 --     7 C    0.967
    33   1 H    0.992 --     7 C    0.954
    34   1 H    0.992 --     8 C    0.957
    35   1 H    0.991 --    11 C    0.959
    36   1 H    0.996 --    11 C    0.969
    37   1 H    0.963 --    17 N    0.929
    38   1 H    0.998 --    18 C    0.968
    39   1 H    0.998 --    19 C    0.966
    40   1 H    0.991 --    22 C    0.971
    41   1 H    0.991 --    22 C    0.972
    42   1 H    0.995 --    22 C    0.978
    43   1 H    0.996 --    23 C    0.965
 ---------------------------------------------------------------------------

Topologies differ in total number of bonds
Writing topology from bond orders to xtbtopo.mol

molecular dipole:
                 x           y           z       tot (Debye)
 q only:        0.062      -1.550      -0.100
   full:        0.094      -1.943       0.652       5.216
molecular quadrupole (traceless):
                xx          xy          yy          xz          yz          zz
 q only:       -1.278     -14.772      -2.198       4.911     -12.174       3.476
  q+dip:       -1.069     -16.398      -4.951       8.280      -9.444       6.020
   full:        2.961     -16.703      -5.775       7.450     -10.028       2.814


           -------------------------------------------------
          | TOTAL ENERGY              -70.195644799993 Eh   |
          | GRADIENT NORM               0.091113529204 Eh/α |
          | HOMO-LUMO GAP               0.097500044665 eV   |
           -------------------------------------------------

------------------------------------------------------------------------
 * finished run on 2025/05/15 at 16:37:42.353     
------------------------------------------------------------------------
 total:
 * wall-time:     0 d,  0 h,  0 min,  0.124 sec
 *  cpu-time:     0 d,  0 h,  0 min,  0.120 sec
 * ratio c/w:     0.974 speedup
 SCF:
 * wall-time:     0 d,  0 h,  0 min,  0.107 sec
 *  cpu-time:     0 d,  0 h,  0 min,  0.106 sec
 * ratio c/w:     0.996 speedup


