43
 energy: -70.317899304983 gnorm: 0.000199277341 xtb: 6.7.1 (edcfbbe)
C           -1.97908168144327       -0.85671099084842        2.68299559671729
C           -1.86781462925935        0.26189505498292        1.69547803687462
C           -2.02564500642913        0.05409031958175        0.32159567409795
O           -2.33970684961114       -1.20558785432237       -0.15213598647672
C           -1.22902196797757       -2.05619781839923       -0.34959785676275
C           -1.93183166126150        1.12603741927305       -0.57058002138454
C           -2.10685023234802        0.90583812339508       -2.04037584291274
C           -1.62455999302399        1.56543532593264        2.10539263573069
N           -1.52782139019745        2.58717950426902        1.28105526541185
C           -1.67194171218778        2.38936367429301       -0.02327264468244
C           -1.47703572022222        3.60205365077201       -0.86075211896123
S            0.34717139845296        4.05269443555025       -1.00965630477873
C            0.93189695778664        2.35929376700332       -0.81381941920727
N            1.05431181078436        1.45110408624823       -1.73645461025595
C            1.54426194670245        0.34634041446570       -1.08264626428305
C            1.70920791487341        0.64778084880633        0.29412379795456
N            1.32236619564500        1.95634459762734        0.42131503906944
C            2.17063622231305       -0.30253711152967        1.18533157964258
C            2.47778700514179       -1.55473870854761        0.68742657690233
C            2.33537318529408       -1.85966688764603       -0.67445536167184
O            2.62634704108185       -3.07788102531888       -1.21712782714212
C            3.15850116827817       -4.08494292146968       -0.39275293930814
C            1.86325921740547       -0.91011011154891       -1.57241826416728
O            0.73658656202178        4.67072771143023        0.25625168479419
H           -0.99434414368347       -1.27406771051739        2.89862662829609
H           -2.61082158839504       -1.64739831347035        2.28491932679109
H           -2.40320481792284       -0.49438124141734        3.61672454468159
H           -0.63445395728734       -2.16579835079654        0.56273010699977
H           -0.57756147593339       -1.68125438068972       -1.14527444161992
H           -1.63908961348707       -3.02305025376360       -0.63598909226267
H           -2.43971529624884       -0.11282951976994       -2.21928073400735
H           -2.85065647158113        1.58795328281578       -2.44863290436258
H           -1.16000454249718        1.06783013854544       -2.55660444214591
H           -1.50472196850369        1.80104001205949        3.15519456524356
H           -1.91805882249863        4.47596984967775       -0.38537233703154
H           -1.82771757861582        3.48536566154202       -1.88037900766242
H            1.27761607153897        2.54434361999272        1.23967214254469
H            2.29091170716903       -0.07950310250626        2.23431880719293
H            2.83911149646709       -2.30438465353181        1.37301580574653
H            2.45358106433951       -4.38179161975282        0.39105967389921
H            4.10408813971282       -3.77575554994905        0.06426349053193
H            3.33960822368151       -4.93414972688413       -1.04986301156559
H            1.75933779191508       -1.15574364558539       -2.61554954645735
