38
 energy: -65.474911311459 gnorm: 0.000206480601 xtb: 6.7.1 (edcfbbe)
O            1.45314056044991       -2.07808903055198        2.42571127913933
C            1.71305233713518       -2.39338684770241        1.08953801893844
C            1.77960311117234       -1.15031958399606        0.18452572927286
O            0.51464577593805       -0.51565625598087        0.26411722373428
C            0.39953871141138        0.69262189907091       -0.44939767365240
C            1.43229802813068        1.71746269078047        0.03618229251055
C            2.83134149679585        1.12097508859078       -0.11450905471136
C            2.91442658629279       -0.21950094044799        0.62782754342393
O            4.12690722304604       -0.86375520302762        0.34278522118831
O            3.81680438070808        1.97167452070454        0.41394186772701
O            1.37038651493130        2.89992911209084       -0.72077323360415
O           -0.85628406130071        1.22559189226495       -0.19121480604474
C           -1.94755223822372        0.55824205175921       -0.75471291408408
C           -2.11212546984965        0.51604662912283       -2.13085941632270
C           -3.22961901049797       -0.09343672546404       -2.67323365774527
C           -4.18240573546682       -0.65434964010213       -1.84156696624309
C           -4.01597768859598       -0.60563267462331       -0.46850152408801
C           -2.90256028406400       -0.00079552159303        0.09672530563029
C           -2.68941341411268        0.02447707189458        1.59110952220067
O           -1.68544417937129       -0.87657646849156        2.00006169310955
H            0.54279399550899       -1.76550658926009        2.51037402666437
H            2.69286818184446       -2.87360479770954        1.06506823870596
H            0.95647985741356       -3.07881299565450        0.68750870474175
H            1.97491353490673       -1.46431002228723       -0.85188060492046
H            0.55207276326663        0.49699367309904       -1.52899029988358
H            1.23362047337113        1.92344086279270        1.09928868082153
H            3.02059005099035        0.94861659498269       -1.18782109697142
H            2.81885286318380       -0.02922045700089        1.70769342676613
H            4.83352824635994       -0.23949393808980        0.55109720237237
H            3.65801338192439        2.85470893202211        0.05887445042537
H            0.46144153935859        3.22303936680755       -0.69644707496973
H           -1.37111284988543        0.96896274431284       -2.77336326874409
H           -3.35461984044431       -0.12341733639129       -3.74501235816504
H           -5.05504164257951       -1.13023845933169       -2.26229562647081
H           -4.75721743253427       -1.04655793204072        0.18117224689091
H           -3.60106130442867       -0.28071701387379        2.10974557415151
H           -2.42969663099980        1.04807065547042        1.90154819207828
H           -0.90708783178515       -0.70737535214738        1.44558313613042
