----- Optimization -----
      -----------------------------------------------------------      
     |                   =====================                   |     
     |                           x T B                           |     
     |                   =====================                   |     
     |                         S. Grimme                         |     
     |          Mulliken Center for Theoretical Chemistry        |     
     |                    University of Bonn                     |     
      -----------------------------------------------------------      

   * xtb version 6.7.1 (edcfbbe) compiled by 'conda@3ef47c1a292c' on 2024-11-25

   xtb is free software: you can redistribute it and/or modify it under
   the terms of the GNU Lesser General Public License as published by
   the Free Software Foundation, either version 3 of the License, or
   (at your option) any later version.
   
   xtb is distributed in the hope that it will be useful,
   but WITHOUT ANY WARRANTY; without even the implied warranty of
   MERCHANTABILITY or FITNESS FOR A PARTICULAR PURPOSE.  See the
   GNU Lesser General Public License for more details.
   
   Cite this work as:
   * C. Bannwarth, E. Caldeweyher, S. Ehlert, A. Hansen, P. Pracht,
     J. Seibert, S. Spicher, S. Grimme, WIREs Comput. Mol. Sci., 2020, 11,
     e01493. DOI: 10.1002/wcms.1493
   
   for GFN2-xTB:
   * C. Bannwarth, S. Ehlert and S. Grimme., J. Chem. Theory Comput., 2019,
     15, 1652-1671. DOI: 10.1021/acs.jctc.8b01176
   for GFN1-xTB:
   * S. Grimme, C. Bannwarth, P. Shushkov, J. Chem. Theory Comput., 2017,
     13, 1989-2009. DOI: 10.1021/acs.jctc.7b00118
   for GFN0-xTB:
   * P. Pracht, E. Caldeweyher, S. Ehlert, S. Grimme, ChemRxiv, 2019, preprint.
     DOI: 10.26434/chemrxiv.8326202.v1
   for GFN-FF:
   * S. Spicher and S. Grimme, Angew. Chem. Int. Ed., 2020, 59, 15665-15673.
     DOI: 10.1002/anie.202004239
   
   for ALPB and GBSA implicit solvation:
   * S. Ehlert, M. Stahn, S. Spicher, S. Grimme, J. Chem. Theory Comput.,
     2021, 17, 4250-4261. DOI: 10.1021/acs.jctc.1c00471
   
   for ddCOSMO and CPCM-X implicit solvation:
   * M. Stahn, S. Ehlert, S. Grimme, J. Phys. Chem. A,
     2023, XX, XXXX-XXXX. DOI: 10.1021/acs.jpca.3c04382
   
   for DFT-D4:
   * E. Caldeweyher, C. Bannwarth and S. Grimme, J. Chem. Phys., 2017,
     147, 034112. DOI: 10.1063/1.4993215
   * E. Caldeweyher, S. Ehlert, A. Hansen, H. Neugebauer, S. Spicher,
     C. Bannwarth and S. Grimme, J. Chem. Phys., 2019, 150, 154122.
     DOI: 10.1063/1.5090222
   * E. Caldeweyher, J.-M. Mewes, S. Ehlert and S. Grimme, Phys. Chem. Chem. Phys.
     2020, 22, 8499-8512. DOI: 10.1039/D0CP00502A
   
   for sTDA-xTB:
   * S. Grimme and C. Bannwarth, J. Chem. Phys., 2016, 145, 054103.
     DOI: 10.1063/1.4959605
   
   in the mass-spec context:
   * V. Asgeirsson, C. Bauer and S. Grimme, Chem. Sci., 2017, 8, 4879.
     DOI: 10.1039/c7sc00601b
   * J. Koopman and S. Grimme, ACS Omega 2019, 4, 12, 15120-15133.
     DOI: 10.1021/acsomega.9b02011
   
   for metadynamics refer to:
   * S. Grimme, J. Chem. Theory Comput., 2019, 155, 2847-2862
     DOI: 10.1021/acs.jctc.9b00143
   
   for SPH calculations refer to:
   * S. Spicher and S. Grimme, J. Chem. Theory Comput., 2021, 17, 1701-1714
     DOI: 10.1021/acs.jctc.0c01306
   
   for ONIOM refer to:
   * C. Plett, A. Katbashev, S. Ehlert, S. Grimme, M. Bursch,
     Phys. Chem. Chem. Phys., 2023, 25, 17860-17868. DOI: 10.1039/D3CP02178E
   
   for DIPRO refer to:
   * J. Kohn, N. Gildemeister, S. Grimme, D. Fazzi, A. Hansen,
     J. Chem. Phys., 2023, just accepted.
   
   for PTB refer to:
   * S. Grimme, M. Mueller, A. Hansen, J. Chem. Phys., 2023, 158, 124111.
     DOI: 10.1063/5.0137838
   
   with help from (in alphabetical order)
   P. Atkinson, C. Bannwarth, F. Bohle, G. Brandenburg, E. Caldeweyher
   M. Checinski, S. Dohm, S. Ehlert, S. Ehrlich, I. Gerasimov, C. Hölzer
   A. Katbashev, J. Kohn, J. Koopman, C. Lavigne, S. Lehtola, F. März, M. Müller,
   F. Musil, H. Neugebauer, J. Pisarek, C. Plett, P. Pracht, F. Pultar,
   J. Seibert, P. Shushkov, S. Spicher, M. Stahn, M. Steiner, T. Strunk,
   J. Stückrath, T. Rose, and J. Unsleber
   
 * started run on 2025/05/15 at 16:12:09.762     
   ID    Z sym.   atoms
    1    8 O      1, 4, 9-12, 20
    2    6 C      2, 3, 5-8, 13-19
    3    1 H      21-38

           -------------------------------------------------
          |                Calculation Setup                |
           -------------------------------------------------

          program call               : xtb /rds/general/user/hgt20/home/callum/QDESCP/Salicin_rdkit_conf_11/Salicin_rdkit_conf_11.xyz --opt normal --acc 1 --gfn 2 --chrg 0 --uhf 0 -P 1
          hostname                   : login-c
          coordinate file            : /rds/general/user/hgt20/home/callum/QDESCP/Salicin_rdkit_conf_11/Salicin_rdkit_conf_11.xyz
          omp threads                :                     1


           -------------------------------------------------
          |                 G F N 2 - x T B                 |
           -------------------------------------------------

        Reference                      10.1021/acs.jctc.8b01176
      * Hamiltonian:
        H0-scaling (s, p, d)           1.850000    2.230000    2.230000
        zeta-weighting                 0.500000
      * Dispersion:
        s8                             2.700000
        a1                             0.520000
        a2                             5.000000
        s9                             5.000000
      * Repulsion:
        kExp                           1.500000    1.000000
        rExp                           1.000000
      * Coulomb:
        alpha                          2.000000
        third order                    shell-resolved
        anisotropic                    true
        a3                             3.000000
        a5                             4.000000
        cn-shift                       1.200000
        cn-exp                         4.000000
        max-rad                        5.000000


          ...................................................
          :                      SETUP                      :
          :.................................................:
          :  # basis functions                  98          :
          :  # atomic orbitals                  98          :
          :  # shells                           58          :
          :  # electrons                       112          :
          :  max. iterations                   250          :
          :  Hamiltonian                  GFN2-xTB          :
          :  restarted?                      false          :
          :  GBSA solvation                  false          :
          :  PC potential                    false          :
          :  electronic temp.          300.0000000     K    :
          :  accuracy                    1.0000000          :
          :  -> integral cutoff          0.2500000E+02      :
          :  -> integral neglect         0.1000000E-07      :
          :  -> SCF convergence          0.1000000E-05 Eh   :
          :  -> wf. convergence          0.1000000E-03 e    :
          :  Broyden damping             0.4000000          :
          :  net charge                          0          :
          :  unpaired electrons                  0          :
          ...................................................

 iter      E             dE          RMSdq      gap      omega  full diag
   1    -66.0077085 -0.660077E+02  0.461E+00    4.41       0.0  T
   2    -66.0711145 -0.634060E-01  0.256E+00    4.37       1.0  T
   3    -66.0683486  0.276588E-02  0.877E-01    4.12       1.0  T
   4    -66.0742605 -0.591188E-02  0.287E-01    4.24       1.0  T
   5    -66.0759975 -0.173709E-02  0.937E-02    4.29       1.0  T
   6    -66.0760531 -0.555227E-04  0.435E-02    4.30       1.0  T
   7    -66.0760603 -0.723516E-05  0.160E-02    4.30       1.0  T
   8    -66.0760630 -0.270891E-05  0.509E-03    4.30       3.2  T
   9    -66.0760634 -0.343110E-06  0.206E-03    4.30       7.9  T
  10    -66.0760634 -0.310717E-07  0.908E-04    4.30      17.9  T
  11    -66.0760634 -0.945136E-08  0.381E-04    4.30      42.6  T

   *** convergence criteria satisfied after 11 iterations ***

         #    Occupation            Energy/Eh            Energy/eV
      -------------------------------------------------------------
         1        2.0000           -0.7453282             -20.2814
       ...           ...                  ...                  ...
        50        2.0000           -0.4319023             -11.7527
        51        2.0000           -0.4299379             -11.6992
        52        2.0000           -0.4235070             -11.5242
        53        2.0000           -0.4193053             -11.4099
        54        2.0000           -0.4160149             -11.3203
        55        2.0000           -0.4136326             -11.2555
        56        2.0000           -0.4055029             -11.0343 (HOMO)
        57                         -0.2475095              -6.7351 (LUMO)
        58                         -0.2459684              -6.6931
        59                         -0.1266009              -3.4450
        60                         -0.0749141              -2.0385
        61                         -0.0408923              -1.1127
       ...                                ...                  ...
        98                          0.6098620              16.5952
      -------------------------------------------------------------
                  HL-Gap            0.1579935 Eh            4.2992 eV
             Fermi-level           -0.3265062 Eh           -8.8847 eV

 SCC (total)                   0 d,  0 h,  0 min,  0.054 sec
 SCC setup                      ...        0 min,  0.000 sec (  0.601%)
 Dispersion                     ...        0 min,  0.000 sec (  0.827%)
 classical contributions        ...        0 min,  0.000 sec (  0.221%)
 integral evaluation            ...        0 min,  0.015 sec ( 27.418%)
 iterations                     ...        0 min,  0.019 sec ( 35.844%)
 molecular gradient             ...        0 min,  0.019 sec ( 34.818%)
 printout                       ...        0 min,  0.000 sec (  0.257%)

         :::::::::::::::::::::::::::::::::::::::::::::::::::::
         ::                     SUMMARY                     ::
         :::::::::::::::::::::::::::::::::::::::::::::::::::::
         :: total energy             -65.462111844126 Eh    ::
         :: gradient norm              0.082737249356 Eh/a0 ::
         :: HOMO-LUMO gap              4.299221012346 eV    ::
         ::.................................................::
         :: SCC energy               -66.075453831134 Eh    ::
         :: -> isotropic ES            0.157969033174 Eh    ::
         :: -> anisotropic ES         -0.006864112365 Eh    ::
         :: -> anisotropic XC          0.000380652552 Eh    ::
         :: -> dispersion             -0.037394374415 Eh    ::
         :: repulsion energy           0.613341987009 Eh    ::
         :: add. restraining           0.000000000000 Eh    ::
         :: total charge              -0.000000000000 e     ::
         :::::::::::::::::::::::::::::::::::::::::::::::::::::

      ----------------------------------------------------------- 
     |                   =====================                   |
     |                        A N C O P T                        |
     |                   =====================                   |
     |               Approximate Normal Coordinate               |
     |                Rational Function Optimizer                |
      ----------------------------------------------------------- 
      ----------------------------------------------------------- 
     |                   =====================                   |
     |                        A N C O P T                        |
     |                   =====================                   |
     |               Approximate Normal Coordinate               |
     |                Rational Function Optimizer                |
      ----------------------------------------------------------- 

          ...................................................
          :                      SETUP                      :
          :.................................................:
          :   optimization level            normal          :
          :   max. optcycles                   200          :
          :   ANC micro-cycles                  20          :
          :   degrees of freedom               108          :
          :.................................................:
          :   RF solver                   davidson          :
          :   write xtbopt.log                true          :
          :   linear?                        false          :
          :   energy convergence         0.5000000E-05 Eh   :
          :   grad. convergence          0.1000000E-02 Eh/α :
          :   maxmium RF displ.          1.0000000          :
          :   Hlow (freq-cutoff)         0.1000000E-01      :
          :   Hmax (freq-cutoff)         5.0000000          :
          :   S6 in model hess.         20.0000000          :
          ...................................................

generating ANC from exact Hessian ...
Using Lindh-Hessian (1995)
 Shifting diagonal of input Hessian by    9.6050080403978985E-003
 Lowest  eigenvalues of input Hessian
    0.000000    0.000000    0.000000    0.000000    0.000000    0.000000
    0.010000    0.010494    0.011354    0.012119    0.013172    0.013659
    0.015067    0.015937    0.016553    0.017714    0.020559    0.021874
 Highest eigenvalues
    1.521657    1.571609    1.696872    1.835969    1.952816    2.014799


........................................................................
.............................. CYCLE    1 ..............................
........................................................................

 iter      E             dE          RMSdq      gap      omega  full diag
   1    -66.0760634 -0.660761E+02  0.105E-04    4.30       0.0  T
   2    -66.0760634 -0.630251E-10  0.577E-05    4.30     281.2  T
   3    -66.0760634 -0.866862E-12  0.327E-05    4.30     495.8  T
     SCC iter.                  ...        0 min,  0.006 sec
     gradient                   ...        0 min,  0.027 sec
 * total energy  :   -65.4621118 Eh     change       -0.3250278E-08 Eh
   gradient norm :     0.0827374 Eh/α   predicted     0.0000000E+00 (-100.00%)
   displ. norm   :     0.2992935 α      lambda       -0.1294405E-01
   maximum displ.:     0.0902798 α      in ANC's #29, #50, #20, ...

........................................................................
.............................. CYCLE    2 ..............................
........................................................................

 iter      E             dE          RMSdq      gap      omega  full diag
   1    -66.1073843 -0.661074E+02  0.185E-01    4.39       0.0  T
   2    -66.1074315 -0.472411E-04  0.111E-01    4.39       1.0  T
   3    -66.1074118  0.197322E-04  0.325E-02    4.39       1.0  T
   4    -66.1074406 -0.288704E-04  0.936E-03    4.39       1.7  T
   5    -66.1074423 -0.169234E-05  0.418E-03    4.39       3.9  T
   6    -66.1074425 -0.143529E-06  0.184E-03    4.39       8.8  T
   7    -66.1074425 -0.112477E-07  0.783E-04    4.39      20.7  T
   8    -66.1074425 -0.716528E-08  0.247E-04    4.39      65.7  T
     SCC iter.                  ...        0 min,  0.013 sec
     gradient                   ...        0 min,  0.019 sec
 * total energy  :   -65.4711859 Eh     change       -0.9074057E-02 Eh
   gradient norm :     0.0431078 Eh/α   predicted    -0.7052796E-02 ( -22.28%)
   displ. norm   :     0.2652879 α      lambda       -0.4810183E-02
   maximum displ.:     0.0841459 α      in ANC's #11, #29, #20, ...

........................................................................
.............................. CYCLE    3 ..............................
........................................................................

 iter      E             dE          RMSdq      gap      omega  full diag
   1    -66.1229124 -0.661229E+02  0.135E-01    4.42       0.0  T
   2    -66.1229436 -0.312595E-04  0.807E-02    4.42       1.0  T
   3    -66.1229376  0.607056E-05  0.249E-02    4.43       1.0  T
   4    -66.1229492 -0.116689E-04  0.693E-03    4.43       2.3  T
   5    -66.1229500 -0.796980E-06  0.346E-03    4.42       4.7  T
   6    -66.1229501 -0.108627E-06  0.138E-03    4.42      11.7  T
   7    -66.1229501 -0.539018E-08  0.624E-04    4.42      26.0  T
   8    -66.1229501 -0.382083E-08  0.183E-04    4.42      88.4  T
     SCC iter.                  ...        0 min,  0.013 sec
     gradient                   ...        0 min,  0.019 sec
 * total energy  :   -65.4739957 Eh     change       -0.2809798E-02 Eh
   gradient norm :     0.0130382 Eh/α   predicted    -0.2575488E-02 (  -8.34%)
   displ. norm   :     0.1378089 α      lambda       -0.5582063E-03
   maximum displ.:     0.0551313 α      in ANC's #4, #11, #20, ...

........................................................................
.............................. CYCLE    4 ..............................
........................................................................

 iter      E             dE          RMSdq      gap      omega  full diag
   1    -66.1225642 -0.661226E+02  0.588E-02    4.42       0.0  T
   2    -66.1225658 -0.166360E-05  0.350E-02    4.43       1.0  T
   3    -66.1225656  0.276503E-06  0.475E-03    4.43       3.4  T
   4    -66.1225662 -0.609028E-06  0.185E-03    4.43       8.8  T
   5    -66.1225662 -0.568185E-07  0.927E-04    4.43      17.5  T
   6    -66.1225662 -0.134414E-07  0.394E-04    4.43      41.1  T
     SCC iter.                  ...        0 min,  0.010 sec
     gradient                   ...        0 min,  0.019 sec
 * total energy  :   -65.4743836 Eh     change       -0.3878641E-03 Eh
   gradient norm :     0.0066332 Eh/α   predicted    -0.2844095E-03 ( -26.67%)
   displ. norm   :     0.1448293 α      lambda       -0.2672773E-03
   maximum displ.:     0.0719899 α      in ANC's #4, #3, #11, ...

........................................................................
.............................. CYCLE    5 ..............................
........................................................................

 iter      E             dE          RMSdq      gap      omega  full diag
   1    -66.1212391 -0.661212E+02  0.642E-02    4.42       0.0  T
   2    -66.1212402 -0.111516E-05  0.382E-02    4.43       1.0  T
   3    -66.1212397  0.492570E-06  0.435E-03    4.43       3.7  T
   4    -66.1212405 -0.733242E-06  0.161E-03    4.43      10.1  T
   5    -66.1212405 -0.530751E-07  0.779E-04    4.43      20.8  T
   6    -66.1212405 -0.476851E-08  0.278E-04    4.43      58.3  T
     SCC iter.                  ...        0 min,  0.010 sec
     gradient                   ...        0 min,  0.019 sec
 * total energy  :   -65.4745549 Eh     change       -0.1713460E-03 Eh
   gradient norm :     0.0042304 Eh/α   predicted    -0.1364441E-03 ( -20.37%)
   displ. norm   :     0.1064191 α      lambda       -0.8794082E-04
   maximum displ.:     0.0628143 α      in ANC's #3, #4, #5, ...

........................................................................
.............................. CYCLE    6 ..............................
........................................................................

 iter      E             dE          RMSdq      gap      omega  full diag
   1    -66.1211102 -0.661211E+02  0.461E-02    4.43       0.0  T
   2    -66.1211106 -0.329855E-06  0.273E-02    4.43       1.0  T
   3    -66.1211104  0.125236E-06  0.240E-03    4.43       6.8  T
   4    -66.1211107 -0.213878E-06  0.890E-04    4.43      18.2  T
   5    -66.1211107 -0.114988E-07  0.483E-04    4.43      33.6  T
     SCC iter.                  ...        0 min,  0.008 sec
     gradient                   ...        0 min,  0.019 sec
 * total energy  :   -65.4746202 Eh     change       -0.6524758E-04 Eh
   gradient norm :     0.0033532 Eh/α   predicted    -0.4446871E-04 ( -31.85%)
   displ. norm   :     0.1278428 α      lambda       -0.7679863E-04
   maximum displ.:     0.0825996 α      in ANC's #3, #4, #2, ...

........................................................................
.............................. CYCLE    7 ..............................
........................................................................

 iter      E             dE          RMSdq      gap      omega  full diag
   1    -66.1216622 -0.661217E+02  0.523E-02    4.44       0.0  T
   2    -66.1216625 -0.307358E-06  0.308E-02    4.44       1.0  T
   3    -66.1216624  0.905694E-07  0.237E-03    4.44       6.9  T
   4    -66.1216626 -0.189907E-06  0.884E-04    4.44      18.3  T
   5    -66.1216626 -0.699991E-08  0.492E-04    4.44      33.0  T
     SCC iter.                  ...        0 min,  0.008 sec
     gradient                   ...        0 min,  0.019 sec
 * total energy  :   -65.4746750 Eh     change       -0.5480751E-04 Eh
   gradient norm :     0.0021954 Eh/α   predicted    -0.3902875E-04 ( -28.79%)
   displ. norm   :     0.1003399 α      lambda       -0.4197565E-04
   maximum displ.:     0.0687777 α      in ANC's #3, #4, #2, ...

........................................................................
.............................. CYCLE    8 ..............................
........................................................................

 iter      E             dE          RMSdq      gap      omega  full diag
   1    -66.1223075 -0.661223E+02  0.375E-02    4.44       0.0  T
   2    -66.1223077 -0.143480E-06  0.221E-02    4.44       1.0  T
   3    -66.1223077  0.166059E-07  0.147E-03    4.44      11.1  T
   4    -66.1223077 -0.646570E-07  0.594E-04    4.44      27.3  T
   5    -66.1223077 -0.202159E-08  0.328E-04    4.44      49.4  T
     SCC iter.                  ...        0 min,  0.008 sec
     gradient                   ...        0 min,  0.019 sec
 * total energy  :   -65.4747062 Eh     change       -0.3124481E-04 Eh
   gradient norm :     0.0018476 Eh/α   predicted    -0.2119954E-04 ( -32.15%)
   displ. norm   :     0.1277219 α      lambda       -0.2733389E-04
   maximum displ.:     0.0904298 α      in ANC's #3, #4, #2, ...

........................................................................
.............................. CYCLE    9 ..............................
........................................................................

 iter      E             dE          RMSdq      gap      omega  full diag
   1    -66.1228554 -0.661229E+02  0.433E-02    4.45       0.0  T
   2    -66.1228556 -0.221954E-06  0.255E-02    4.45       1.0  T
   3    -66.1228556  0.263277E-07  0.171E-03    4.45       9.5  T
   4    -66.1228557 -0.933775E-07  0.697E-04    4.45      23.3  T
   5    -66.1228557 -0.391060E-08  0.388E-04    4.45      41.8  T
     SCC iter.                  ...        0 min,  0.008 sec
     gradient                   ...        0 min,  0.034 sec
 * total energy  :   -65.4747331 Eh     change       -0.2691655E-04 Eh
   gradient norm :     0.0019352 Eh/α   predicted    -0.1376682E-04 ( -48.85%)
   displ. norm   :     0.0738809 α      lambda       -0.1384042E-04
   maximum displ.:     0.0536966 α      in ANC's #3, #2, #1, ...

........................................................................
.............................. CYCLE   10 ..............................
........................................................................

 iter      E             dE          RMSdq      gap      omega  full diag
   1    -66.1226789 -0.661227E+02  0.225E-02    4.45       0.0  T
   2    -66.1226790 -0.822922E-07  0.133E-02    4.45       1.2  T
   3    -66.1226789  0.480016E-07  0.141E-03    4.45      11.5  T
   4    -66.1226790 -0.710010E-07  0.427E-04    4.45      38.0  T
   5    -66.1226790 -0.232693E-08  0.226E-04    4.45      71.7  T
     SCC iter.                  ...        0 min,  0.008 sec
     gradient                   ...        0 min,  0.019 sec
 * total energy  :   -65.4747506 Eh     change       -0.1744544E-04 Eh
   gradient norm :     0.0013416 Eh/α   predicted    -0.6940362E-05 ( -60.22%)
   displ. norm   :     0.1100721 α      lambda       -0.1955287E-04
   maximum displ.:     0.0756306 α      in ANC's #3, #1, #2, ...

........................................................................
.............................. CYCLE   11 ..............................
........................................................................

 iter      E             dE          RMSdq      gap      omega  full diag
   1    -66.1223983 -0.661224E+02  0.308E-02    4.44       0.0  T
   2    -66.1223985 -0.177845E-06  0.183E-02    4.44       1.0  T
   3    -66.1223984  0.122039E-06  0.231E-03    4.44       7.0  T
   4    -66.1223986 -0.179156E-06  0.695E-04    4.44      23.4  T
   5    -66.1223986 -0.459558E-08  0.373E-04    4.44      43.5  T
     SCC iter.                  ...        0 min,  0.008 sec
     gradient                   ...        0 min,  0.019 sec
 * total energy  :   -65.4747732 Eh     change       -0.2267229E-04 Eh
   gradient norm :     0.0010929 Eh/α   predicted    -0.9831756E-05 ( -56.64%)
   displ. norm   :     0.1274751 α      lambda       -0.1528115E-04
   maximum displ.:     0.0874019 α      in ANC's #3, #1, #2, ...

........................................................................
.............................. CYCLE   12 ..............................
........................................................................

 iter      E             dE          RMSdq      gap      omega  full diag
   1    -66.1220024 -0.661220E+02  0.372E-02    4.44       0.0  T
   2    -66.1220025 -0.168957E-06  0.221E-02    4.44       1.0  T
   3    -66.1220025  0.535475E-07  0.192E-03    4.44       8.4  T
   4    -66.1220026 -0.114329E-06  0.755E-04    4.44      21.5  T
   5    -66.1220026 -0.428189E-08  0.362E-04    4.44      44.8  T
     SCC iter.                  ...        0 min,  0.008 sec
     gradient                   ...        0 min,  0.019 sec
 * total energy  :   -65.4747903 Eh     change       -0.1709769E-04 Eh
   gradient norm :     0.0012992 Eh/α   predicted    -0.7697283E-05 ( -54.98%)
   displ. norm   :     0.1300172 α      lambda       -0.1185947E-04
   maximum displ.:     0.0874661 α      in ANC's #3, #1, #8, ...

........................................................................
.............................. CYCLE   13 ..............................
........................................................................

 iter      E             dE          RMSdq      gap      omega  full diag
   1    -66.1221895 -0.661222E+02  0.381E-02    4.44       0.0  T
   2    -66.1221896 -0.159925E-06  0.226E-02    4.44       1.0  T
   3    -66.1221895  0.733157E-07  0.204E-03    4.44       7.9  T
   4    -66.1221897 -0.140986E-06  0.765E-04    4.44      21.2  T
   5    -66.1221897 -0.318950E-08  0.357E-04    4.44      45.5  T
     SCC iter.                  ...        0 min,  0.008 sec
     gradient                   ...        0 min,  0.019 sec
 * total energy  :   -65.4748033 Eh     change       -0.1291865E-04 Eh
   gradient norm :     0.0008673 Eh/α   predicted    -0.5976681E-05 ( -53.74%)
   displ. norm   :     0.1346053 α      lambda       -0.1062494E-04
   maximum displ.:     0.0894958 α      in ANC's #3, #1, #8, ...

........................................................................
.............................. CYCLE   14 ..............................
........................................................................

 iter      E             dE          RMSdq      gap      omega  full diag
   1    -66.1222711 -0.661223E+02  0.396E-02    4.44       0.0  T
   2    -66.1222713 -0.159637E-06  0.235E-02    4.44       1.0  T
   3    -66.1222712  0.939198E-07  0.206E-03    4.44       7.9  T
   4    -66.1222713 -0.163106E-06  0.751E-04    4.44      21.6  T
   5    -66.1222713 -0.355266E-08  0.335E-04    4.44      48.5  T
     SCC iter.                  ...        0 min,  0.032 sec
     gradient                   ...        0 min,  0.019 sec
 * total energy  :   -65.4748151 Eh     change       -0.1184801E-04 Eh
   gradient norm :     0.0012364 Eh/α   predicted    -0.5358168E-05 ( -54.78%)
   displ. norm   :     0.1574981 α      lambda       -0.1143976E-04
   maximum displ.:     0.1000186 α      in ANC's #3, #1, #8, ...

........................................................................
.............................. CYCLE   15 ..............................
........................................................................

 iter      E             dE          RMSdq      gap      omega  full diag
   1    -66.1225178 -0.661225E+02  0.454E-02    4.44       0.0  T
   2    -66.1225181 -0.218276E-06  0.270E-02    4.44       1.0  T
   3    -66.1225178  0.279077E-06  0.297E-03    4.43       5.5  T
   4    -66.1225182 -0.386828E-06  0.851E-04    4.43      19.1  T
   5    -66.1225182 -0.341096E-08  0.398E-04    4.43      40.8  T
     SCC iter.                  ...        0 min,  0.008 sec
     gradient                   ...        0 min,  0.019 sec
 * total energy  :   -65.4748287 Eh     change       -0.1356023E-04 Eh
   gradient norm :     0.0010196 Eh/α   predicted    -0.5784658E-05 ( -57.34%)
   displ. norm   :     0.1689204 α      lambda       -0.1318353E-04
   maximum displ.:     0.1009653 α      in ANC's #1, #3, #8, ...

........................................................................
.............................. CYCLE   16 ..............................
........................................................................

 iter      E             dE          RMSdq      gap      omega  full diag
   1    -66.1229011 -0.661229E+02  0.458E-02    4.43       0.0  T
   2    -66.1229014 -0.273557E-06  0.273E-02    4.43       1.0  T
   3    -66.1229009  0.484141E-06  0.369E-03    4.43       4.4  T
   4    -66.1229016 -0.617501E-06  0.874E-04    4.43      18.6  T
   5    -66.1229016 -0.439509E-08  0.437E-04    4.43      37.1  T
     SCC iter.                  ...        0 min,  0.008 sec
     gradient                   ...        0 min,  0.019 sec
 * total energy  :   -65.4748450 Eh     change       -0.1636810E-04 Eh
   gradient norm :     0.0011685 Eh/α   predicted    -0.6677748E-05 ( -59.20%)
   displ. norm   :     0.2004760 α      lambda       -0.1644617E-04
   maximum displ.:     0.1250384 α      in ANC's #1, #3, #8, ...

........................................................................
.............................. CYCLE   17 ..............................
........................................................................

 iter      E             dE          RMSdq      gap      omega  full diag
   1    -66.1228494 -0.661228E+02  0.522E-02    4.43       0.0  T
   2    -66.1228498 -0.445171E-06  0.312E-02    4.43       1.0  T
   3    -66.1228490  0.833830E-06  0.469E-03    4.43       3.5  T
   4    -66.1228500 -0.102980E-05  0.104E-03    4.43      15.6  T
   5    -66.1228500 -0.104928E-07  0.527E-04    4.43      30.8  T
   6    -66.1228500 -0.143028E-08  0.163E-04    4.43      99.6  T
     SCC iter.                  ...        0 min,  0.010 sec
     gradient                   ...        0 min,  0.019 sec
 * total energy  :   -65.4748646 Eh     change       -0.1956617E-04 Eh
   gradient norm :     0.0012251 Eh/α   predicted    -0.8370287E-05 ( -57.22%)
   displ. norm   :     0.1727165 α      lambda       -0.1554506E-04
   maximum displ.:     0.1126245 α      in ANC's #1, #4, #3, ...

........................................................................
.............................. CYCLE   18 ..............................
........................................................................

 iter      E             dE          RMSdq      gap      omega  full diag
   1    -66.1230709 -0.661231E+02  0.418E-02    4.43       0.0  T
   2    -66.1230712 -0.388601E-06  0.250E-02    4.43       1.0  T
   3    -66.1230706  0.617020E-06  0.408E-03    4.43       4.0  T
   4    -66.1230714 -0.750371E-06  0.897E-04    4.43      18.1  T
   5    -66.1230714 -0.130602E-07  0.432E-04    4.43      37.5  T
     SCC iter.                  ...        0 min,  0.008 sec
     gradient                   ...        0 min,  0.019 sec
 * total energy  :   -65.4748817 Eh     change       -0.1713479E-04 Eh
   gradient norm :     0.0012424 Eh/α   predicted    -0.7878635E-05 ( -54.02%)
   displ. norm   :     0.1352558 α      lambda       -0.1241176E-04
   maximum displ.:     0.0897247 α      in ANC's #1, #4, #2, ...

........................................................................
.............................. CYCLE   19 ..............................
........................................................................

 iter      E             dE          RMSdq      gap      omega  full diag
   1    -66.1230633 -0.661231E+02  0.316E-02    4.43       0.0  T
   2    -66.1230635 -0.229894E-06  0.190E-02    4.43       1.0  T
   3    -66.1230633  0.198217E-06  0.247E-03    4.43       6.6  T
   4    -66.1230635 -0.255411E-06  0.716E-04    4.43      22.7  T
   5    -66.1230636 -0.104844E-07  0.323E-04    4.43      50.3  T
     SCC iter.                  ...        0 min,  0.008 sec
     gradient                   ...        0 min,  0.021 sec
 * total energy  :   -65.4748948 Eh     change       -0.1303180E-04 Eh
   gradient norm :     0.0010392 Eh/α   predicted    -0.6259389E-05 ( -51.97%)
   displ. norm   :     0.0892638 α      lambda       -0.8057274E-05
   maximum displ.:     0.0609754 α      in ANC's #1, #4, #2, ...

........................................................................
.............................. CYCLE   20 ..............................
........................................................................

 iter      E             dE          RMSdq      gap      omega  full diag
   1    -66.1226738 -0.661227E+02  0.209E-02    4.42       0.0  T
   2    -66.1226740 -0.106238E-06  0.126E-02    4.42       1.3  T
   3    -66.1226739  0.694744E-07  0.155E-03    4.42      10.4  T
   4    -66.1226740 -0.938994E-07  0.527E-04    4.42      30.8  T
   5    -66.1226740 -0.570566E-08  0.224E-04    4.42      72.3  T
     SCC iter.                  ...        0 min,  0.008 sec
     gradient                   ...        0 min,  0.019 sec
 * total energy  :   -65.4749032 Eh     change       -0.8403827E-05 Eh
   gradient norm :     0.0006487 Eh/α   predicted    -0.4044766E-05 ( -51.87%)
   displ. norm   :     0.0648085 α      lambda       -0.5076627E-05
   maximum displ.:     0.0414047 α      in ANC's #1, #2, #4, ...
 * RMSD in coord.:     0.3069868 α      energy gain  -0.1279133E-01 Eh

generating ANC from exact Hessian ...
Using Lindh-Hessian (1995)
 Shifting diagonal of input Hessian by    9.6450963461981957E-003
 Lowest  eigenvalues of input Hessian
    0.000000    0.000000    0.000000    0.000000    0.000000    0.000000
    0.010000    0.010640    0.011422    0.012369    0.013208    0.013989
    0.015647    0.016189    0.017454    0.018275    0.019239    0.021147
 Highest eigenvalues
    1.618636    1.625479    1.750086    1.893787    2.016371    2.065149


........................................................................
.............................. CYCLE   21 ..............................
........................................................................

 iter      E             dE          RMSdq      gap      omega  full diag
   1    -66.1227249 -0.661227E+02  0.181E-02    4.42       0.0  T
   2    -66.1227249 -0.364550E-07  0.108E-02    4.42       1.5  T
   3    -66.1227249 -0.192644E-08  0.735E-04    4.42      22.1  T
   4    -66.1227249 -0.112534E-07  0.368E-04    4.42      44.1  T
     SCC iter.                  ...        0 min,  0.007 sec
     gradient                   ...        0 min,  0.040 sec
 * total energy  :   -65.4749084 Eh     change       -0.5273840E-05 Eh
   gradient norm :     0.0005665 Eh/α   predicted     0.0000000E+00 (-100.00%)
   displ. norm   :     0.0185906 α      lambda       -0.2300081E-05
   maximum displ.:     0.0140952 α      in ANC's #1, #4, #2, ...

........................................................................
.............................. CYCLE   22 ..............................
........................................................................

 iter      E             dE          RMSdq      gap      omega  full diag
   1    -66.1227413 -0.661227E+02  0.450E-03    4.42       0.0  T
   2    -66.1227413 -0.114358E-07  0.270E-03    4.42       6.0  T
   3    -66.1227413  0.124579E-07  0.689E-04    4.42      23.5  T
   4    -66.1227413 -0.157661E-07  0.142E-04    4.42     114.6  T
     SCC iter.                  ...        0 min,  0.007 sec
     gradient                   ...        0 min,  0.019 sec
 * total energy  :   -65.4749113 Eh     change       -0.2861774E-05 Eh
   gradient norm :     0.0002053 Eh/α   predicted    -0.1158981E-05 ( -59.50%)
   displ. norm   :     0.0436259 α      lambda       -0.3884023E-05
   maximum displ.:     0.0304689 α      in ANC's #1, #4, #2, ...

   *** GEOMETRY OPTIMIZATION CONVERGED AFTER 22 ITERATIONS ***

------------------------------------------------------------------------
 total energy gain   :        -0.0127995 Eh       -8.0318 kcal/mol
 total RMSD          :         0.3077714 a0        0.1629 Å
 total power (kW/mol):        -1.5274998 (step)  -37.2219 (real)
------------------------------------------------------------------------

 ANCopt (total)                0 d,  0 h,  0 min,  0.903 sec
 optimizer setup                ...        0 min,  0.000 sec (  0.010%)
 model hessian                  ...        0 min,  0.034 sec (  3.820%)
 ANC generation                 ...        0 min,  0.002 sec (  0.274%)
 coordinate transformation      ...        0 min,  0.000 sec (  0.014%)
 single point calculation       ...        0 min,  0.857 sec ( 94.967%)
 optimization log               ...        0 min,  0.004 sec (  0.462%)
 hessian update                 ...        0 min,  0.000 sec (  0.026%)
 rational function              ...        0 min,  0.001 sec (  0.142%)

================
 final structure:
================
38
 xtb: 6.7.1 (edcfbbe)
O            1.45314056044991       -2.07808903055198        2.42571127913933
C            1.71305233713518       -2.39338684770241        1.08953801893844
C            1.77960311117234       -1.15031958399606        0.18452572927286
O            0.51464577593805       -0.51565625598087        0.26411722373428
C            0.39953871141138        0.69262189907091       -0.44939767365240
C            1.43229802813068        1.71746269078047        0.03618229251055
C            2.83134149679585        1.12097508859078       -0.11450905471136
C            2.91442658629279       -0.21950094044799        0.62782754342393
O            4.12690722304604       -0.86375520302762        0.34278522118831
O            3.81680438070808        1.97167452070454        0.41394186772701
O            1.37038651493130        2.89992911209084       -0.72077323360415
O           -0.85628406130071        1.22559189226495       -0.19121480604474
C           -1.94755223822372        0.55824205175921       -0.75471291408408
C           -2.11212546984965        0.51604662912283       -2.13085941632270
C           -3.22961901049797       -0.09343672546404       -2.67323365774527
C           -4.18240573546682       -0.65434964010213       -1.84156696624309
C           -4.01597768859598       -0.60563267462331       -0.46850152408801
C           -2.90256028406400       -0.00079552159303        0.09672530563029
C           -2.68941341411268        0.02447707189458        1.59110952220067
O           -1.68544417937129       -0.87657646849156        2.00006169310955
H            0.54279399550899       -1.76550658926009        2.51037402666437
H            2.69286818184446       -2.87360479770954        1.06506823870596
H            0.95647985741356       -3.07881299565450        0.68750870474175
H            1.97491353490673       -1.46431002228723       -0.85188060492046
H            0.55207276326663        0.49699367309904       -1.52899029988358
H            1.23362047337113        1.92344086279270        1.09928868082153
H            3.02059005099035        0.94861659498269       -1.18782109697142
H            2.81885286318380       -0.02922045700089        1.70769342676613
H            4.83352824635994       -0.23949393808980        0.55109720237237
H            3.65801338192439        2.85470893202211        0.05887445042537
H            0.46144153935859        3.22303936680755       -0.69644707496973
H           -1.37111284988543        0.96896274431284       -2.77336326874409
H           -3.35461984044431       -0.12341733639129       -3.74501235816504
H           -5.05504164257951       -1.13023845933169       -2.26229562647081
H           -4.75721743253427       -1.04655793204072        0.18117224689091
H           -3.60106130442867       -0.28071701387379        2.10974557415151
H           -2.42969663099980        1.04807065547042        1.90154819207828
H           -0.90708783178515       -0.70737535214738        1.44558313613042

 Bond Distances (Angstroems)
 ---------------------------
O1-C2=1.3973         O1-H21=0.9662        C2-O1=1.3973         C2-C3=1.5391         C2-H22=1.0914        C2-H23=1.0972        
C3-C2=1.5391         C3-O4=1.4175         C3-C8=1.5332         C3-H24=1.1004        O4-C3=1.4175         O4-C5=1.4079         
C5-O4=1.4079         C5-C6=1.5338         C5-O12=1.3885        C5-H25=1.1077        C6-C5=1.5338         C6-C7=1.5283         
C6-O11=1.4054        C6-H26=1.1010        C7-C6=1.5283         C7-C8=1.5345         C7-O10=1.4050        C7-H27=1.1034        
C8-C3=1.5332         C8-C7=1.5345         C8-O9=1.4023         C8-H28=1.1007        O9-C8=1.4023         O9-H29=0.9656        
O10-C7=1.4050        O10-H30=0.9649       O11-C6=1.4054        O11-H31=0.9650       O12-C5=1.3885        O12-C13=1.3978       
C13-O12=1.3978       C13-C14=1.3866       C13-C18=1.3962       C14-C13=1.3866       C14-C15=1.3836       C14-H32=1.0803       
C15-C14=1.3836       C15-C16=1.3835       C15-H33=1.0795       C16-C15=1.3835       C16-C17=1.3840       C16-H34=1.0793       
C17-C16=1.3840       C17-C18=1.3874       C17-H35=1.0798       C18-C13=1.3962       C18-C17=1.3874       C18-C19=1.5097       
C19-C18=1.5097       C19-O20=1.4096       C19-H36=1.0924       C19-H37=1.1007       O20-C19=1.4096       O20-H38=0.9705       
H21-O1=0.9662        H22-C2=1.0914        H23-C2=1.0972        H24-C3=1.1004        H25-C5=1.1077        H26-C6=1.1010        
H27-C7=1.1034        H28-C8=1.1007        H29-O9=0.9656        H30-O10=0.9649       H31-O11=0.9650       H32-C14=1.0803       
H33-C15=1.0795       H34-C16=1.0793       H35-C17=1.0798       H36-C19=1.0924       H37-C19=1.1007       H38-O20=0.9705       
 C  H  Rav=1.0934 sigma=0.0099  Rmin=1.0793  Rmax=1.1077    13
 C  C  Rav=1.4583 sigma=0.0718  Rmin=1.3835  Rmax=1.5391    12
 O  H  Rav=0.9664 sigma=0.0021  Rmin=0.9649  Rmax=0.9705     5
 O  C  Rav=1.4035 sigma=0.0079  Rmin=1.3885  Rmax=1.4175     9

 selected bond angles (degree)
 --------------------
H21-O1-C2=109.39               C3-C2-O1=112.84                H22-C2-O1=106.72               H22-C2-C3=107.66               
H23-C2-O1=111.29               H23-C2-C3=108.60               H23-C2-H22=109.63              O4-C3-C2=106.86                
C8-C3-C2=110.63                C8-C3-O4=111.87                H24-C3-C2=109.33               H24-C3-O4=109.82               
H24-C3-C8=108.31               C5-O4-C3=115.39                C6-C5-O4=110.97                O12-C5-O4=108.01               
O12-C5-C6=107.08               H25-C5-O4=109.34               H25-C5-C6=109.50               H25-C5-O12=111.94              
C7-C6-C5=108.93                O11-C6-C5=111.22               O11-C6-C7=108.40               H26-C6-C5=108.01               
H26-C6-C7=109.48               H26-C6-O11=110.78              C8-C7-C6=110.05                O10-C7-C6=111.63               
O10-C7-C8=108.00               H27-C7-C6=108.29               H27-C7-C8=108.95               H27-C7-O10=109.89              
C7-C8-C3=110.51                O9-C8-C3=107.59                O9-C8-C7=110.48                H28-C8-C3=108.93               
H28-C8-C7=108.60               H28-C8-O9=110.73               H29-O9-C8=106.97               H30-O10-C7=107.47              

 selected dihedral angles (degree)
 ---------------------------------
C3-C2-O1-H21= 69.96           H22-C2-O1-H21=188.01          H23-C2-O1-H21=307.58          O4-C3-C2-O1=299.42            
O4-C3-C2-H22=181.93           O4-C3-C2-H23= 63.30           C8-C3-C2-O1= 61.42            C8-C3-C2-H22=303.93           
C8-C3-C2-H23=185.30           H24-C3-C2-O1=180.62           H24-C3-C2-H22= 63.13          H24-C3-C2-H23=304.50          
C5-O4-C3-C2=176.82            C5-O4-C3-C8= 55.60            C5-O4-C3-H24=295.30           C6-C5-O4-C3=301.23            
O12-C5-O4-C3=184.15           H25-C5-O4-C3= 62.12           C7-C6-C5-O4= 57.40            C7-C6-C5-O12=175.05           
C7-C6-C5-H25=296.61           O11-C6-C5-O4=176.81           O11-C6-C5-O12=294.46          O11-C6-C5-H25= 56.02          
H26-C6-C5-O4=298.57           H26-C6-C5-O12= 56.22          H26-C6-C5-H25=177.78          C8-C7-C6-C5=304.65            
C8-C7-C6-O11=183.50           C8-C7-C6-H26= 62.55           O10-C7-C6-C5=184.75           O10-C7-C6-O11= 63.59          
O10-C7-C6-H26=302.65          H27-C7-C6-C5= 63.65           H27-C7-C6-O11=302.49          H27-C7-C6-H26=181.55          
C7-C8-C3-C2=189.63            C7-C8-C3-O4=308.64            C7-C8-C3-H24= 69.81           O9-C8-C3-C2= 68.93            
O9-C8-C3-O4=187.95            O9-C8-C3-H24=309.12           H28-C8-C3-C2=308.85           H28-C8-C3-O4= 67.86           
H28-C8-C3-H24=189.04          C3-C8-C7-C6= 52.78            C3-C8-C7-O10=174.87           C3-C8-C7-H27=294.19           
O9-C8-C7-C6=171.74            O9-C8-C7-O10=293.82           O9-C8-C7-H27= 53.15           H28-C8-C7-C6=293.36           
H28-C8-C7-O10= 55.44          H28-C8-C7-H27=174.76          H29-O9-C8-C3=175.02           H29-O9-C8-C7= 54.30           
H29-O9-C8-H28=293.95          H30-O10-C7-C6=311.04          H30-O10-C7-C8=189.94          H30-O10-C7-H27= 71.21         
           -------------------------------------------------
          |                Final Singlepoint                |
           -------------------------------------------------

          ...................................................
          :                      SETUP                      :
          :.................................................:
          :  # basis functions                  98          :
          :  # atomic orbitals                  98          :
          :  # shells                           58          :
          :  # electrons                       112          :
          :  max. iterations                   250          :
          :  Hamiltonian                  GFN2-xTB          :
          :  restarted?                      false          :
          :  GBSA solvation                  false          :
          :  PC potential                    false          :
          :  electronic temp.          300.0000000     K    :
          :  accuracy                    1.0000000          :
          :  -> integral cutoff          0.2500000E+02      :
          :  -> integral neglect         0.1000000E-07      :
          :  -> SCF convergence          0.1000000E-05 Eh   :
          :  -> wf. convergence          0.1000000E-03 e    :
          :  Broyden damping             0.4000000          :
          :  net charge                          0          :
          :  unpaired electrons                  0          :
          ...................................................

 iter      E             dE          RMSdq      gap      omega  full diag
   1    -66.1227413 -0.661227E+02  0.695E-05    4.42       0.0  T
   2    -66.1227413 -0.207194E-10  0.439E-05    4.42     369.9  T
   3    -66.1227413 -0.407852E-11  0.277E-05    4.42     586.3  T

   *** convergence criteria satisfied after 3 iterations ***

         #    Occupation            Energy/Eh            Energy/eV
      -------------------------------------------------------------
         1        2.0000           -0.7469245             -20.3248
       ...           ...                  ...                  ...
        50        2.0000           -0.4314895             -11.7414
        51        2.0000           -0.4259823             -11.5916
        52        2.0000           -0.4209507             -11.4547
        53        2.0000           -0.4199349             -11.4270
        54        2.0000           -0.4159617             -11.3189
        55        2.0000           -0.4120964             -11.2137
        56        2.0000           -0.4059352             -11.0461 (HOMO)
        57                         -0.2433904              -6.6230 (LUMO)
        58                         -0.2416995              -6.5770
        59                         -0.1163678              -3.1665
        60                         -0.0395756              -1.0769
        61                         -0.0232168              -0.6318
       ...                                ...                  ...
        98                          0.6394887              17.4014
      -------------------------------------------------------------
                  HL-Gap            0.1625449 Eh            4.4231 eV
             Fermi-level           -0.3246628 Eh           -8.8345 eV

 SCC (total)                   0 d,  0 h,  0 min,  0.065 sec
 SCC setup                      ...        0 min,  0.000 sec (  0.375%)
 Dispersion                     ...        0 min,  0.000 sec (  0.363%)
 classical contributions        ...        0 min,  0.000 sec (  0.173%)
 integral evaluation            ...        0 min,  0.006 sec (  9.728%)
 iterations                     ...        0 min,  0.005 sec (  7.650%)
 molecular gradient             ...        0 min,  0.053 sec ( 81.322%)
 printout                       ...        0 min,  0.000 sec (  0.193%)

         :::::::::::::::::::::::::::::::::::::::::::::::::::::
         ::                     SUMMARY                     ::
         :::::::::::::::::::::::::::::::::::::::::::::::::::::
         :: total energy             -65.474911311459 Eh    ::
         :: gradient norm              0.000206480601 Eh/a0 ::
         :: HOMO-LUMO gap              4.423071176881 eV    ::
         ::.................................................::
         :: SCC energy               -66.122144945772 Eh    ::
         :: -> isotropic ES            0.153786378098 Eh    ::
         :: -> anisotropic ES         -0.008341790451 Eh    ::
         :: -> anisotropic XC         -0.002486606164 Eh    ::
         :: -> dispersion             -0.037532795622 Eh    ::
         :: repulsion energy           0.647233634313 Eh    ::
         :: add. restraining           0.000000000000 Eh    ::
         :: total charge               0.000000000000 e     ::
         :::::::::::::::::::::::::::::::::::::::::::::::::::::

           -------------------------------------------------
          |                Property Printout                |
           -------------------------------------------------

    * Orbital Energies and Occupations

         #    Occupation            Energy/Eh            Energy/eV
      -------------------------------------------------------------
         1        2.0000           -0.7469245             -20.3248
       ...           ...                  ...                  ...
        44        2.0000           -0.4686162             -12.7517
        45        2.0000           -0.4626488             -12.5893
        46        2.0000           -0.4573527             -12.4452
        47        2.0000           -0.4540064             -12.3541
        48        2.0000           -0.4508047             -12.2670
        49        2.0000           -0.4344280             -11.8214
        50        2.0000           -0.4314895             -11.7414
        51        2.0000           -0.4259823             -11.5916
        52        2.0000           -0.4209507             -11.4547
        53        2.0000           -0.4199349             -11.4270
        54        2.0000           -0.4159617             -11.3189
        55        2.0000           -0.4120964             -11.2137
        56        2.0000           -0.4059352             -11.0461 (HOMO)
        57                         -0.2433904              -6.6230 (LUMO)
        58                         -0.2416995              -6.5770
        59                         -0.1163678              -3.1665
        60                         -0.0395756              -1.0769
        61                         -0.0232168              -0.6318
        62                          0.0072844               0.1982
        63                          0.0210707               0.5734
        64                          0.0422013               1.1484
        65                          0.0577099               1.5704
        66                          0.0627751               1.7082
        67                          0.0720455               1.9605
       ...                                ...                  ...
        98                          0.6394887              17.4014
      -------------------------------------------------------------
                  HL-Gap            0.1625449 Eh            4.4231 eV
             Fermi-level           -0.3246628 Eh           -8.8345 eV

     #   Z          covCN         q      C6AA      α(0)
     1   8 O        1.656    -0.428    21.397     6.244
     2   6 C        3.676     0.071    19.610     6.345
     3   6 C        3.744     0.097    19.042     6.225
     4   8 O        1.701    -0.353    19.942     6.029
     5   6 C        3.647     0.249    17.041     5.932
     6   6 C        3.728     0.089    19.200     6.256
     7   6 C        3.731     0.099    19.034     6.228
     8   6 C        3.729     0.096    19.082     6.236
     9   8 O        1.657    -0.438    21.600     6.274
    10   8 O        1.656    -0.442    21.674     6.285
    11   8 O        1.656    -0.443    21.711     6.290
    12   8 O        1.705    -0.314    19.239     5.922
    13   6 C        2.875     0.135    25.059     8.206
    14   6 C        2.917    -0.052    29.292     8.875
    15   6 C        2.921    -0.030    28.757     8.794
    16   6 C        2.918    -0.033    28.818     8.803
    17   6 C        2.925    -0.033    28.827     8.805
    18   6 C        2.964    -0.013    28.334     8.731
    19   6 C        3.679     0.085    19.374     6.305
    20   8 O        1.655    -0.462    22.081     6.343
    21   1 H        0.805     0.313     0.684     1.299
    22   1 H        0.924     0.079     1.993     2.208
    23   1 H        0.924     0.039     2.469     2.457
    24   1 H        0.923     0.034     2.537     2.491
    25   1 H        0.922     0.007     2.945     2.684
    26   1 H        0.923     0.043     2.415     2.430
    27   1 H        0.923     0.031     2.573     2.509
    28   1 H        0.923     0.053     2.279     2.361
    29   1 H        0.805     0.320     0.665     1.280
    30   1 H        0.805     0.315     0.678     1.294
    31   1 H        0.805     0.311     0.690     1.305
    32   1 H        0.926     0.042     2.418     2.432
    33   1 H        0.926     0.046     2.375     2.410
    34   1 H        0.926     0.046     2.364     2.405
    35   1 H        0.926     0.051     2.309     2.376
    36   1 H        0.924     0.049     2.338     2.391
    37   1 H        0.923     0.031     2.573     2.509
    38   1 H        0.804     0.312     0.685     1.300

 Mol. C6AA /au·bohr⁶  :      14024.612830
 Mol. C8AA /au·bohr⁸  :     316315.767407
 Mol. α(0) /au        :        177.267028


Wiberg/Mayer (AO) data.
largest (>0.10) Wiberg bond orders for each atom

 ---------------------------------------------------------------------------
     #   Z sym  total        # sym  WBO       # sym  WBO       # sym  WBO
 ---------------------------------------------------------------------------
     1   8 O    1.975 --     2 C    1.023    21 H    0.883
     2   6 C    3.961 --     1 O    1.023     3 C    0.970    23 H    0.968
                            22 H    0.966
     3   6 C    3.935 --     8 C    0.972     2 C    0.970    24 H    0.958
                             4 O    0.949
     4   8 O    2.084 --     5 C    0.953     3 C    0.949
     5   6 C    3.927 --    12 O    0.988     4 O    0.953     6 C    0.953
                            25 H    0.944
     6   6 C    3.958 --    11 O    0.998     7 C    0.971    26 H    0.956
                             5 C    0.953
     7   6 C    3.962 --    10 O    1.000     6 C    0.971     8 C    0.968
                            27 H    0.955
     8   6 C    3.963 --     9 O    1.005     3 C    0.972     7 C    0.968
                            28 H    0.954
     9   8 O    1.958 --     8 C    1.005    29 H    0.881
    10   8 O    1.959 --     7 C    1.000    30 H    0.883
    11   8 O    1.959 --     6 C    0.998    31 H    0.885
    12   8 O    2.136 --     5 C    0.988    13 C    0.967
    13   6 C    3.923 --    14 C    1.408    18 C    1.369    12 O    0.967
                            16 C    0.104
    14   6 C    3.990 --    15 C    1.438    13 C    1.408    32 H    0.966
                            17 C    0.108
    15   6 C    3.991 --    16 C    1.439    14 C    1.438    33 H    0.970
                            18 C    0.109
    16   6 C    3.991 --    17 C    1.440    15 C    1.439    34 H    0.970
                            13 C    0.104
    17   6 C    3.990 --    16 C    1.440    18 C    1.421    35 H    0.967
                            14 C    0.108
    18   6 C    3.986 --    17 C    1.421    13 C    1.369    19 C    0.995
                            15 C    0.109
    19   6 C    3.963 --    20 O    0.997    18 C    0.995    36 H    0.972
                            37 H    0.961
    20   8 O    1.946 --    19 C    0.997    38 H    0.856
    21   1 H    0.902 --     1 O    0.883
    22   1 H    0.993 --     2 C    0.966
    23   1 H    0.998 --     2 C    0.968
    24   1 H    0.999 --     3 C    0.958
    25   1 H    1.000 --     5 C    0.944
    26   1 H    0.998 --     6 C    0.956
    27   1 H    0.999 --     7 C    0.955
    28   1 H    0.997 --     8 C    0.954
    29   1 H    0.898 --     9 O    0.881
    30   1 H    0.901 --    10 O    0.883
    31   1 H    0.903 --    11 O    0.885
    32   1 H    0.998 --    14 C    0.966
    33   1 H    0.997 --    15 C    0.970
    34   1 H    0.997 --    16 C    0.970
    35   1 H    0.997 --    17 C    0.967
    36   1 H    0.997 --    19 C    0.972
    37   1 H    0.999 --    19 C    0.961
    38   1 H    0.902 --    20 O    0.856
 ---------------------------------------------------------------------------

Topologies differ in total number of bonds
Writing topology from bond orders to xtbtopo.mol

molecular dipole:
                 x           y           z       tot (Debye)
 q only:       -0.655       0.488      -0.958
   full:       -0.893       0.982      -1.464       5.022
molecular quadrupole (traceless):
                xx          xy          yy          xz          yz          zz
 q only:        4.869       2.052       0.164       1.613       4.563      -5.033
  q+dip:        1.227       6.943      -0.762      -0.994       7.882      -0.465
   full:        2.155       4.534       1.254      -0.621       7.424      -3.410

           -------------------------------------------------
          |                Geometry Summary                 |
           -------------------------------------------------

      molecular mass/u    :      286.2783346
   center of mass at/Å    :        0.0729938       0.0735889       0.0527165
  moments of inertia/u·Å² :        0.9166068E+03   0.2213715E+04   0.2651243E+04
rotational constants/cm⁻¹ :        0.1839134E-01   0.7615086E-02   0.6358387E-02

 * 38 selected distances

     #   Z          #   Z                                           value/Å
     1   8 O        2   6 C                                       1.3972567
     2   6 C        3   6 C                                       1.5390559 (max)
     3   6 C        4   8 O                                       1.4174801
     4   8 O        5   6 C                                       1.4079381
     5   6 C        6   6 C                                       1.5338444
     6   6 C        7   6 C                                       1.5283417
     3   6 C        8   6 C                                       1.5332203
     7   6 C        8   6 C                                       1.5345498
     8   6 C        9   8 O                                       1.4022918
     7   6 C       10   8 O                                       1.4050222
     6   6 C       11   8 O                                       1.4053618
     5   6 C       12   8 O                                       1.3884548
    12   8 O       13   6 C                                       1.3977670
    13   6 C       14   6 C                                       1.3865945
    14   6 C       15   6 C                                       1.3836300
    15   6 C       16   6 C                                       1.3835085
    16   6 C       17   6 C                                       1.3839728
    13   6 C       18   6 C                                       1.3962488
    17   6 C       18   6 C                                       1.3874466
    19   6 C       20   8 O                                       1.4096432
     1   8 O       21   1 H                                       0.9662332
     2   6 C       22   1 H                                       1.0914428
     2   6 C       23   1 H                                       1.0971958
     3   6 C       24   1 H                                       1.1003974
     5   6 C       25   1 H                                       1.1077263
     6   6 C       26   1 H                                       1.1009519
     7   6 C       27   1 H                                       1.1034135
     8   6 C       28   1 H                                       1.1006596
     9   8 O       29   1 H                                       0.9656135
    10   8 O       30   1 H                                       0.9649028 (min)
    11   8 O       31   1 H                                       0.9649731
    14   6 C       32   1 H                                       1.0802982
    15   6 C       33   1 H                                       1.0794600
    16   6 C       34   1 H                                       1.0793407
    17   6 C       35   1 H                                       1.0797813
    19   6 C       36   1 H                                       1.0923502
    19   6 C       37   1 H                                       1.1007130
    20   8 O       38   1 H                                       0.9705227

 * 4 distinct bonds (by element types)

   Z      Z             #   av. dist./Å        max./Å        min./Å
   1 H    6 C          13     1.0933639     1.1077263     1.0793407
   6 C    6 C          11     1.4536739     1.5390559     1.3835085
   1 H    8 O           5     0.9664491     0.9705227     0.9649028
   6 C    8 O           9     1.4034684     1.4174801     1.3884548


optimized geometry written to: xtbopt.xyz


           -------------------------------------------------
          | TOTAL ENERGY              -65.474911311459 Eh   |
          | GRADIENT NORM               0.000206480601 Eh/α |
          | HOMO-LUMO GAP               4.423071176881 eV   |
           -------------------------------------------------

------------------------------------------------------------------------
 * finished run on 2025/05/15 at 16:12:10.801     
------------------------------------------------------------------------
 total:
 * wall-time:     0 d,  0 h,  0 min,  1.039 sec
 *  cpu-time:     0 d,  0 h,  0 min,  0.884 sec
 * ratio c/w:     0.851 speedup
 SCF:
 * wall-time:     0 d,  0 h,  0 min,  0.054 sec
 *  cpu-time:     0 d,  0 h,  0 min,  0.046 sec
 * ratio c/w:     0.847 speedup
 ANC optimizer:
 * wall-time:     0 d,  0 h,  0 min,  0.970 sec
 *  cpu-time:     0 d,  0 h,  0 min,  0.827 sec
 * ratio c/w:     0.852 speedup



----- Single-point -----
      -----------------------------------------------------------      
     |                   =====================                   |     
     |                           x T B                           |     
     |                   =====================                   |     
     |                         S. Grimme                         |     
     |          Mulliken Center for Theoretical Chemistry        |     
     |                    University of Bonn                     |     
      -----------------------------------------------------------      

   * xtb version 6.7.1 (edcfbbe) compiled by 'conda@3ef47c1a292c' on 2024-11-25

   xtb is free software: you can redistribute it and/or modify it under
   the terms of the GNU Lesser General Public License as published by
   the Free Software Foundation, either version 3 of the License, or
   (at your option) any later version.
   
   xtb is distributed in the hope that it will be useful,
   but WITHOUT ANY WARRANTY; without even the implied warranty of
   MERCHANTABILITY or FITNESS FOR A PARTICULAR PURPOSE.  See the
   GNU Lesser General Public License for more details.
   
   Cite this work as:
   * C. Bannwarth, E. Caldeweyher, S. Ehlert, A. Hansen, P. Pracht,
     J. Seibert, S. Spicher, S. Grimme, WIREs Comput. Mol. Sci., 2020, 11,
     e01493. DOI: 10.1002/wcms.1493
   
   for GFN2-xTB:
   * C. Bannwarth, S. Ehlert and S. Grimme., J. Chem. Theory Comput., 2019,
     15, 1652-1671. DOI: 10.1021/acs.jctc.8b01176
   for GFN1-xTB:
   * S. Grimme, C. Bannwarth, P. Shushkov, J. Chem. Theory Comput., 2017,
     13, 1989-2009. DOI: 10.1021/acs.jctc.7b00118
   for GFN0-xTB:
   * P. Pracht, E. Caldeweyher, S. Ehlert, S. Grimme, ChemRxiv, 2019, preprint.
     DOI: 10.26434/chemrxiv.8326202.v1
   for GFN-FF:
   * S. Spicher and S. Grimme, Angew. Chem. Int. Ed., 2020, 59, 15665-15673.
     DOI: 10.1002/anie.202004239
   
   for ALPB and GBSA implicit solvation:
   * S. Ehlert, M. Stahn, S. Spicher, S. Grimme, J. Chem. Theory Comput.,
     2021, 17, 4250-4261. DOI: 10.1021/acs.jctc.1c00471
   
   for ddCOSMO and CPCM-X implicit solvation:
   * M. Stahn, S. Ehlert, S. Grimme, J. Phys. Chem. A,
     2023, XX, XXXX-XXXX. DOI: 10.1021/acs.jpca.3c04382
   
   for DFT-D4:
   * E. Caldeweyher, C. Bannwarth and S. Grimme, J. Chem. Phys., 2017,
     147, 034112. DOI: 10.1063/1.4993215
   * E. Caldeweyher, S. Ehlert, A. Hansen, H. Neugebauer, S. Spicher,
     C. Bannwarth and S. Grimme, J. Chem. Phys., 2019, 150, 154122.
     DOI: 10.1063/1.5090222
   * E. Caldeweyher, J.-M. Mewes, S. Ehlert and S. Grimme, Phys. Chem. Chem. Phys.
     2020, 22, 8499-8512. DOI: 10.1039/D0CP00502A
   
   for sTDA-xTB:
   * S. Grimme and C. Bannwarth, J. Chem. Phys., 2016, 145, 054103.
     DOI: 10.1063/1.4959605
   
   in the mass-spec context:
   * V. Asgeirsson, C. Bauer and S. Grimme, Chem. Sci., 2017, 8, 4879.
     DOI: 10.1039/c7sc00601b
   * J. Koopman and S. Grimme, ACS Omega 2019, 4, 12, 15120-15133.
     DOI: 10.1021/acsomega.9b02011
   
   for metadynamics refer to:
   * S. Grimme, J. Chem. Theory Comput., 2019, 155, 2847-2862
     DOI: 10.1021/acs.jctc.9b00143
   
   for SPH calculations refer to:
   * S. Spicher and S. Grimme, J. Chem. Theory Comput., 2021, 17, 1701-1714
     DOI: 10.1021/acs.jctc.0c01306
   
   for ONIOM refer to:
   * C. Plett, A. Katbashev, S. Ehlert, S. Grimme, M. Bursch,
     Phys. Chem. Chem. Phys., 2023, 25, 17860-17868. DOI: 10.1039/D3CP02178E
   
   for DIPRO refer to:
   * J. Kohn, N. Gildemeister, S. Grimme, D. Fazzi, A. Hansen,
     J. Chem. Phys., 2023, just accepted.
   
   for PTB refer to:
   * S. Grimme, M. Mueller, A. Hansen, J. Chem. Phys., 2023, 158, 124111.
     DOI: 10.1063/5.0137838
   
   with help from (in alphabetical order)
   P. Atkinson, C. Bannwarth, F. Bohle, G. Brandenburg, E. Caldeweyher
   M. Checinski, S. Dohm, S. Ehlert, S. Ehrlich, I. Gerasimov, C. Hölzer
   A. Katbashev, J. Kohn, J. Koopman, C. Lavigne, S. Lehtola, F. März, M. Müller,
   F. Musil, H. Neugebauer, J. Pisarek, C. Plett, P. Pracht, F. Pultar,
   J. Seibert, P. Shushkov, S. Spicher, M. Stahn, M. Steiner, T. Strunk,
   J. Stückrath, T. Rose, and J. Unsleber
   
 * started run on 2025/05/15 at 16:12:10.817     
   ID    Z sym.   atoms
    1    8 O      1, 4, 9-12, 20
    2    6 C      2, 3, 5-8, 13-19
    3    1 H      21-38

           -------------------------------------------------
          |                Calculation Setup                |
           -------------------------------------------------

          program call               : xtb /rds/general/user/hgt20/home/callum/QDESCP/Salicin_rdkit_conf_11/Salicin_rdkit_conf_11.xyz --acc 1 --gfn 2 --chrg 0 --uhf 0 --etemp 300 --input /rds/general/user/hgt20/home/callum/QDESCP/Salicin_rdkit_conf_11/Salicin_rdkit_conf_11_xtb.inp -P 1
          hostname                   : login-c
          coordinate file            : /rds/general/user/hgt20/home/callum/QDESCP/Salicin_rdkit_conf_11/Salicin_rdkit_conf_11.xyz
          omp threads                :                     1


           -------------------------------------------------
          |                 G F N 2 - x T B                 |
           -------------------------------------------------

        Reference                      10.1021/acs.jctc.8b01176
      * Hamiltonian:
        H0-scaling (s, p, d)           1.850000    2.230000    2.230000
        zeta-weighting                 0.500000
      * Dispersion:
        s8                             2.700000
        a1                             0.520000
        a2                             5.000000
        s9                             5.000000
      * Repulsion:
        kExp                           1.500000    1.000000
        rExp                           1.000000
      * Coulomb:
        alpha                          2.000000
        third order                    shell-resolved
        anisotropic                    true
        a3                             3.000000
        a5                             4.000000
        cn-shift                       1.200000
        cn-exp                         4.000000
        max-rad                        5.000000

q/qsh data taken from xtbrestart
CAMM data taken from xtbrestart

          ...................................................
          :                      SETUP                      :
          :.................................................:
          :  # basis functions                  98          :
          :  # atomic orbitals                  98          :
          :  # shells                           58          :
          :  # electrons                       112          :
          :  max. iterations                   250          :
          :  Hamiltonian                  GFN2-xTB          :
          :  restarted?                       true          :
          :  GBSA solvation                  false          :
          :  PC potential                    false          :
          :  electronic temp.          300.0000000     K    :
          :  accuracy                    1.0000000          :
          :  -> integral cutoff          0.2500000E+02      :
          :  -> integral neglect         0.1000000E-07      :
          :  -> SCF convergence          0.1000000E-05 Eh   :
          :  -> wf. convergence          0.1000000E-03 e    :
          :  Broyden damping             0.4000000          :
          :  net charge                          0          :
          :  unpaired electrons                  0          :
          ...................................................

 iter      E             dE          RMSdq      gap      omega  full diag
   1    -66.1227413 -0.661227E+02  0.571E-06    4.42       0.0  T
   2    -66.1227413 -0.653699E-12  0.352E-06    4.42    4604.8  T
   3    -66.1227413 -0.213163E-12  0.223E-06    4.42    7286.9  T

   *** convergence criteria satisfied after 3 iterations ***

         #    Occupation            Energy/Eh            Energy/eV
      -------------------------------------------------------------
         1        2.0000           -0.7469245             -20.3248
       ...           ...                  ...                  ...
        50        2.0000           -0.4314895             -11.7414
        51        2.0000           -0.4259823             -11.5916
        52        2.0000           -0.4209506             -11.4546
        53        2.0000           -0.4199349             -11.4270
        54        2.0000           -0.4159617             -11.3189
        55        2.0000           -0.4120965             -11.2137
        56        2.0000           -0.4059354             -11.0461 (HOMO)
        57                         -0.2433904              -6.6230 (LUMO)
        58                         -0.2416995              -6.5770
        59                         -0.1163679              -3.1665
        60                         -0.0395756              -1.0769
        61                         -0.0232167              -0.6318
       ...                                ...                  ...
        98                          0.6394887              17.4014
      -------------------------------------------------------------
                  HL-Gap            0.1625449 Eh            4.4231 eV
             Fermi-level           -0.3246629 Eh           -8.8345 eV

 SCC (total)                   0 d,  0 h,  0 min,  0.065 sec
 SCC setup                      ...        0 min,  0.000 sec (  0.450%)
 Dispersion                     ...        0 min,  0.000 sec (  0.571%)
 classical contributions        ...        0 min,  0.000 sec (  0.184%)
 integral evaluation            ...        0 min,  0.007 sec ( 10.323%)
 iterations                     ...        0 min,  0.006 sec (  9.662%)
 molecular gradient             ...        0 min,  0.051 sec ( 78.513%)
 printout                       ...        0 min,  0.000 sec (  0.286%)

         :::::::::::::::::::::::::::::::::::::::::::::::::::::
         ::                     SUMMARY                     ::
         :::::::::::::::::::::::::::::::::::::::::::::::::::::
         :: total energy             -65.474911311467 Eh    ::
         :: gradient norm              0.000206523474 Eh/a0 ::
         :: HOMO-LUMO gap              4.423073112639 eV    ::
         ::.................................................::
         :: SCC energy               -66.122144945780 Eh    ::
         :: -> isotropic ES            0.153786436782 Eh    ::
         :: -> anisotropic ES         -0.008341779596 Eh    ::
         :: -> anisotropic XC         -0.002486598560 Eh    ::
         :: -> dispersion             -0.037532795171 Eh    ::
         :: repulsion energy           0.647233634313 Eh    ::
         :: add. restraining           0.000000000000 Eh    ::
         :: total charge               0.000000000000 e     ::
         :::::::::::::::::::::::::::::::::::::::::::::::::::::

           -------------------------------------------------
          |                Property Printout                |
           -------------------------------------------------

    * Orbital Energies and Occupations

         #    Occupation            Energy/Eh            Energy/eV
      -------------------------------------------------------------
         1        2.0000           -0.7469245             -20.3248
       ...           ...                  ...                  ...
        44        2.0000           -0.4686162             -12.7517
        45        2.0000           -0.4626488             -12.5893
        46        2.0000           -0.4573527             -12.4452
        47        2.0000           -0.4540065             -12.3541
        48        2.0000           -0.4508046             -12.2670
        49        2.0000           -0.4344279             -11.8214
        50        2.0000           -0.4314895             -11.7414
        51        2.0000           -0.4259823             -11.5916
        52        2.0000           -0.4209506             -11.4546
        53        2.0000           -0.4199349             -11.4270
        54        2.0000           -0.4159617             -11.3189
        55        2.0000           -0.4120965             -11.2137
        56        2.0000           -0.4059354             -11.0461 (HOMO)
        57                         -0.2433904              -6.6230 (LUMO)
        58                         -0.2416995              -6.5770
        59                         -0.1163679              -3.1665
        60                         -0.0395756              -1.0769
        61                         -0.0232167              -0.6318
        62                          0.0072845               0.1982
        63                          0.0210708               0.5734
        64                          0.0422014               1.1484
        65                          0.0577099               1.5704
        66                          0.0627751               1.7082
        67                          0.0720455               1.9605
       ...                                ...                  ...
        98                          0.6394887              17.4014
      -------------------------------------------------------------
                  HL-Gap            0.1625449 Eh            4.4231 eV
             Fermi-level           -0.3246629 Eh           -8.8345 eV

     #   Z          covCN         q      C6AA      α(0)
     1   8 O        1.656    -0.428    21.397     6.244
     2   6 C        3.676     0.071    19.610     6.345
     3   6 C        3.744     0.097    19.042     6.225
     4   8 O        1.701    -0.353    19.942     6.029
     5   6 C        3.647     0.249    17.041     5.932
     6   6 C        3.728     0.089    19.200     6.256
     7   6 C        3.731     0.099    19.034     6.228
     8   6 C        3.729     0.096    19.082     6.236
     9   8 O        1.657    -0.438    21.600     6.274
    10   8 O        1.656    -0.442    21.674     6.285
    11   8 O        1.656    -0.443    21.711     6.290
    12   8 O        1.705    -0.314    19.239     5.922
    13   6 C        2.875     0.135    25.059     8.206
    14   6 C        2.917    -0.052    29.292     8.875
    15   6 C        2.921    -0.030    28.757     8.794
    16   6 C        2.918    -0.033    28.818     8.803
    17   6 C        2.925    -0.033    28.827     8.805
    18   6 C        2.964    -0.013    28.335     8.731
    19   6 C        3.679     0.085    19.374     6.305
    20   8 O        1.655    -0.462    22.081     6.343
    21   1 H        0.805     0.313     0.684     1.299
    22   1 H        0.924     0.079     1.993     2.208
    23   1 H        0.924     0.039     2.469     2.457
    24   1 H        0.923     0.034     2.537     2.491
    25   1 H        0.922     0.007     2.945     2.684
    26   1 H        0.923     0.043     2.415     2.430
    27   1 H        0.923     0.031     2.573     2.509
    28   1 H        0.923     0.053     2.279     2.361
[...]
     e01493. DOI: 10.1002/wcms.1493
   
   for GFN2-xTB:
   * C. Bannwarth, S. Ehlert and S. Grimme., J. Chem. Theory Comput., 2019,
     15, 1652-1671. DOI: 10.1021/acs.jctc.8b01176
   for GFN1-xTB:
   * S. Grimme, C. Bannwarth, P. Shushkov, J. Chem. Theory Comput., 2017,
     13, 1989-2009. DOI: 10.1021/acs.jctc.7b00118
   for GFN0-xTB:
   * P. Pracht, E. Caldeweyher, S. Ehlert, S. Grimme, ChemRxiv, 2019, preprint.
     DOI: 10.26434/chemrxiv.8326202.v1
   for GFN-FF:
   * S. Spicher and S. Grimme, Angew. Chem. Int. Ed., 2020, 59, 15665-15673.
     DOI: 10.1002/anie.202004239
   
   for ALPB and GBSA implicit solvation:
   * S. Ehlert, M. Stahn, S. Spicher, S. Grimme, J. Chem. Theory Comput.,
     2021, 17, 4250-4261. DOI: 10.1021/acs.jctc.1c00471
   
   for ddCOSMO and CPCM-X implicit solvation:
   * M. Stahn, S. Ehlert, S. Grimme, J. Phys. Chem. A,
     2023, XX, XXXX-XXXX. DOI: 10.1021/acs.jpca.3c04382
   
   for DFT-D4:
   * E. Caldeweyher, C. Bannwarth and S. Grimme, J. Chem. Phys., 2017,
     147, 034112. DOI: 10.1063/1.4993215
   * E. Caldeweyher, S. Ehlert, A. Hansen, H. Neugebauer, S. Spicher,
     C. Bannwarth and S. Grimme, J. Chem. Phys., 2019, 150, 154122.
     DOI: 10.1063/1.5090222
   * E. Caldeweyher, J.-M. Mewes, S. Ehlert and S. Grimme, Phys. Chem. Chem. Phys.
     2020, 22, 8499-8512. DOI: 10.1039/D0CP00502A
   
   for sTDA-xTB:
   * S. Grimme and C. Bannwarth, J. Chem. Phys., 2016, 145, 054103.
     DOI: 10.1063/1.4959605
   
   in the mass-spec context:
   * V. Asgeirsson, C. Bauer and S. Grimme, Chem. Sci., 2017, 8, 4879.
     DOI: 10.1039/c7sc00601b
   * J. Koopman and S. Grimme, ACS Omega 2019, 4, 12, 15120-15133.
     DOI: 10.1021/acsomega.9b02011
   
   for metadynamics refer to:
   * S. Grimme, J. Chem. Theory Comput., 2019, 155, 2847-2862
     DOI: 10.1021/acs.jctc.9b00143
   
   for SPH calculations refer to:
   * S. Spicher and S. Grimme, J. Chem. Theory Comput., 2021, 17, 1701-1714
     DOI: 10.1021/acs.jctc.0c01306
   
   for ONIOM refer to:
   * C. Plett, A. Katbashev, S. Ehlert, S. Grimme, M. Bursch,
     Phys. Chem. Chem. Phys., 2023, 25, 17860-17868. DOI: 10.1039/D3CP02178E
   
   for DIPRO refer to:
   * J. Kohn, N. Gildemeister, S. Grimme, D. Fazzi, A. Hansen,
     J. Chem. Phys., 2023, just accepted.
   
   for PTB refer to:
   * S. Grimme, M. Mueller, A. Hansen, J. Chem. Phys., 2023, 158, 124111.
     DOI: 10.1063/5.0137838
   
   with help from (in alphabetical order)
   P. Atkinson, C. Bannwarth, F. Bohle, G. Brandenburg, E. Caldeweyher
   M. Checinski, S. Dohm, S. Ehlert, S. Ehrlich, I. Gerasimov, C. Hölzer
   A. Katbashev, J. Kohn, J. Koopman, C. Lavigne, S. Lehtola, F. März, M. Müller,
   F. Musil, H. Neugebauer, J. Pisarek, C. Plett, P. Pracht, F. Pultar,
   J. Seibert, P. Shushkov, S. Spicher, M. Stahn, M. Steiner, T. Strunk,
   J. Stückrath, T. Rose, and J. Unsleber
   
 * started run on 2025/05/15 at 16:12:12.686     
   ID    Z sym.   atoms
    1    8 O      1, 4, 9-12, 20
    2    6 C      2, 3, 5-8, 13-19
    3    1 H      21-38

           -------------------------------------------------
          |                Calculation Setup                |
           -------------------------------------------------

          program call               : xtb /rds/general/user/hgt20/home/callum/QDESCP/Salicin_rdkit_conf_11/Salicin_rdkit_conf_11.xyz --acc 1 --gfn 2 --chrg 0 --uhf 2 --etemp 300 --input /rds/general/user/hgt20/home/callum/QDESCP/Salicin_rdkit_conf_11/Salicin_rdkit_conf_11_xtb.inp -P 1
          hostname                   : login-c
          coordinate file            : /rds/general/user/hgt20/home/callum/QDESCP/Salicin_rdkit_conf_11/Salicin_rdkit_conf_11.xyz
          omp threads                :                     1


           -------------------------------------------------
          |                 G F N 2 - x T B                 |
           -------------------------------------------------

        Reference                      10.1021/acs.jctc.8b01176
      * Hamiltonian:
        H0-scaling (s, p, d)           1.850000    2.230000    2.230000
        zeta-weighting                 0.500000
      * Dispersion:
        s8                             2.700000
        a1                             0.520000
        a2                             5.000000
        s9                             5.000000
      * Repulsion:
        kExp                           1.500000    1.000000
        rExp                           1.000000
      * Coulomb:
        alpha                          2.000000
        third order                    shell-resolved
        anisotropic                    true
        a3                             3.000000
        a5                             4.000000
        cn-shift                       1.200000
        cn-exp                         4.000000
        max-rad                        5.000000


          ...................................................
          :                      SETUP                      :
          :.................................................:
          :  # basis functions                  98          :
          :  # atomic orbitals                  98          :
          :  # shells                           58          :
          :  # electrons                       112          :
          :  max. iterations                   250          :
          :  Hamiltonian                  GFN2-xTB          :
          :  restarted?                      false          :
          :  GBSA solvation                  false          :
          :  PC potential                    false          :
          :  electronic temp.          300.0000000     K    :
          :  accuracy                    1.0000000          :
          :  -> integral cutoff          0.2500000E+02      :
          :  -> integral neglect         0.1000000E-07      :
          :  -> SCF convergence          0.1000000E-05 Eh   :
          :  -> wf. convergence          0.1000000E-03 e    :
          :  Broyden damping             0.4000000          :
          :  net charge                          0          :
          :  unpaired electrons                  2          :
          ...................................................

 iter      E             dE          RMSdq      gap      omega  full diag
   1    -65.8508809 -0.658509E+02  0.456E+00    0.19       0.0  T
   2    -65.7869187  0.639623E-01  0.359E+00    0.74       1.0  T
   3    -65.8291690 -0.422504E-01  0.257E+00    0.71       1.0  T
   4    -65.8690051 -0.398361E-01  0.113E+00    0.06       1.0  T
   5    -65.9343891 -0.653840E-01  0.849E-01    0.06       1.0  T
   6    -65.9495750 -0.151859E-01  0.442E-01    0.08       1.0  T
   7    -65.9507162 -0.114119E-02  0.324E-01    0.07       1.0  T
   8    -65.9492064  0.150977E-02  0.435E-01    0.03       1.0  T
   9    -65.9504239 -0.121746E-02  0.353E-01    0.09       1.0  T
  10    -65.9529152 -0.249130E-02  0.176E-01    0.07       1.0  T
  11    -65.9536845 -0.769345E-03  0.490E-02    0.06       1.0  T
  12    -65.9537154 -0.308946E-04  0.301E-02    0.06       1.0  T
  13    -65.9537535 -0.381345E-04  0.920E-03    0.06       1.8  T
  14    -65.9537563 -0.274436E-05  0.436E-03    0.06       3.7  T
  15    -65.9537570 -0.753321E-06  0.136E-03    0.06      11.9  T
  16    -65.9537571 -0.440857E-07  0.711E-04    0.06      22.8  T
  17    -65.9537571 -0.211455E-07  0.212E-04    0.06      76.6  T

   *** convergence criteria satisfied after 17 iterations ***

         #    Occupation            Energy/Eh            Energy/eV
      -------------------------------------------------------------
         1        2.0000           -0.7527938             -20.4846
       ...           ...                  ...                  ...
        51        2.0000           -0.4286047             -11.6629
        52        2.0000           -0.4247482             -11.5580
        53        2.0000           -0.4199571             -11.4276
        54        1.9960           -0.4123730             -11.2212
        55        1.9230           -0.4094889             -11.1428
        56        1.0810           -0.4048210             -11.0157
        57        0.7683           -0.2333445              -6.3496 (HOMO)
        58        0.2317           -0.2310665              -6.2876 (LUMO)
        59                         -0.1060513              -2.8858
        60                         -0.0443571              -1.2070
        61                         -0.0258588              -0.7037
        62                          0.0031148               0.0848
       ...                                ...                  ...
        98                          0.6493504              17.6697
      -------------------------------------------------------------
                  HL-Gap            0.0022779 Eh            0.0620 eV
             Fermi-level           -0.3196672 Eh           -8.6986 eV

 transition dipole moment (au) for excitation:          56          57
     X       Y       Z   
   1.0122   0.5432  -0.5758  total (au/Debye):    1.285   3.266
 dE (eV)             :    4.666
 oscillator strength :  0.26695E+00

 SCC (total)                   0 d,  0 h,  0 min,  0.106 sec
 SCC setup                      ...        0 min,  0.000 sec (  0.269%)
 Dispersion                     ...        0 min,  0.000 sec (  0.348%)
 classical contributions        ...        0 min,  0.000 sec (  0.112%)
 integral evaluation            ...        0 min,  0.007 sec (  6.218%)
 iterations                     ...        0 min,  0.029 sec ( 27.710%)
 molecular gradient             ...        0 min,  0.064 sec ( 59.703%)
 printout                       ...        0 min,  0.006 sec (  5.634%)

         :::::::::::::::::::::::::::::::::::::::::::::::::::::
         ::                     SUMMARY                     ::
         :::::::::::::::::::::::::::::::::::::::::::::::::::::
         :: total energy             -65.305927070904 Eh    ::
         :: gradient norm              0.130787756444 Eh/a0 ::
         :: HOMO-LUMO gap              0.061986040618 eV    ::
         ::.................................................::
         :: SCC energy               -65.953160705217 Eh    ::
         :: -> isotropic ES            0.149457225204 Eh    ::
         :: -> anisotropic ES         -0.006855895818 Eh    ::
         :: -> anisotropic XC         -0.003054793564 Eh    ::
         :: -> dispersion             -0.037487340333 Eh    ::
         :: repulsion energy           0.647233634313 Eh    ::
         :: add. restraining           0.000000000000 Eh    ::
         :: total charge              -0.000000000000 e     ::
         :::::::::::::::::::::::::::::::::::::::::::::::::::::

           -------------------------------------------------
          |                Property Printout                |
           -------------------------------------------------

    * Orbital Energies and Occupations

         #    Occupation            Energy/Eh            Energy/eV
      -------------------------------------------------------------
         1        2.0000           -0.7527938             -20.4846
       ...           ...                  ...                  ...
        45        2.0000           -0.4625370             -12.5863
        46        2.0000           -0.4608076             -12.5392
        47        2.0000           -0.4548312             -12.3766
        48        2.0000           -0.4476676             -12.1817
        49        2.0000           -0.4378201             -11.9137
        50        2.0000           -0.4298654             -11.6972
        51        2.0000           -0.4286047             -11.6629
        52        2.0000           -0.4247482             -11.5580
        53        2.0000           -0.4199571             -11.4276
        54        1.9960           -0.4123730             -11.2212
        55        1.9230           -0.4094889             -11.1428
        56        1.0810           -0.4048210             -11.0157
        57        0.7683           -0.2333445              -6.3496 (HOMO)
        58        0.2317           -0.2310665              -6.2876 (LUMO)
        59                         -0.1060513              -2.8858
        60                         -0.0443571              -1.2070
        61                         -0.0258588              -0.7037
        62                          0.0031148               0.0848
        63                          0.0173990               0.4735
        64                          0.0383257               1.0429
        65                          0.0528159               1.4372
        66                          0.0586739               1.5966
        67                          0.0698292               1.9001
        68                          0.0790762               2.1518
       ...                                ...                  ...
        98                          0.6493504              17.6697
      -------------------------------------------------------------
                  HL-Gap            0.0022779 Eh            0.0620 eV
             Fermi-level           -0.3196672 Eh           -8.6986 eV

     #   Z          covCN         q      C6AA      α(0)
     1   8 O        1.656    -0.424    21.323     6.234
     2   6 C        3.676     0.071    19.615     6.345
     3   6 C        3.744     0.097    19.041     6.225
     4   8 O        1.701    -0.350    19.886     6.021
     5   6 C        3.647     0.246    17.085     5.940
     6   6 C        3.728     0.089    19.204     6.256
     7   6 C        3.731     0.099    19.037     6.228
     8   6 C        3.729     0.096    19.084     6.236
     9   8 O        1.657    -0.437    21.586     6.272
    10   8 O        1.656    -0.441    21.658     6.282
    11   8 O        1.656    -0.442    21.689     6.287
    12   8 O        1.705    -0.293    18.868     5.865
    13   6 C        2.875     0.126    25.236     8.235
    14   6 C        2.917    -0.063    29.563     8.916
    15   6 C        2.921    -0.042    29.047     8.838
    16   6 C        2.918    -0.031    28.777     8.797
    17   6 C        2.925    -0.046    29.140     8.853
    18   6 C        2.964    -0.027    28.682     8.784
    19   6 C        3.679     0.084    19.389     6.307
    20   8 O        1.655    -0.447    21.780     6.300
    21   1 H        0.805     0.313     0.682     1.298
    22   1 H        0.924     0.082     1.963     2.191
    23   1 H        0.924     0.042     2.429     2.437
    24   1 H        0.923     0.037     2.492     2.469
    25   1 H        0.922     0.014     2.828     2.630
    26   1 H        0.923     0.042     2.419     2.433
    27   1 H        0.923     0.033     2.551     2.498
    28   1 H        0.923     0.054     2.276     2.360
    29   1 H        0.805     0.321     0.662     1.278
    30   1 H        0.805     0.316     0.676     1.291
    31   1 H        0.805     0.311     0.688     1.303
    32   1 H        0.926     0.032     2.552     2.498
    33   1 H        0.926     0.038     2.477     2.461
    34   1 H        0.926     0.039     2.458     2.452
    35   1 H        0.926     0.042     2.423     2.434
    36   1 H        0.924     0.053     2.282     2.362
    37   1 H        0.923     0.052     2.296     2.370
    38   1 H        0.804     0.316     0.674     1.290

 Mol. C6AA /au·bohr⁶  :      14021.649131
 Mol. C8AA /au·bohr⁸  :     316448.455709
 Mol. α(0) /au        :        177.275574


Wiberg/Mayer (AO) data.
largest (>0.10) Wiberg bond orders for each atom

 ---------------------------------------------------------------------------
     #   Z sym  total        # sym  WBO       # sym  WBO       # sym  WBO
 ---------------------------------------------------------------------------
     1   8 O    1.975 --     2 C    1.024    21 H    0.883
     2   6 C    3.957 --     1 O    1.024    23 H    0.967     3 C    0.966
                            22 H    0.964
     3   6 C    3.931 --     8 C    0.972     2 C    0.966    24 H    0.958
                             4 O    0.948
     4   8 O    2.083 --     5 C    0.951     3 C    0.948
     5   6 C    3.918 --    12 O    0.981     6 C    0.952     4 O    0.951
                            25 H    0.942
     6   6 C    3.958 --    11 O    0.999     7 C    0.970    26 H    0.956
                             5 C    0.952
     7   6 C    3.961 --    10 O    1.001     6 C    0.970     8 C    0.967
                            27 H    0.955
     8   6 C    3.963 --     9 O    1.006     3 C    0.972     7 C    0.967
                            28 H    0.954
     9   8 O    1.958 --     8 C    1.006    29 H    0.880
    10   8 O    1.959 --     7 C    1.001    30 H    0.882
    11   8 O    1.960 --     6 C    0.999    31 H    0.885
    12   8 O    2.185 --    13 C    1.010     5 C    0.981
    13   6 C    3.585 --    14 C    1.284    18 C    1.060    12 O    1.010
                            15 C    0.107
    14   6 C    3.811 --    15 C    1.432    13 C    1.284    32 H    0.965
    15   6 C    3.715 --    14 C    1.432    16 C    1.122    33 H    0.967
                            13 C    0.107
    16   6 C    3.675 --    17 C    1.356    15 C    1.122    34 H    0.970
                            18 C    0.119
    17   6 C    3.814 --    18 C    1.377    16 C    1.356    35 H    0.965
    18   6 C    3.678 --    17 C    1.377    13 C    1.060    19 C    1.008
                            16 C    0.119
    19   6 C    3.953 --    18 C    1.008    20 O    0.993    36 H    0.971
                            37 H    0.922
    20   8 O    1.978 --    19 C    0.993    38 H    0.852
    21   1 H    0.902 --     1 O    0.883
    22   1 H    0.992 --     2 C    0.964
    23   1 H    0.997 --     2 C    0.967
    24   1 H    0.998 --     3 C    0.958
    25   1 H    0.999 --     5 C    0.942
    26   1 H    0.998 --     6 C    0.956
    27   1 H    0.999 --     7 C    0.955
    28   1 H    0.997 --     8 C    0.954
    29   1 H    0.897 --     9 O    0.880
    30   1 H    0.900 --    10 O    0.882
    31   1 H    0.903 --    11 O    0.885
    32   1 H    0.998 --    14 C    0.965
    33   1 H    0.997 --    15 C    0.967
    34   1 H    0.998 --    16 C    0.970
    35   1 H    0.997 --    17 C    0.965
    36   1 H    0.996 --    19 C    0.971
    37   1 H    0.986 --    19 C    0.922
    38   1 H    0.900 --    20 O    0.852
 ---------------------------------------------------------------------------

Topologies differ in total number of bonds
Writing topology from bond orders to xtbtopo.mol

molecular dipole:
                 x           y           z       tot (Debye)
 q only:       -0.245       0.516      -0.552
   full:       -0.463       1.027      -1.012       3.848
molecular quadrupole (traceless):
                xx          xy          yy          xz          yz          zz
 q only:        2.615       1.182       2.032      -1.315       4.456      -4.647
  q+dip:       -1.457       5.747       1.527      -3.642       8.136      -0.070
   full:       -0.487       3.594       3.353      -3.564       7.465      -2.866


           -------------------------------------------------
          | TOTAL ENERGY              -65.305927070904 Eh   |
          | GRADIENT NORM               0.130787756444 Eh/α |
          | HOMO-LUMO GAP               0.061986040618 eV   |
           -------------------------------------------------

------------------------------------------------------------------------
 * finished run on 2025/05/15 at 16:12:12.804     
------------------------------------------------------------------------
 total:
 * wall-time:     0 d,  0 h,  0 min,  0.119 sec
 *  cpu-time:     0 d,  0 h,  0 min,  0.074 sec
 * ratio c/w:     0.624 speedup
 SCF:
 * wall-time:     0 d,  0 h,  0 min,  0.107 sec
 *  cpu-time:     0 d,  0 h,  0 min,  0.063 sec
 * ratio c/w:     0.593 speedup


