62
 energy: -94.883231177790 gnorm: 0.000783241095 xtb: 6.7.1 (edcfbbe)
C           -7.12772935328324       -2.25890991999588        2.45728660509398
C           -6.25132270971525       -2.80686303565954        1.36988414287303
C           -5.01454024926771       -2.01321007006717        1.07877020631273
C           -3.79047476738998       -2.61225966172611        1.00444678187636
C           -3.57350241833275       -4.07079198939765        1.25278373053920
C           -2.65313947076447       -1.79906905813142        0.71065527053111
C           -1.33406600472524       -2.26036106560845        0.61658854685783
N           -0.31214923524240       -1.49308643787636        0.32416131578566
C           -0.57385443689557       -0.19420343795675        0.10945574865011
N            0.42355862659309        0.65936684921273       -0.20013949321238
C            1.77764323080076        0.44766837905220       -0.41003002340109
N            2.42897348507115        1.55260572000957       -0.76594297805473
C            3.72007417802032        1.48827651458622       -1.00431766165923
C            4.48027664415411        0.31246579358684       -0.91549117242267
C            3.77769004413128       -0.83832313184871       -0.53020098708860
C            2.42296633533602       -0.77869837764706       -0.27368448963548
N            5.84519102304931        0.33376119705805       -1.13514902147559
C            6.38146942843640        1.05695734198864       -2.27282272015928
C            7.81380849459572        1.51176032812903       -1.96650856232823
N            8.67606548922635        0.40054386611772       -1.61474637897950
C            8.09652976321959       -0.34291857428265       -0.51522785389493
C            6.65836839382694       -0.81365629444076       -0.79109938167960
N           -1.78136426767753        0.36458673980903        0.17624989179545
C           -2.81801209717731       -0.41089922138395        0.46736293106859
N           -4.05185918154462        0.15353527045204        0.52506745733540
C           -4.23867754728503        1.57737167593833        0.26371318993274
C           -3.53461795910352        2.48466564436606        1.28372114504758
C           -3.25077425160210        3.75436580683703        0.48887146987687
C           -2.80826069142355        3.21405563688090       -0.86814509921844
C           -3.74679755051663        2.03199772105404       -1.12647426338164
C           -5.19532253462919       -0.58391400744514        0.84122606391115
O           -6.27788388788966       -0.02382327567801        0.88699619698014
O           -6.50773761471646       -3.82772698887944        0.77437876290745
H           -7.55588821114899       -1.32105551926252        2.10735861316765
H           -6.53770305056726       -2.04419580291085        3.34606040681940
H           -7.91945802914618       -2.96667202115976        2.68633085960644
H           -2.88403130800821       -4.21022478257885        2.08501138560793
H           -4.50508554461134       -4.57911380806180        1.47312430999894
H           -3.13743711958377       -4.53262563904205        0.36829785636899
H           -1.09198938611485       -3.30123689220380        0.78203388034402
H            0.13720674622574        1.62033137762454       -0.34459688002941
H            4.17514820214255        2.43315775807599       -1.26786020181982
H            4.27971835511951       -1.78957393748517       -0.44508493629710
H            1.86511406858940       -1.65248635799377        0.01443349541194
H            6.39672824064743        0.39834977448545       -3.16041888348573
H            5.75489957133421        1.91617761317095       -2.50194031490839
H            8.23522861395262        2.02851135221483       -2.83081205216561
H            7.80045920633268        2.19979307961311       -1.11677328273600
H            8.78735464560620       -0.21101151906830       -2.41998115534667
H            8.09020486628163        0.31767749588214        0.35640354243503
H            8.73083824180775       -1.20408387022171       -0.29643441763156
H            6.66424859468224       -1.56090864034167       -1.60383814731360
H            6.26525938308279       -1.27803785524799        0.11344628356891
H           -5.31933603997028        1.72585968029507        0.33475291542673
H           -4.15342564539418        2.66068298498276        2.16250692851409
H           -2.59619226592573        2.02899379988469        1.59605322271830
H           -4.16557132678386        4.33915356857124        0.38013528487364
H           -2.49350886931405        4.37944045631807        0.95938147315990
H           -2.86363308671271        3.96333983534362       -1.65621975900182
H           -1.78136716868360        2.85723839655666       -0.79751147869194
H           -4.59927653653317        2.34212382368773       -1.73063749959327
H           -3.23903405458203        1.22532571181940       -1.65046081979080
