33
 energy: -45.171143648983 gnorm: 0.000614063848 xtb: 6.7.1 (edcfbbe)
C           -3.20350279553080       -0.13478067726734        1.27663417825214
C           -3.36810614563439        0.29819410910205       -0.17705063190454
C           -2.49167934092268       -0.54877119598048       -1.12304281709048
C           -1.02060994780592       -0.41741333781097       -0.85542963578814
C           -0.26269159741046        0.55229259631591       -1.50004227631520
C            1.08943325985019        0.68731349316097       -1.24200654215793
C            1.72221687055497       -0.15224076839069       -0.33655691191279
C            3.20979721697571       -0.02767295216289       -0.08051700080522
C            3.39396286399605        0.18663763085394        1.40604585361876
O            3.42739808867818        1.48989712212419        1.71494324321555
O            3.47223725431722       -0.67524903078966        2.23906648399565
C            3.95755864391947       -1.27873778648273       -0.54396799541230
C            0.97070406975923       -1.12513631882424        0.31023392970288
C           -0.38064382550718       -1.25550761409292        0.05051452559370
C           -3.07024382355820        1.78750964626006       -0.32346995249312
H           -2.18470735349240        0.04043048649313        1.61369793246068
H           -3.87770035827604        0.43092731522577        1.91579060983984
H           -3.43145472903451       -1.19209584059171        1.39307895640836
H           -4.41047978334824        0.12549741462390       -0.47104666689548
H           -2.70022077963120       -0.24075680780460       -2.15022161560710
H           -2.78606236544761       -1.59552998140791       -1.01783705857311
H           -0.73315782695496        1.20750078938209       -2.21895408043198
H            1.65859931931048        1.44912983770311       -1.75572214417383
H            3.58615328758853        0.85828874731821       -0.59866003734124
H            3.50568190564949        1.61027107229373        2.67496523447812
H            3.70353105531501       -1.50229663530944       -1.57691419330396
H            5.03186141570535       -1.12732696710908       -0.46882723421156
H            3.68576756436132       -2.12627646076351        0.07864583534918
H            1.44594606659487       -1.77886147655614        1.02626592521909
H           -0.94546046003231       -2.02567274641809        0.55547123943194
H           -3.20467780449065        2.10916154079923       -1.35395659115210
H           -3.74170740602844        2.36859554800764        0.30471676972807
H           -2.04764253947128        2.00287924809934       -0.02274733172326
