----- Optimization -----
      -----------------------------------------------------------      
     |                   =====================                   |     
     |                           x T B                           |     
     |                   =====================                   |     
     |                         S. Grimme                         |     
     |          Mulliken Center for Theoretical Chemistry        |     
     |                    University of Bonn                     |     
      -----------------------------------------------------------      

   * xtb version 6.7.1 (edcfbbe) compiled by 'conda@3ef47c1a292c' on 2024-11-25

   xtb is free software: you can redistribute it and/or modify it under
   the terms of the GNU Lesser General Public License as published by
   the Free Software Foundation, either version 3 of the License, or
   (at your option) any later version.
   
   xtb is distributed in the hope that it will be useful,
   but WITHOUT ANY WARRANTY; without even the implied warranty of
   MERCHANTABILITY or FITNESS FOR A PARTICULAR PURPOSE.  See the
   GNU Lesser General Public License for more details.
   
   Cite this work as:
   * C. Bannwarth, E. Caldeweyher, S. Ehlert, A. Hansen, P. Pracht,
     J. Seibert, S. Spicher, S. Grimme, WIREs Comput. Mol. Sci., 2020, 11,
     e01493. DOI: 10.1002/wcms.1493
   
   for GFN2-xTB:
   * C. Bannwarth, S. Ehlert and S. Grimme., J. Chem. Theory Comput., 2019,
     15, 1652-1671. DOI: 10.1021/acs.jctc.8b01176
   for GFN1-xTB:
   * S. Grimme, C. Bannwarth, P. Shushkov, J. Chem. Theory Comput., 2017,
     13, 1989-2009. DOI: 10.1021/acs.jctc.7b00118
   for GFN0-xTB:
   * P. Pracht, E. Caldeweyher, S. Ehlert, S. Grimme, ChemRxiv, 2019, preprint.
     DOI: 10.26434/chemrxiv.8326202.v1
   for GFN-FF:
   * S. Spicher and S. Grimme, Angew. Chem. Int. Ed., 2020, 59, 15665-15673.
     DOI: 10.1002/anie.202004239
   
   for ALPB and GBSA implicit solvation:
   * S. Ehlert, M. Stahn, S. Spicher, S. Grimme, J. Chem. Theory Comput.,
     2021, 17, 4250-4261. DOI: 10.1021/acs.jctc.1c00471
   
   for ddCOSMO and CPCM-X implicit solvation:
   * M. Stahn, S. Ehlert, S. Grimme, J. Phys. Chem. A,
     2023, XX, XXXX-XXXX. DOI: 10.1021/acs.jpca.3c04382
   
   for DFT-D4:
   * E. Caldeweyher, C. Bannwarth and S. Grimme, J. Chem. Phys., 2017,
     147, 034112. DOI: 10.1063/1.4993215
   * E. Caldeweyher, S. Ehlert, A. Hansen, H. Neugebauer, S. Spicher,
     C. Bannwarth and S. Grimme, J. Chem. Phys., 2019, 150, 154122.
     DOI: 10.1063/1.5090222
   * E. Caldeweyher, J.-M. Mewes, S. Ehlert and S. Grimme, Phys. Chem. Chem. Phys.
     2020, 22, 8499-8512. DOI: 10.1039/D0CP00502A
   
   for sTDA-xTB:
   * S. Grimme and C. Bannwarth, J. Chem. Phys., 2016, 145, 054103.
     DOI: 10.1063/1.4959605
   
   in the mass-spec context:
   * V. Asgeirsson, C. Bauer and S. Grimme, Chem. Sci., 2017, 8, 4879.
     DOI: 10.1039/c7sc00601b
   * J. Koopman and S. Grimme, ACS Omega 2019, 4, 12, 15120-15133.
     DOI: 10.1021/acsomega.9b02011
   
   for metadynamics refer to:
   * S. Grimme, J. Chem. Theory Comput., 2019, 155, 2847-2862
     DOI: 10.1021/acs.jctc.9b00143
   
   for SPH calculations refer to:
   * S. Spicher and S. Grimme, J. Chem. Theory Comput., 2021, 17, 1701-1714
     DOI: 10.1021/acs.jctc.0c01306
   
   for ONIOM refer to:
   * C. Plett, A. Katbashev, S. Ehlert, S. Grimme, M. Bursch,
     Phys. Chem. Chem. Phys., 2023, 25, 17860-17868. DOI: 10.1039/D3CP02178E
   
   for DIPRO refer to:
   * J. Kohn, N. Gildemeister, S. Grimme, D. Fazzi, A. Hansen,
     J. Chem. Phys., 2023, just accepted.
   
   for PTB refer to:
   * S. Grimme, M. Mueller, A. Hansen, J. Chem. Phys., 2023, 158, 124111.
     DOI: 10.1063/5.0137838
   
   with help from (in alphabetical order)
   P. Atkinson, C. Bannwarth, F. Bohle, G. Brandenburg, E. Caldeweyher
   M. Checinski, S. Dohm, S. Ehlert, S. Ehrlich, I. Gerasimov, C. Hölzer
   A. Katbashev, J. Kohn, J. Koopman, C. Lavigne, S. Lehtola, F. März, M. Müller,
   F. Musil, H. Neugebauer, J. Pisarek, C. Plett, P. Pracht, F. Pultar,
   J. Seibert, P. Shushkov, S. Spicher, M. Stahn, M. Steiner, T. Strunk,
   J. Stückrath, T. Rose, and J. Unsleber
   
 * started run on 2025/05/15 at 16:29:36.031     
   ID    Z sym.   atoms
    1    6 C      1-9, 12-15
    2    8 O      10, 11
    3    1 H      16-33

           -------------------------------------------------
          |                Calculation Setup                |
           -------------------------------------------------

          program call               : xtb /rds/general/user/hgt20/home/callum/QDESCP/Ibuprofen_rdkit_conf_9/Ibuprofen_rdkit_conf_9.xyz --opt normal --acc 1 --gfn 2 --chrg 0 --uhf 0 -P 1
          hostname                   : login-c
          coordinate file            : /rds/general/user/hgt20/home/callum/QDESCP/Ibuprofen_rdkit_conf_9/Ibuprofen_rdkit_conf_9.xyz
          omp threads                :                     1


           -------------------------------------------------
          |                 G F N 2 - x T B                 |
           -------------------------------------------------

        Reference                      10.1021/acs.jctc.8b01176
      * Hamiltonian:
        H0-scaling (s, p, d)           1.850000    2.230000    2.230000
        zeta-weighting                 0.500000
      * Dispersion:
        s8                             2.700000
        a1                             0.520000
        a2                             5.000000
        s9                             5.000000
      * Repulsion:
        kExp                           1.500000    1.000000
        rExp                           1.000000
      * Coulomb:
        alpha                          2.000000
        third order                    shell-resolved
        anisotropic                    true
        a3                             3.000000
        a5                             4.000000
        cn-shift                       1.200000
        cn-exp                         4.000000
        max-rad                        5.000000


          ...................................................
          :                      SETUP                      :
          :.................................................:
          :  # basis functions                  78          :
          :  # atomic orbitals                  78          :
          :  # shells                           48          :
          :  # electrons                        82          :
          :  max. iterations                   250          :
          :  Hamiltonian                  GFN2-xTB          :
          :  restarted?                      false          :
          :  GBSA solvation                  false          :
          :  PC potential                    false          :
          :  electronic temp.          300.0000000     K    :
          :  accuracy                    1.0000000          :
          :  -> integral cutoff          0.2500000E+02      :
          :  -> integral neglect         0.1000000E-07      :
          :  -> SCF convergence          0.1000000E-05 Eh   :
          :  -> wf. convergence          0.1000000E-03 e    :
          :  Broyden damping             0.4000000          :
          :  net charge                          0          :
          :  unpaired electrons                  0          :
          ...................................................

 iter      E             dE          RMSdq      gap      omega  full diag
   1    -45.7110793 -0.457111E+02  0.363E+00    4.38       0.0  T
   2    -45.7800687 -0.689894E-01  0.200E+00    4.09       1.0  T
   3    -45.7823576 -0.228884E-02  0.105E+00    4.23       1.0  T
   4    -45.7879041 -0.554649E-02  0.184E-01    3.84       1.0  T
   5    -45.7882722 -0.368156E-03  0.721E-02    3.86       1.0  T
   6    -45.7882887 -0.165139E-04  0.404E-02    3.88       1.0  T
   7    -45.7883152 -0.264161E-04  0.122E-02    3.89       1.4  T
   8    -45.7883175 -0.230640E-05  0.452E-03    3.90       3.9  T
   9    -45.7883177 -0.226443E-06  0.210E-03    3.90       8.3  T
  10    -45.7883177 -0.323529E-07  0.830E-04    3.89      21.0  T
  11    -45.7883177 -0.611533E-08  0.377E-04    3.89      46.2  T

   *** convergence criteria satisfied after 11 iterations ***

         #    Occupation            Energy/Eh            Energy/eV
      -------------------------------------------------------------
         1        2.0000           -0.7442074             -20.2509
       ...           ...                  ...                  ...
        35        2.0000           -0.4367078             -11.8834
        36        2.0000           -0.4323577             -11.7651
        37        2.0000           -0.4238468             -11.5335
        38        2.0000           -0.4174029             -11.3581
        39        2.0000           -0.4123181             -11.2197
        40        2.0000           -0.4006087             -10.9011
        41        2.0000           -0.3884468             -10.5702 (HOMO)
        42                         -0.2453513              -6.6763 (LUMO)
        43                         -0.2245037              -6.1091
        44                         -0.2217861              -6.0351
        45                         -0.1028092              -2.7976
        46                          0.0433302               1.1791
       ...                                ...                  ...
        78                          0.6193578              16.8536
      -------------------------------------------------------------
                  HL-Gap            0.1430955 Eh            3.8938 eV
             Fermi-level           -0.3168990 Eh           -8.6233 eV

 SCC (total)                   0 d,  0 h,  0 min,  0.031 sec
 SCC setup                      ...        0 min,  0.000 sec (  0.730%)
 Dispersion                     ...        0 min,  0.000 sec (  0.895%)
 classical contributions        ...        0 min,  0.000 sec (  0.294%)
 integral evaluation            ...        0 min,  0.004 sec ( 14.210%)
 iterations                     ...        0 min,  0.013 sec ( 43.089%)
 molecular gradient             ...        0 min,  0.013 sec ( 40.414%)
 printout                       ...        0 min,  0.000 sec (  0.349%)

         :::::::::::::::::::::::::::::::::::::::::::::::::::::
         ::                     SUMMARY                     ::
         :::::::::::::::::::::::::::::::::::::::::::::::::::::
         :: total energy             -45.164937282282 Eh    ::
         :: gradient norm              0.053397680091 Eh/a0 ::
         :: HOMO-LUMO gap              3.893827512771 eV    ::
         ::.................................................::
         :: SCC energy               -45.788058530027 Eh    ::
         :: -> isotropic ES            0.052325324246 Eh    ::
         :: -> anisotropic ES          0.007542840707 Eh    ::
         :: -> anisotropic XC          0.019684983935 Eh    ::
         :: -> dispersion             -0.029455087128 Eh    ::
         :: repulsion energy           0.623121247745 Eh    ::
         :: add. restraining           0.000000000000 Eh    ::
         :: total charge               0.000000000000 e     ::
         :::::::::::::::::::::::::::::::::::::::::::::::::::::

      ----------------------------------------------------------- 
     |                   =====================                   |
     |                        A N C O P T                        |
     |                   =====================                   |
     |               Approximate Normal Coordinate               |
     |                Rational Function Optimizer                |
      ----------------------------------------------------------- 
      ----------------------------------------------------------- 
     |                   =====================                   |
     |                        A N C O P T                        |
     |                   =====================                   |
     |               Approximate Normal Coordinate               |
     |                Rational Function Optimizer                |
      ----------------------------------------------------------- 

          ...................................................
          :                      SETUP                      :
          :.................................................:
          :   optimization level            normal          :
          :   max. optcycles                   200          :
          :   ANC micro-cycles                  20          :
          :   degrees of freedom                93          :
          :.................................................:
          :   RF solver                   davidson          :
          :   write xtbopt.log                true          :
          :   linear?                        false          :
          :   energy convergence         0.5000000E-05 Eh   :
          :   grad. convergence          0.1000000E-02 Eh/α :
          :   maxmium RF displ.          1.0000000          :
          :   Hlow (freq-cutoff)         0.1000000E-01      :
          :   Hmax (freq-cutoff)         5.0000000          :
          :   S6 in model hess.         20.0000000          :
          ...................................................

generating ANC from exact Hessian ...
Using Lindh-Hessian (1995)
 Shifting diagonal of input Hessian by    9.6025844068157520E-003
 Lowest  eigenvalues of input Hessian
    0.000000    0.000000    0.000000    0.000000    0.000000    0.000000
    0.010000    0.010219    0.010911    0.011645    0.011950    0.013828
    0.015018    0.017143    0.018364    0.018441    0.018741    0.020726
 Highest eigenvalues
    1.557873    1.688201    1.823025    1.894878    1.935270    2.249798


........................................................................
.............................. CYCLE    1 ..............................
........................................................................

 iter      E             dE          RMSdq      gap      omega  full diag
   1    -45.7883177 -0.457883E+02  0.153E-04    3.89       0.0  T
   2    -45.7883177 -0.185722E-09  0.102E-04    3.89     170.4  T
   3    -45.7883177 -0.160412E-09  0.611E-05    3.89     284.8  T
     SCC iter.                  ...        0 min,  0.004 sec
     gradient                   ...        0 min,  0.013 sec
 * total energy  :   -45.1649373 Eh     change       -0.7825065E-09 Eh
   gradient norm :     0.0534033 Eh/α   predicted     0.0000000E+00 (-100.00%)
   displ. norm   :     0.2514159 α      lambda       -0.6339663E-02
   maximum displ.:     0.1010876 α      in ANC's #6, #19, #53, ...

........................................................................
.............................. CYCLE    2 ..............................
........................................................................

 iter      E             dE          RMSdq      gap      omega  full diag
   1    -45.8219333 -0.458219E+02  0.149E-01    4.09       0.0  T
   2    -45.8219905 -0.571649E-04  0.875E-02    4.06       1.0  T
   3    -45.8219866  0.391504E-05  0.300E-02    4.06       1.0  T
   4    -45.8219950 -0.842263E-05  0.484E-03    4.06       3.6  T
   5    -45.8219954 -0.441937E-06  0.228E-03    4.06       7.6  T
   6    -45.8219955 -0.568095E-07  0.125E-03    4.06      13.9  T
   7    -45.8219955 -0.101052E-07  0.333E-04    4.06      52.2  T
   8    -45.8219955 -0.180523E-08  0.157E-04    4.06     110.5  T
     SCC iter.                  ...        0 min,  0.009 sec
     gradient                   ...        0 min,  0.013 sec
 * total energy  :   -45.1690918 Eh     change       -0.4154530E-02 Eh
   gradient norm :     0.0163022 Eh/α   predicted    -0.3371139E-02 ( -18.86%)
   displ. norm   :     0.2559033 α      lambda       -0.1789812E-02
   maximum displ.:     0.1740746 α      in ANC's #6, #4, #19, ...

........................................................................
.............................. CYCLE    3 ..............................
........................................................................

 iter      E             dE          RMSdq      gap      omega  full diag
   1    -45.8370432 -0.458370E+02  0.881E-02    4.12       0.0  T
   2    -45.8370576 -0.144364E-04  0.514E-02    4.11       1.0  T
   3    -45.8370556  0.204257E-05  0.162E-02    4.11       1.1  T
   4    -45.8370591 -0.345954E-05  0.321E-03    4.11       5.4  T
   5    -45.8370593 -0.216156E-06  0.151E-03    4.11      11.5  T
   6    -45.8370593 -0.289573E-07  0.802E-04    4.11      21.7  T
   7    -45.8370593 -0.387277E-08  0.222E-04    4.11      78.3  T
     SCC iter.                  ...        0 min,  0.008 sec
     gradient                   ...        0 min,  0.013 sec
 * total energy  :   -45.1702026 Eh     change       -0.1110814E-02 Eh
   gradient norm :     0.0077631 Eh/α   predicted    -0.9535111E-03 ( -14.16%)
   displ. norm   :     0.2252504 α      lambda       -0.6389750E-03
   maximum displ.:     0.1438071 α      in ANC's #6, #4, #14, ...

........................................................................
.............................. CYCLE    4 ..............................
........................................................................

 iter      E             dE          RMSdq      gap      omega  full diag
   1    -45.8388185 -0.458388E+02  0.664E-02    4.11       0.0  T
   2    -45.8388203 -0.179678E-05  0.390E-02    4.10       1.0  T
   3    -45.8388196  0.764962E-06  0.730E-03    4.10       2.4  T
   4    -45.8388209 -0.134251E-05  0.186E-03    4.10       9.4  T
   5    -45.8388209 -0.101077E-07  0.106E-03    4.10      16.4  T
   6    -45.8388209 -0.125767E-07  0.411E-04    4.10      42.3  T
   7    -45.8388209 -0.169386E-08  0.139E-04    4.10     125.2  T
     SCC iter.                  ...        0 min,  0.024 sec
     gradient                   ...        0 min,  0.013 sec
 * total energy  :   -45.1706249 Eh     change       -0.4222550E-03 Eh
   gradient norm :     0.0053306 Eh/α   predicted    -0.3357335E-03 ( -20.49%)
   displ. norm   :     0.2206992 α      lambda       -0.3313799E-03
   maximum displ.:     0.1386583 α      in ANC's #6, #4, #1, ...

........................................................................
.............................. CYCLE    5 ..............................
........................................................................

 iter      E             dE          RMSdq      gap      omega  full diag
   1    -45.8362666 -0.458363E+02  0.664E-02    4.08       0.0  T
   2    -45.8362683 -0.171251E-05  0.393E-02    4.09       1.0  T
   3    -45.8362676  0.717301E-06  0.626E-03    4.09       2.8  T
   4    -45.8362687 -0.110407E-05  0.196E-03    4.09       8.9  T
   5    -45.8362687 -0.660958E-07  0.101E-03    4.09      17.2  T
   6    -45.8362687 -0.546377E-08  0.443E-04    4.09      39.3  T
   7    -45.8362688 -0.224132E-08  0.132E-04    4.09     132.1  T
     SCC iter.                  ...        0 min,  0.008 sec
     gradient                   ...        0 min,  0.013 sec
 * total energy  :   -45.1708320 Eh     change       -0.2070842E-03 Eh
   gradient norm :     0.0043368 Eh/α   predicted    -0.1737709E-03 ( -16.09%)
   displ. norm   :     0.1355034 α      lambda       -0.1214703E-03
   maximum displ.:     0.0779008 α      in ANC's #4, #1, #6, ...

........................................................................
.............................. CYCLE    6 ..............................
........................................................................

 iter      E             dE          RMSdq      gap      omega  full diag
   1    -45.8351944 -0.458352E+02  0.356E-02    4.09       0.0  T
   2    -45.8351947 -0.291944E-06  0.211E-02    4.09       1.0  T
   3    -45.8351946  0.118274E-06  0.302E-03    4.09       5.8  T
   4    -45.8351948 -0.232257E-06  0.858E-04    4.09      20.3  T
   5    -45.8351948 -0.204579E-08  0.487E-04    4.09      35.8  T
     SCC iter.                  ...        0 min,  0.006 sec
     gradient                   ...        0 min,  0.013 sec
 * total energy  :   -45.1709186 Eh     change       -0.8661980E-04 Eh
   gradient norm :     0.0028468 Eh/α   predicted    -0.6185121E-04 ( -28.59%)
   displ. norm   :     0.1260192 α      lambda       -0.8404654E-04
   maximum displ.:     0.0714989 α      in ANC's #1, #4, #9, ...

........................................................................
.............................. CYCLE    7 ..............................
........................................................................

 iter      E             dE          RMSdq      gap      omega  full diag
   1    -45.8351786 -0.458352E+02  0.297E-02    4.10       0.0  T
   2    -45.8351787 -0.156732E-06  0.175E-02    4.10       1.0  T
   3    -45.8351787  0.277894E-07  0.199E-03    4.10       8.7  T
   4    -45.8351788 -0.915676E-07  0.728E-04    4.10      23.9  T
   5    -45.8351788 -0.266571E-08  0.369E-04    4.10      47.1  T
     SCC iter.                  ...        0 min,  0.006 sec
     gradient                   ...        0 min,  0.034 sec
 * total energy  :   -45.1709805 Eh     change       -0.6192099E-04 Eh
   gradient norm :     0.0024076 Eh/α   predicted    -0.4269397E-04 ( -31.05%)
   displ. norm   :     0.1292494 α      lambda       -0.6124771E-04
   maximum displ.:     0.0802749 α      in ANC's #1, #4, #9, ...

........................................................................
.............................. CYCLE    8 ..............................
........................................................................

 iter      E             dE          RMSdq      gap      omega  full diag
   1    -45.8358017 -0.458358E+02  0.293E-02    4.10       0.0  T
   2    -45.8358019 -0.152710E-06  0.173E-02    4.10       1.0  T
   3    -45.8358019  0.382491E-07  0.202E-03    4.10       8.6  T
   4    -45.8358019 -0.950961E-07  0.651E-04    4.10      26.7  T
   5    -45.8358020 -0.120944E-08  0.370E-04    4.10      47.0  T
     SCC iter.                  ...        0 min,  0.006 sec
     gradient                   ...        0 min,  0.013 sec
 * total energy  :   -45.1710273 Eh     change       -0.4679476E-04 Eh
   gradient norm :     0.0022961 Eh/α   predicted    -0.3114037E-04 ( -33.45%)
   displ. norm   :     0.1396679 α      lambda       -0.5314259E-04
   maximum displ.:     0.0891150 α      in ANC's #1, #4, #9, ...

........................................................................
.............................. CYCLE    9 ..............................
........................................................................

 iter      E             dE          RMSdq      gap      omega  full diag
   1    -45.8365111 -0.458365E+02  0.307E-02    4.10       0.0  T
   2    -45.8365113 -0.166595E-06  0.181E-02    4.10       1.0  T
   3    -45.8365112  0.651563E-07  0.216E-03    4.10       8.1  T
   4    -45.8365113 -0.121381E-06  0.622E-04    4.10      28.0  T
   5    -45.8365113 -0.154502E-08  0.365E-04    4.10      47.7  T
     SCC iter.                  ...        0 min,  0.006 sec
     gradient                   ...        0 min,  0.013 sec
 * total energy  :   -45.1710685 Eh     change       -0.4123408E-04 Eh
   gradient norm :     0.0019002 Eh/α   predicted    -0.2709051E-04 ( -34.30%)
   displ. norm   :     0.2148824 α      lambda       -0.4481199E-04
   maximum displ.:     0.1382561 α      in ANC's #1, #4, #2, ...

........................................................................
.............................. CYCLE   10 ..............................
........................................................................

 iter      E             dE          RMSdq      gap      omega  full diag
   1    -45.8370570 -0.458371E+02  0.436E-02    4.10       0.0  T
   2    -45.8370572 -0.269259E-06  0.257E-02    4.10       1.0  T
   3    -45.8370570  0.191667E-06  0.300E-03    4.10       5.8  T
   4    -45.8370573 -0.294053E-06  0.832E-04    4.10      20.9  T
   5    -45.8370573 -0.477891E-08  0.474E-04    4.10      36.7  T
     SCC iter.                  ...        0 min,  0.006 sec
     gradient                   ...        0 min,  0.013 sec
 * total energy  :   -45.1711109 Eh     change       -0.4238508E-04 Eh
   gradient norm :     0.0017873 Eh/α   predicted    -0.2286772E-04 ( -46.05%)
   displ. norm   :     0.0796537 α      lambda       -0.1497717E-04
   maximum displ.:     0.0525157 α      in ANC's #1, #6, #2, ...

........................................................................
.............................. CYCLE   11 ..............................
........................................................................

 iter      E             dE          RMSdq      gap      omega  full diag
   1    -45.8370218 -0.458370E+02  0.126E-02    4.10       0.0  T
   2    -45.8370219 -0.747345E-07  0.739E-03    4.10       2.4  T
   3    -45.8370218  0.479526E-07  0.156E-03    4.10      11.2  T
   4    -45.8370219 -0.645130E-07  0.299E-04    4.10      58.2  T
   5    -45.8370219 -0.137044E-08  0.158E-04    4.10     110.4  T
     SCC iter.                  ...        0 min,  0.006 sec
     gradient                   ...        0 min,  0.013 sec
 * total energy  :   -45.1711280 Eh     change       -0.1705112E-04 Eh
   gradient norm :     0.0012429 Eh/α   predicted    -0.7510570E-05 ( -55.95%)
   displ. norm   :     0.0765378 α      lambda       -0.1099832E-04
   maximum displ.:     0.0501555 α      in ANC's #1, #6, #2, ...

........................................................................
.............................. CYCLE   12 ..............................
........................................................................

 iter      E             dE          RMSdq      gap      omega  full diag
   1    -45.8365228 -0.458365E+02  0.111E-02    4.10       0.0  T
   2    -45.8365230 -0.142751E-06  0.648E-03    4.10       2.7  T
   3    -45.8365229  0.297926E-07  0.176E-03    4.10       9.9  T
   4    -45.8365230 -0.468509E-07  0.350E-04    4.10      49.7  T
   5    -45.8365230 -0.257410E-08  0.159E-04    4.10     109.4  T
     SCC iter.                  ...        0 min,  0.006 sec
     gradient                   ...        0 min,  0.013 sec
 * total energy  :   -45.1711391 Eh     change       -0.1117170E-04 Eh
   gradient norm :     0.0006110 Eh/α   predicted    -0.5515112E-05 ( -50.63%)
   displ. norm   :     0.0504428 α      lambda       -0.4326520E-05
   maximum displ.:     0.0325014 α      in ANC's #1, #2, #6, ...

........................................................................
.............................. CYCLE   13 ..............................
........................................................................

 iter      E             dE          RMSdq      gap      omega  full diag
   1    -45.8366483 -0.458366E+02  0.790E-03    4.10       0.0  T
   2    -45.8366484 -0.273815E-07  0.467E-03    4.10       3.7  T
   3    -45.8366483  0.118345E-07  0.864E-04    4.10      20.1  T
   4    -45.8366484 -0.174778E-07  0.161E-04    4.10     108.3  T
     SCC iter.                  ...        0 min,  0.004 sec
     gradient                   ...        0 min,  0.013 sec
 * total energy  :   -45.1711436 Eh     change       -0.4504660E-05 Eh
   gradient norm :     0.0006155 Eh/α   predicted    -0.2166110E-05 ( -51.91%)
   displ. norm   :     0.0414997 α      lambda       -0.3261380E-05
   maximum displ.:     0.0284060 α      in ANC's #1, #2, #3, ...

   *** GEOMETRY OPTIMIZATION CONVERGED AFTER 13 ITERATIONS ***

------------------------------------------------------------------------
 total energy gain   :        -0.0062064 Eh       -3.8946 kcal/mol
 total RMSD          :         0.2479864 a0        0.1312 Å
 total power (kW/mol):        -1.2534471 (step)  -43.1935 (real)
------------------------------------------------------------------------

 ANCopt (total)                0 d,  0 h,  0 min,  0.377 sec
 optimizer setup                ...        0 min,  0.000 sec (  0.023%)
 model hessian                  ...        0 min,  0.013 sec (  3.355%)
 ANC generation                 ...        0 min,  0.001 sec (  0.261%)
 coordinate transformation      ...        0 min,  0.000 sec (  0.018%)
 single point calculation       ...        0 min,  0.360 sec ( 95.331%)
 optimization log               ...        0 min,  0.003 sec (  0.687%)
 hessian update                 ...        0 min,  0.000 sec (  0.035%)
 rational function              ...        0 min,  0.001 sec (  0.181%)

================
 final structure:
================
33
 xtb: 6.7.1 (edcfbbe)
C           -3.20350279553080       -0.13478067726734        1.27663417825214
C           -3.36810614563439        0.29819410910205       -0.17705063190454
C           -2.49167934092268       -0.54877119598048       -1.12304281709048
C           -1.02060994780592       -0.41741333781097       -0.85542963578814
C           -0.26269159741046        0.55229259631591       -1.50004227631520
C            1.08943325985019        0.68731349316097       -1.24200654215793
C            1.72221687055497       -0.15224076839069       -0.33655691191279
C            3.20979721697571       -0.02767295216289       -0.08051700080522
C            3.39396286399605        0.18663763085394        1.40604585361876
O            3.42739808867818        1.48989712212419        1.71494324321555
O            3.47223725431722       -0.67524903078966        2.23906648399565
C            3.95755864391947       -1.27873778648273       -0.54396799541230
C            0.97070406975923       -1.12513631882424        0.31023392970288
C           -0.38064382550718       -1.25550761409292        0.05051452559370
C           -3.07024382355820        1.78750964626006       -0.32346995249312
H           -2.18470735349240        0.04043048649313        1.61369793246068
H           -3.87770035827604        0.43092731522577        1.91579060983984
H           -3.43145472903451       -1.19209584059171        1.39307895640836
H           -4.41047978334824        0.12549741462390       -0.47104666689548
H           -2.70022077963120       -0.24075680780460       -2.15022161560710
H           -2.78606236544761       -1.59552998140791       -1.01783705857311
H           -0.73315782695496        1.20750078938209       -2.21895408043198
H            1.65859931931048        1.44912983770311       -1.75572214417383
H            3.58615328758853        0.85828874731821       -0.59866003734124
H            3.50568190564949        1.61027107229373        2.67496523447812
H            3.70353105531501       -1.50229663530944       -1.57691419330396
H            5.03186141570535       -1.12732696710908       -0.46882723421156
H            3.68576756436132       -2.12627646076351        0.07864583534918
H            1.44594606659487       -1.77886147655614        1.02626592521909
H           -0.94546046003231       -2.02567274641809        0.55547123943194
H           -3.20467780449065        2.10916154079923       -1.35395659115210
H           -3.74170740602844        2.36859554800764        0.30471676972807
H           -2.04764253947128        2.00287924809934       -0.02274733172326

 Bond Distances (Angstroems)
 ---------------------------
C1-C2=1.5257         C1-H16=1.0873        C1-H17=1.0877        C1-H18=1.0879        C2-C1=1.5257         C2-C3=1.5428         
C2-C15=1.5259        C2-H19=1.0967        C3-C2=1.5428         C3-C4=1.5010         C3-H20=1.0925        C3-H21=1.0924        
C4-C3=1.5010         C4-C5=1.3894         C4-C14=1.3902        C5-C4=1.3894         C5-C6=1.3831         C5-H22=1.0805        
C6-C5=1.3831         C6-C7=1.3875         C6-H23=1.0808        C7-C6=1.3875         C7-C8=1.5146         C7-C13=1.3891        
C8-C7=1.5146         C8-C9=1.5132         C8-C12=1.5294        C8-H24=1.0932        C9-C8=1.5132         C9-O10=1.3398        
C9-O11=1.2012        O10-C9=1.3398        O10-H25=0.9707       O11-C9=1.2012        C12-C8=1.5294        C12-H26=1.0870       
C12-H27=1.0875       C12-H28=1.0862       C13-C7=1.3891        C13-C14=1.3822       C13-H29=1.0798       C14-C4=1.3902        
C14-C13=1.3822       C14-H30=1.0803       C15-C2=1.5259        C15-H31=1.0879       C15-H32=1.0877       C15-H33=1.0874       
H16-C1=1.0873        H17-C1=1.0877        H18-C1=1.0879        H19-C2=1.0967        H20-C3=1.0925        H21-C3=1.0924        
H22-C5=1.0805        H23-C6=1.0808        H24-C8=1.0932        H25-O10=0.9707       H26-C12=1.0870       H27-C12=1.0875       
H28-C12=1.0862       H29-C13=1.0798       H30-C14=1.0803       H31-C15=1.0879       H32-C15=1.0877       H33-C15=1.0874       
 C  H  Rav=1.0872 sigma=0.0047  Rmin=1.0798  Rmax=1.0967    17
 C  C  Rav=1.4595 sigma=0.0679  Rmin=1.3822  Rmax=1.5428    13
 O  H  Rav=0.9707 sigma=0.0000  Rmin=0.9707  Rmax=0.9707     1
 O  C  Rav=1.2705 sigma=0.0693  Rmin=1.2012  Rmax=1.3398     2

 selected bond angles (degree)
 --------------------
H16-C1-C2=110.53               H17-C1-C2=110.21               H17-C1-H16=108.35              H18-C1-C2=110.81               
H18-C1-H16=108.65              H18-C1-H17=108.22              C3-C2-C1=111.54                C15-C2-C1=110.33               
C15-C2-C3=111.47               H19-C2-C1=108.26               H19-C2-C3=106.80               H19-C2-C15=108.27              
C4-C3-C2=113.54                H20-C3-C2=108.26               H20-C3-C4=109.27               H21-C3-C2=108.29               
H21-C3-C4=109.32               H21-C3-H20=108.01              C5-C4-C3=120.86                C14-C4-C3=120.97               
C14-C4-C5=118.16               C6-C5-C4=120.99                H22-C5-C4=119.63               H22-C5-C6=119.38               
C7-C6-C5=120.57                H23-C6-C5=119.66               H23-C6-C7=119.77               C8-C7-C6=120.56                
C13-C7-C6=118.74               C13-C7-C8=120.68               C9-C8-C7=107.29                C12-C8-C7=111.20               
C12-C8-C9=110.73               H24-C8-C7=108.95               H24-C8-C9=108.00               H24-C8-C12=110.55              
O10-C9-C8=111.55               O11-C9-C8=125.99               O11-C9-O10=122.44              H25-O10-C9=110.53              

 selected dihedral angles (degree)
 ---------------------------------
C3-C2-C1-H16= 63.95           C3-C2-C1-H17=183.69           C3-C2-C1-H18=303.45           C15-C2-C1-H16=299.49          
C15-C2-C1-H17= 59.23          C15-C2-C1-H18=178.98          H19-C2-C1-H16=181.18          H19-C2-C1-H17=300.92          
H19-C2-C1-H18= 60.67          C4-C3-C2-C1=297.78            C4-C3-C2-C15= 61.59           C4-C3-C2-H19=179.68           
H20-C3-C2-C1=176.25           H20-C3-C2-C15=300.07          H20-C3-C2-H19= 58.16          H21-C3-C2-C1= 59.38           
H21-C3-C2-C15=183.20          H21-C3-C2-H19=301.28          C5-C4-C3-C2=269.54            C5-C4-C3-H20= 30.49           
C5-C4-C3-H21=148.51           C14-C4-C3-C2= 89.08           C14-C4-C3-H20=210.03          C14-C4-C3-H21=328.05          
C6-C5-C4-C3=179.12            C6-C5-C4-C14=359.57           H22-C5-C4-C3=358.71           H22-C5-C4-C14=179.16          
C7-C6-C5-C4=  0.43            C7-C6-C5-H22=180.84           H23-C6-C5-C4=180.00           H23-C6-C5-H22=  0.41          
C8-C7-C6-C5=178.42            C8-C7-C6-H23=358.85           C13-C7-C6-C5=359.66           C13-C7-C6-H23=180.09          
C9-C8-C7-C6=124.00            C9-C8-C7-C13=302.74           C12-C8-C7-C6=245.24           C12-C8-C7-C13= 63.97          
H24-C8-C7-C6=  7.32           H24-C8-C7-C13=186.06          O10-C9-C8-C7=267.79           O10-C9-C8-C12=146.26          
O10-C9-C8-H24= 25.09          O11-C9-C8-C7= 86.11           O11-C9-C8-C12=324.58          O11-C9-C8-H24=203.41          
H25-O10-C9-C8=177.45          H25-O10-C9-O11=359.06         
           -------------------------------------------------
          |                Final Singlepoint                |
           -------------------------------------------------

          ...................................................
          :                      SETUP                      :
          :.................................................:
          :  # basis functions                  78          :
          :  # atomic orbitals                  78          :
          :  # shells                           48          :
          :  # electrons                        82          :
          :  max. iterations                   250          :
          :  Hamiltonian                  GFN2-xTB          :
          :  restarted?                      false          :
          :  GBSA solvation                  false          :
          :  PC potential                    false          :
          :  electronic temp.          300.0000000     K    :
          :  accuracy                    1.0000000          :
          :  -> integral cutoff          0.2500000E+02      :
          :  -> integral neglect         0.1000000E-07      :
          :  -> SCF convergence          0.1000000E-05 Eh   :
          :  -> wf. convergence          0.1000000E-03 e    :
          :  Broyden damping             0.4000000          :
          :  net charge                          0          :
          :  unpaired electrons                  0          :
          ...................................................

 iter      E             dE          RMSdq      gap      omega  full diag
   1    -45.8366484 -0.458366E+02  0.837E-05    4.10       0.0  T
   2    -45.8366484 -0.544276E-10  0.493E-05    4.10     353.1  T
   3    -45.8366484 -0.329976E-10  0.284E-05    4.10     612.3  T

   *** convergence criteria satisfied after 3 iterations ***

         #    Occupation            Energy/Eh            Energy/eV
      -------------------------------------------------------------
         1        2.0000           -0.7446938             -20.2641
       ...           ...                  ...                  ...
        35        2.0000           -0.4366127             -11.8808
        36        2.0000           -0.4321047             -11.7582
        37        2.0000           -0.4231403             -11.5142
        38        2.0000           -0.4154771             -11.3057
        39        2.0000           -0.4100178             -11.1572
        40        2.0000           -0.4013678             -10.9218
        41        2.0000           -0.3877810             -10.5521 (HOMO)
        42                         -0.2371809              -6.4540 (LUMO)
        43                         -0.2199514              -5.9852
        44                         -0.2153155              -5.8590
        45                         -0.0940211              -2.5584
        46                          0.0480331               1.3070
       ...                                ...                  ...
        78                          0.6584499              17.9173
      -------------------------------------------------------------
                  HL-Gap            0.1506002 Eh            4.0980 eV
             Fermi-level           -0.3124809 Eh           -8.5030 eV

 SCC (total)                   0 d,  0 h,  0 min,  0.021 sec
 SCC setup                      ...        0 min,  0.000 sec (  0.889%)
 Dispersion                     ...        0 min,  0.000 sec (  0.877%)
 classical contributions        ...        0 min,  0.000 sec (  0.407%)
 integral evaluation            ...        0 min,  0.004 sec ( 20.598%)
 iterations                     ...        0 min,  0.003 sec ( 16.118%)
 molecular gradient             ...        0 min,  0.013 sec ( 60.657%)
 printout                       ...        0 min,  0.000 sec (  0.424%)

         :::::::::::::::::::::::::::::::::::::::::::::::::::::
         ::                     SUMMARY                     ::
         :::::::::::::::::::::::::::::::::::::::::::::::::::::
         :: total energy             -45.171143648983 Eh    ::
         :: gradient norm              0.000614063848 Eh/a0 ::
         :: HOMO-LUMO gap              4.098038951995 eV    ::
         ::.................................................::
         :: SCC energy               -45.836366798352 Eh    ::
         :: -> isotropic ES            0.052067760997 Eh    ::
         :: -> anisotropic ES          0.006370994514 Eh    ::
         :: -> anisotropic XC          0.018422553242 Eh    ::
         :: -> dispersion             -0.030168852281 Eh    ::
         :: repulsion energy           0.665223149369 Eh    ::
         :: add. restraining           0.000000000000 Eh    ::
         :: total charge              -0.000000000000 e     ::
         :::::::::::::::::::::::::::::::::::::::::::::::::::::

           -------------------------------------------------
          |                Property Printout                |
           -------------------------------------------------

    * Orbital Energies and Occupations

         #    Occupation            Energy/Eh            Energy/eV
      -------------------------------------------------------------
         1        2.0000           -0.7446938             -20.2641
       ...           ...                  ...                  ...
        29        2.0000           -0.4664495             -12.6927
        30        2.0000           -0.4621650             -12.5761
        31        2.0000           -0.4592856             -12.4978
        32        2.0000           -0.4523486             -12.3090
        33        2.0000           -0.4477164             -12.1830
        34        2.0000           -0.4381782             -11.9234
        35        2.0000           -0.4366127             -11.8808
        36        2.0000           -0.4321047             -11.7582
        37        2.0000           -0.4231403             -11.5142
        38        2.0000           -0.4154771             -11.3057
        39        2.0000           -0.4100178             -11.1572
        40        2.0000           -0.4013678             -10.9218
        41        2.0000           -0.3877810             -10.5521 (HOMO)
        42                         -0.2371809              -6.4540 (LUMO)
        43                         -0.2199514              -5.9852
        44                         -0.2153155              -5.8590
        45                         -0.0940211              -2.5584
        46                          0.0480331               1.3070
        47                          0.0839311               2.2839
        48                          0.0901303               2.4526
        49                          0.0939293               2.5559
        50                          0.1069196               2.9094
        51                          0.1190498               3.2395
        52                          0.1322179               3.5978
       ...                                ...                  ...
        78                          0.6584499              17.9173
      -------------------------------------------------------------
                  HL-Gap            0.1506002 Eh            4.0980 eV
             Fermi-level           -0.3124809 Eh           -8.5030 eV

     #   Z          covCN         q      C6AA      α(0)
     1   6 C        3.755    -0.106    22.574     6.775
     2   6 C        3.849    -0.005    20.638     6.462
     3   6 C        3.809    -0.068    21.786     6.644
     4   6 C        2.967     0.016    27.651     8.625
     5   6 C        2.925    -0.038    28.956     8.825
     6   6 C        2.922    -0.039    28.977     8.828
     7   6 C        2.980     0.009    27.809     8.650
     8   6 C        3.858    -0.042    21.293     6.563
     9   6 C        2.699     0.363    20.842     7.472
    10   8 O        1.660    -0.381    20.488     6.110
    11   8 O        0.856    -0.409    21.872     6.270
    12   6 C        3.756    -0.103    22.525     6.767
    13   6 C        2.922    -0.039    28.974     8.827
    14   6 C        2.925    -0.038    28.937     8.822
    15   6 C        3.755    -0.106    22.572     6.774
    16   1 H        0.925     0.039     2.467     2.456
    17   1 H        0.925     0.034     2.534     2.489
    18   1 H        0.925     0.033     2.546     2.495
    19   1 H        0.924     0.027     2.629     2.536
    20   1 H        0.924     0.036     2.497     2.471
    21   1 H        0.924     0.037     2.488     2.467
    22   1 H        0.926     0.034     2.535     2.490
    23   1 H        0.926     0.030     2.584     2.514
    24   1 H        0.924     0.058     2.225     2.333
    25   1 H        0.804     0.327     0.645     1.261
    26   1 H        0.925     0.045     2.377     2.411
    27   1 H        0.925     0.043     2.415     2.430
    28   1 H        0.925     0.060     2.197     2.318
    29   1 H        0.926     0.044     2.391     2.418
    30   1 H        0.926     0.035     2.513     2.479
    31   1 H        0.925     0.032     2.553     2.499
    32   1 H        0.925     0.034     2.533     2.489
    33   1 H        0.925     0.038     2.473     2.459

 Mol. C6AA /au·bohr⁶  :      10237.947848
 Mol. C8AA /au·bohr⁸  :     234145.021466
 Mol. α(0) /au        :        155.427884


Wiberg/Mayer (AO) data.
largest (>0.10) Wiberg bond orders for each atom

 ---------------------------------------------------------------------------
     #   Z sym  total        # sym  WBO       # sym  WBO       # sym  WBO
 ---------------------------------------------------------------------------
     1   6 C    3.997 --     2 C    1.011    18 H    0.986    17 H    0.986
                            16 H    0.984
     2   6 C    3.995 --     1 C    1.011    15 C    1.011     3 C    0.974
                            19 H    0.969
     3   6 C    3.997 --     4 C    1.016     2 C    0.974    20 H    0.972
                            21 H    0.972
     4   6 C    3.987 --     5 C    1.409    14 C    1.405     3 C    1.016
                             7 C    0.105
     5   6 C    3.991 --     6 C    1.445     4 C    1.409    22 H    0.968
                            13 C    0.109
     6   6 C    3.991 --     5 C    1.445     7 C    1.412    23 H    0.968
                            14 C    0.108
     7   6 C    3.985 --     6 C    1.412    13 C    1.406     8 C    0.967
                             4 C    0.105
     8   6 C    3.992 --    12 C    0.990     7 C    0.967    24 H    0.961
                             9 C    0.956
     9   6 C    3.907 --    11 O    1.766    10 O    1.127     8 C    0.956
    10   8 O    2.194 --     9 C    1.127    25 H    0.867    11 O    0.170
    11   8 O    2.041 --     9 C    1.766    10 O    0.170
    12   6 C    3.992 --     8 C    0.990    26 H    0.986    27 H    0.986
                            28 H    0.983
    13   6 C    3.991 --    14 C    1.452     7 C    1.406    29 H    0.967
                             5 C    0.109
    14   6 C    3.992 --    13 C    1.452     4 C    1.405    30 H    0.968
                             6 C    0.108
    15   6 C    3.997 --     2 C    1.011    31 H    0.987    32 H    0.986
                            33 H    0.985
    16   1 H    0.999 --     1 C    0.984
    17   1 H    0.999 --     1 C    0.986
    18   1 H    0.999 --     1 C    0.986
    19   1 H    0.999 --     2 C    0.969
    20   1 H    0.998 --     3 C    0.972
    21   1 H    0.998 --     3 C    0.972
    22   1 H    0.998 --     5 C    0.968
    23   1 H    0.999 --     6 C    0.968
    24   1 H    0.996 --     8 C    0.961
    25   1 H    0.893 --    10 O    0.867
    26   1 H    0.998 --    12 C    0.986
    27   1 H    0.997 --    12 C    0.986
    28   1 H    0.996 --    12 C    0.983
    29   1 H    0.998 --    13 C    0.967
    30   1 H    0.998 --    14 C    0.968
    31   1 H    0.999 --    15 C    0.987
    32   1 H    0.999 --    15 C    0.986
    33   1 H    0.999 --    15 C    0.985
 ---------------------------------------------------------------------------

Topologies differ in total number of bonds
Writing topology from bond orders to xtbtopo.mol

molecular dipole:
                 x           y           z       tot (Debye)
 q only:       -0.365       0.395      -0.469
   full:       -0.312       0.532      -0.365       1.822
molecular quadrupole (traceless):
                xx          xy          yy          xz          yz          zz
 q only:        0.605       4.547       0.229      -3.995       5.300      -0.834
  q+dip:        2.544       7.117      -1.805      -2.231       3.602      -0.739
   full:        2.044       6.384      -1.619      -2.959       5.818      -0.425

           -------------------------------------------------
          |                Geometry Summary                 |
           -------------------------------------------------

      molecular mass/u    :      206.2813100
   center of mass at/Å    :        0.5305639      -0.0169791       0.1138035
  moments of inertia/u·Å² :        0.4257888E+03   0.1705859E+04   0.1769272E+04
rotational constants/cm⁻¹ :        0.3959154E-01   0.9882197E-02   0.9528005E-02

 * 29 selected distances

     #   Z          #   Z                                           value/Å
     1   6 C        2   6 C                                       1.5257003
     4   6 C        5   6 C                                       1.3893508
     5   6 C        6   6 C                                       1.3831323
     6   6 C        7   6 C                                       1.3874818
     9   6 C       10   8 O                                       1.3397840
     9   6 C       11   8 O                                       1.2012074
     8   6 C       12   6 C                                       1.5294109 (max)
     7   6 C       13   6 C                                       1.3891134
     4   6 C       14   6 C                                       1.3902136
    13   6 C       14   6 C                                       1.3822418
     2   6 C       15   6 C                                       1.5258512
     1   6 C       16   1 H                                       1.0873156
     1   6 C       17   1 H                                       1.0876990
     1   6 C       18   1 H                                       1.0878589
     2   6 C       19   1 H                                       1.0967228
     3   6 C       20   1 H                                       1.0924554
     3   6 C       21   1 H                                       1.0924440
     5   6 C       22   1 H                                       1.0804956
     6   6 C       23   1 H                                       1.0808414
     8   6 C       24   1 H                                       1.0931809
    10   8 O       25   1 H                                       0.9707011 (min)
    12   6 C       26   1 H                                       1.0869621
    12   6 C       27   1 H                                       1.0875192
    12   6 C       28   1 H                                       1.0862046
    13   6 C       29   1 H                                       1.0797748
    14   6 C       30   1 H                                       1.0803489
    15   6 C       31   1 H                                       1.0878582
    15   6 C       32   1 H                                       1.0877237
    15   6 C       33   1 H                                       1.0874428

 * 4 distinct bonds (by element types)

   Z      Z             #   av. dist./Å        max./Å        min./Å
   1 H    6 C          17     1.0872263     1.0967228     1.0797748
   6 C    6 C           9     1.4336107     1.5294109     1.3822418
   1 H    8 O           1     0.9707011     0.9707011     0.9707011
   6 C    8 O           2     1.2704957     1.3397840     1.2012074


optimized geometry written to: xtbopt.xyz


           -------------------------------------------------
          | TOTAL ENERGY              -45.171143648983 Eh   |
          | GRADIENT NORM               0.000614063848 Eh/α |
          | HOMO-LUMO GAP               4.098038951995 eV   |
           -------------------------------------------------

------------------------------------------------------------------------
 * finished run on 2025/05/15 at 16:29:36.484     
------------------------------------------------------------------------
 total:
 * wall-time:     0 d,  0 h,  0 min,  0.453 sec
 *  cpu-time:     0 d,  0 h,  0 min,  0.381 sec
 * ratio c/w:     0.842 speedup
 SCF:
 * wall-time:     0 d,  0 h,  0 min,  0.031 sec
 *  cpu-time:     0 d,  0 h,  0 min,  0.031 sec
 * ratio c/w:     0.995 speedup
 ANC optimizer:
 * wall-time:     0 d,  0 h,  0 min,  0.401 sec
 *  cpu-time:     0 d,  0 h,  0 min,  0.341 sec
 * ratio c/w:     0.850 speedup



----- Single-point -----
      -----------------------------------------------------------      
     |                   =====================                   |     
     |                           x T B                           |     
     |                   =====================                   |     
     |                         S. Grimme                         |     
     |          Mulliken Center for Theoretical Chemistry        |     
     |                    University of Bonn                     |     
      -----------------------------------------------------------      

   * xtb version 6.7.1 (edcfbbe) compiled by 'conda@3ef47c1a292c' on 2024-11-25

   xtb is free software: you can redistribute it and/or modify it under
   the terms of the GNU Lesser General Public License as published by
   the Free Software Foundation, either version 3 of the License, or
   (at your option) any later version.
   
   xtb is distributed in the hope that it will be useful,
   but WITHOUT ANY WARRANTY; without even the implied warranty of
   MERCHANTABILITY or FITNESS FOR A PARTICULAR PURPOSE.  See the
   GNU Lesser General Public License for more details.
   
   Cite this work as:
   * C. Bannwarth, E. Caldeweyher, S. Ehlert, A. Hansen, P. Pracht,
     J. Seibert, S. Spicher, S. Grimme, WIREs Comput. Mol. Sci., 2020, 11,
     e01493. DOI: 10.1002/wcms.1493
   
   for GFN2-xTB:
   * C. Bannwarth, S. Ehlert and S. Grimme., J. Chem. Theory Comput., 2019,
     15, 1652-1671. DOI: 10.1021/acs.jctc.8b01176
   for GFN1-xTB:
   * S. Grimme, C. Bannwarth, P. Shushkov, J. Chem. Theory Comput., 2017,
     13, 1989-2009. DOI: 10.1021/acs.jctc.7b00118
   for GFN0-xTB:
   * P. Pracht, E. Caldeweyher, S. Ehlert, S. Grimme, ChemRxiv, 2019, preprint.
     DOI: 10.26434/chemrxiv.8326202.v1
   for GFN-FF:
   * S. Spicher and S. Grimme, Angew. Chem. Int. Ed., 2020, 59, 15665-15673.
     DOI: 10.1002/anie.202004239
   
   for ALPB and GBSA implicit solvation:
   * S. Ehlert, M. Stahn, S. Spicher, S. Grimme, J. Chem. Theory Comput.,
     2021, 17, 4250-4261. DOI: 10.1021/acs.jctc.1c00471
   
   for ddCOSMO and CPCM-X implicit solvation:
   * M. Stahn, S. Ehlert, S. Grimme, J. Phys. Chem. A,
     2023, XX, XXXX-XXXX. DOI: 10.1021/acs.jpca.3c04382
   
   for DFT-D4:
   * E. Caldeweyher, C. Bannwarth and S. Grimme, J. Chem. Phys., 2017,
     147, 034112. DOI: 10.1063/1.4993215
   * E. Caldeweyher, S. Ehlert, A. Hansen, H. Neugebauer, S. Spicher,
     C. Bannwarth and S. Grimme, J. Chem. Phys., 2019, 150, 154122.
     DOI: 10.1063/1.5090222
   * E. Caldeweyher, J.-M. Mewes, S. Ehlert and S. Grimme, Phys. Chem. Chem. Phys.
     2020, 22, 8499-8512. DOI: 10.1039/D0CP00502A
   
   for sTDA-xTB:
   * S. Grimme and C. Bannwarth, J. Chem. Phys., 2016, 145, 054103.
     DOI: 10.1063/1.4959605
   
   in the mass-spec context:
   * V. Asgeirsson, C. Bauer and S. Grimme, Chem. Sci., 2017, 8, 4879.
     DOI: 10.1039/c7sc00601b
   * J. Koopman and S. Grimme, ACS Omega 2019, 4, 12, 15120-15133.
     DOI: 10.1021/acsomega.9b02011
   
   for metadynamics refer to:
   * S. Grimme, J. Chem. Theory Comput., 2019, 155, 2847-2862
     DOI: 10.1021/acs.jctc.9b00143
   
   for SPH calculations refer to:
   * S. Spicher and S. Grimme, J. Chem. Theory Comput., 2021, 17, 1701-1714
     DOI: 10.1021/acs.jctc.0c01306
   
   for ONIOM refer to:
   * C. Plett, A. Katbashev, S. Ehlert, S. Grimme, M. Bursch,
     Phys. Chem. Chem. Phys., 2023, 25, 17860-17868. DOI: 10.1039/D3CP02178E
   
   for DIPRO refer to:
   * J. Kohn, N. Gildemeister, S. Grimme, D. Fazzi, A. Hansen,
     J. Chem. Phys., 2023, just accepted.
   
   for PTB refer to:
   * S. Grimme, M. Mueller, A. Hansen, J. Chem. Phys., 2023, 158, 124111.
     DOI: 10.1063/5.0137838
   
   with help from (in alphabetical order)
   P. Atkinson, C. Bannwarth, F. Bohle, G. Brandenburg, E. Caldeweyher
   M. Checinski, S. Dohm, S. Ehlert, S. Ehrlich, I. Gerasimov, C. Hölzer
   A. Katbashev, J. Kohn, J. Koopman, C. Lavigne, S. Lehtola, F. März, M. Müller,
   F. Musil, H. Neugebauer, J. Pisarek, C. Plett, P. Pracht, F. Pultar,
   J. Seibert, P. Shushkov, S. Spicher, M. Stahn, M. Steiner, T. Strunk,
   J. Stückrath, T. Rose, and J. Unsleber
   
 * started run on 2025/05/15 at 16:29:36.510     
   ID    Z sym.   atoms
    1    6 C      1-9, 12-15
    2    8 O      10, 11
    3    1 H      16-33

           -------------------------------------------------
          |                Calculation Setup                |
           -------------------------------------------------

          program call               : xtb /rds/general/user/hgt20/home/callum/QDESCP/Ibuprofen_rdkit_conf_9/Ibuprofen_rdkit_conf_9.xyz --acc 1 --gfn 2 --chrg 0 --uhf 0 --etemp 300 --input /rds/general/user/hgt20/home/callum/QDESCP/Ibuprofen_rdkit_conf_9/Ibuprofen_rdkit_conf_9_xtb.inp -P 1
          hostname                   : login-c
          coordinate file            : /rds/general/user/hgt20/home/callum/QDESCP/Ibuprofen_rdkit_conf_9/Ibuprofen_rdkit_conf_9.xyz
          omp threads                :                     1


           -------------------------------------------------
          |                 G F N 2 - x T B                 |
           -------------------------------------------------

        Reference                      10.1021/acs.jctc.8b01176
      * Hamiltonian:
        H0-scaling (s, p, d)           1.850000    2.230000    2.230000
        zeta-weighting                 0.500000
      * Dispersion:
        s8                             2.700000
        a1                             0.520000
        a2                             5.000000
        s9                             5.000000
      * Repulsion:
        kExp                           1.500000    1.000000
        rExp                           1.000000
      * Coulomb:
        alpha                          2.000000
        third order                    shell-resolved
        anisotropic                    true
        a3                             3.000000
        a5                             4.000000
        cn-shift                       1.200000
        cn-exp                         4.000000
        max-rad                        5.000000

q/qsh data taken from xtbrestart
CAMM data taken from xtbrestart

          ...................................................
          :                      SETUP                      :
          :.................................................:
          :  # basis functions                  78          :
          :  # atomic orbitals                  78          :
          :  # shells                           48          :
          :  # electrons                        82          :
          :  max. iterations                   250          :
          :  Hamiltonian                  GFN2-xTB          :
          :  restarted?                       true          :
          :  GBSA solvation                  false          :
          :  PC potential                    false          :
          :  electronic temp.          300.0000000     K    :
          :  accuracy                    1.0000000          :
          :  -> integral cutoff          0.2500000E+02      :
          :  -> integral neglect         0.1000000E-07      :
          :  -> SCF convergence          0.1000000E-05 Eh   :
          :  -> wf. convergence          0.1000000E-03 e    :
          :  Broyden damping             0.4000000          :
          :  net charge                          0          :
          :  unpaired electrons                  0          :
          ...................................................

 iter      E             dE          RMSdq      gap      omega  full diag
   1    -45.8366484 -0.458366E+02  0.498E-06    4.10       0.0  T
   2    -45.8366484  0.710543E-14  0.288E-06    4.10    6048.6  T
   3    -45.8366484 -0.781597E-13  0.186E-06    4.10    9361.3  T

   *** convergence criteria satisfied after 3 iterations ***

         #    Occupation            Energy/Eh            Energy/eV
      -------------------------------------------------------------
         1        2.0000           -0.7446934             -20.2641
       ...           ...                  ...                  ...
        35        2.0000           -0.4366127             -11.8808
        36        2.0000           -0.4321046             -11.7582
        37        2.0000           -0.4231403             -11.5142
        38        2.0000           -0.4154771             -11.3057
        39        2.0000           -0.4100178             -11.1572
        40        2.0000           -0.4013679             -10.9218
        41        2.0000           -0.3877810             -10.5521 (HOMO)
        42                         -0.2371807              -6.4540 (LUMO)
        43                         -0.2199515              -5.9852
        44                         -0.2153155              -5.8590
        45                         -0.0940212              -2.5584
        46                          0.0480334               1.3071
       ...                                ...                  ...
        78                          0.6584499              17.9173
      -------------------------------------------------------------
                  HL-Gap            0.1506003 Eh            4.0980 eV
             Fermi-level           -0.3124808 Eh           -8.5030 eV

 SCC (total)                   0 d,  0 h,  0 min,  0.024 sec
 SCC setup                      ...        0 min,  0.000 sec (  1.042%)
 Dispersion                     ...        0 min,  0.000 sec (  1.167%)
 classical contributions        ...        0 min,  0.000 sec (  0.384%)
 integral evaluation            ...        0 min,  0.004 sec ( 18.880%)
 iterations                     ...        0 min,  0.005 sec ( 19.651%)
 molecular gradient             ...        0 min,  0.014 sec ( 58.254%)
 printout                       ...        0 min,  0.000 sec (  0.596%)

         :::::::::::::::::::::::::::::::::::::::::::::::::::::
         ::                     SUMMARY                     ::
         :::::::::::::::::::::::::::::::::::::::::::::::::::::
         :: total energy             -45.171143648989 Eh    ::
         :: gradient norm              0.000613919297 Eh/a0 ::
         :: HOMO-LUMO gap              4.098044007843 eV    ::
         ::.................................................::
         :: SCC energy               -45.836366798358 Eh    ::
         :: -> isotropic ES            0.052067758564 Eh    ::
         :: -> anisotropic ES          0.006371003599 Eh    ::
         :: -> anisotropic XC          0.018422550642 Eh    ::
         :: -> dispersion             -0.030168854763 Eh    ::
         :: repulsion energy           0.665223149369 Eh    ::
         :: add. restraining           0.000000000000 Eh    ::
         :: total charge               0.000000000000 e     ::
         :::::::::::::::::::::::::::::::::::::::::::::::::::::

           -------------------------------------------------
          |                Property Printout                |
           -------------------------------------------------

    * Orbital Energies and Occupations

         #    Occupation            Energy/Eh            Energy/eV
      -------------------------------------------------------------
         1        2.0000           -0.7446934             -20.2641
       ...           ...                  ...                  ...
        29        2.0000           -0.4664495             -12.6927
        30        2.0000           -0.4621650             -12.5762
        31        2.0000           -0.4592855             -12.4978
        32        2.0000           -0.4523487             -12.3090
        33        2.0000           -0.4477164             -12.1830
        34        2.0000           -0.4381782             -11.9234
        35        2.0000           -0.4366127             -11.8808
        36        2.0000           -0.4321046             -11.7582
        37        2.0000           -0.4231403             -11.5142
        38        2.0000           -0.4154771             -11.3057
        39        2.0000           -0.4100178             -11.1572
        40        2.0000           -0.4013679             -10.9218
        41        2.0000           -0.3877810             -10.5521 (HOMO)
        42                         -0.2371807              -6.4540 (LUMO)
        43                         -0.2199515              -5.9852
        44                         -0.2153155              -5.8590
        45                         -0.0940212              -2.5584
        46                          0.0480334               1.3071
        47                          0.0839312               2.2839
        48                          0.0901303               2.4526
        49                          0.0939293               2.5559
        50                          0.1069196               2.9094
        51                          0.1190498               3.2395
        52                          0.1322179               3.5978
       ...                                ...                  ...
        78                          0.6584499              17.9173
      -------------------------------------------------------------
                  HL-Gap            0.1506003 Eh            4.0980 eV
             Fermi-level           -0.3124808 Eh           -8.5030 eV

     #   Z          covCN         q      C6AA      α(0)
     1   6 C        3.755    -0.106    22.574     6.775
     2   6 C        3.849    -0.005    20.638     6.462
     3   6 C        3.809    -0.068    21.786     6.644
     4   6 C        2.967     0.016    27.651     8.625
     5   6 C        2.925    -0.038    28.956     8.825
     6   6 C        2.922    -0.039    28.977     8.828
     7   6 C        2.980     0.009    27.809     8.650
     8   6 C        3.858    -0.042    21.293     6.563
     9   6 C        2.699     0.363    20.842     7.472
    10   8 O        1.660    -0.381    20.488     6.110
    11   8 O        0.856    -0.409    21.872     6.270
    12   6 C        3.756    -0.103    22.525     6.767
    13   6 C        2.922    -0.039    28.974     8.827
    14   6 C        2.925    -0.038    28.937     8.822
    15   6 C        3.755    -0.106    22.572     6.774
    16   1 H        0.925     0.039     2.467     2.456
    17   1 H        0.925     0.034     2.534     2.489
    18   1 H        0.925     0.033     2.546     2.495
    19   1 H        0.924     0.027     2.629     2.536
    20   1 H        0.924     0.036     2.497     2.471
    21   1 H        0.924     0.037     2.488     2.467
    22   1 H        0.926     0.034     2.535     2.490
    23   1 H        0.926     0.030     2.584     2.514
    24   1 H        0.924     0.058     2.225     2.333
    25   1 H        0.804     0.327     0.645     1.261
    26   1 H        0.925     0.045     2.377     2.411
    27   1 H        0.925     0.043     2.415     2.430
    28   1 H        0.925     0.060     2.197     2.318
    29   1 H        0.926     0.044     2.391     2.418
    30   1 H        0.926     0.035     2.513     2.479
    31   1 H        0.925     0.032     2.553     2.499
    32   1 H        0.925     0.034     2.533     2.489
    33   1 H        0.925     0.038     2.473     2.459

 Mol. C6AA /au·bohr⁶  :      10237.948281
 Mol. C8AA /au·bohr⁸  :     234145.025275
 Mol. α(0) /au        :        155.427888


Wiberg/Mayer (AO) data.
largest (>0.10) Wiberg bond orders for each atom

 ---------------------------------------------------------------------------
     #   Z sym  total        # sym  WBO       # sym  WBO       # sym  WBO
 ---------------------------------------------------------------------------
     1   6 C    3.997 --     2 C    1.011    18 H    0.986    17 H    0.986
                            16 H    0.984
     2   6 C    3.995 --     1 C    1.011    15 C    1.011     3 C    0.974
                            19 H    0.969
     3   6 C    3.997 --     4 C    1.016     2 C    0.974    20 H    0.972
                            21 H    0.972
     4   6 C    3.987 --     5 C    1.409    14 C    1.405     3 C    1.016
                             7 C    0.105
     5   6 C    3.991 --     6 C    1.445     4 C    1.409    22 H    0.968
                            13 C    0.109
     6   6 C    3.991 --     5 C    1.445     7 C    1.412    23 H    0.968
                            14 C    0.108
     7   6 C    3.985 --     6 C    1.412    13 C    1.406     8 C    0.967
                             4 C    0.105
     8   6 C    3.992 --    12 C    0.990     7 C    0.967    24 H    0.961
                             9 C    0.956
     9   6 C    3.907 --    11 O    1.766    10 O    1.127     8 C    0.956
    10   8 O    2.194 --     9 C    1.127    25 H    0.867    11 O    0.170
    11   8 O    2.041 --     9 C    1.766    10 O    0.170
    12   6 C    3.992 --     8 C    0.990    26 H    0.986    27 H    0.986
                            28 H    0.983
    13   6 C    3.991 --    14 C    1.452     7 C    1.406    29 H    0.967
                             5 C    0.109
    14   6 C    3.992 --    13 C    1.452     4 C    1.405    30 H    0.968
                             6 C    0.108
    15   6 C    3.997 --     2 C    1.011    31 H    0.987    32 H    0.986
                            33 H    0.985
    16   1 H    0.999 --     1 C    0.984
    17   1 H    0.999 --     1 C    0.986
    18   1 H    0.999 --     1 C    0.986
    19   1 H    0.999 --     2 C    0.969
    20   1 H    0.998 --     3 C    0.972
    21   1 H    0.998 --     3 C    0.972
    22   1 H    0.998 --     5 C    0.968
    23   1 H    0.999 --     6 C    0.968
    24   1 H    0.996 --     8 C    0.961
    25   1 H    0.893 --    10 O    0.867
    26   1 H    0.998 --    12 C    0.986
    27   1 H    0.997 --    12 C    0.986
    28   1 H    0.996 --    12 C    0.983
    29   1 H    0.998 --    13 C    0.967
    30   1 H    0.998 --    14 C    0.968
    31   1 H    0.999 --    15 C    0.987
    32   1 H    0.999 --    15 C    0.986
    33   1 H    0.999 --    15 C    0.985
 ---------------------------------------------------------------------------

Topologies differ in total number of bonds
Writing topology from bond orders to xtbtopo.mol

molecular dipole:
                 x           y           z       tot (Debye)
 q only:       -0.365       0.395      -0.469
   full:       -0.312       0.532      -0.365       1.822
molecular quadrupole (traceless):
                xx          xy          yy          xz          yz          zz
 q only:        0.605       4.547       0.229      -3.995       5.300      -0.834
  q+dip:        2.544       7.117      -1.805      -2.231       3.602      -0.739
   full:        2.044       6.384      -1.619      -2.959       5.818      -0.425


           -------------------------------------------------
          | TOTAL ENERGY              -45.171143648989 Eh   |
          | GRADIENT NORM               0.000613919297 Eh/α |
          | HOMO-LUMO GAP               4.098044007843 eV   |
           -------------------------------------------------

------------------------------------------------------------------------
 * finished run on 2025/05/15 at 16:29:36.543     
------------------------------------------------------------------------
 total:
 * wall-time:     0 d,  0 h,  0 min,  0.033 sec
 *  cpu-time:     0 d,  0 h,  0 min,  0.032 sec
 * ratio c/w:     0.971 speedup
 SCF:
 * wall-time:     0 d,  0 h,  0 min,  0.024 sec
 *  cpu-time:     0 d,  0 h,  0 min,  0.024 sec
 * ratio c/w:     0.994 speedup



----- FOD -----
      -----------------------------------------------------------      
     |                   =====================                   |     
     |                           x T B                           |     
     |                   =====================                   |     
     |                         S. Grimme                         |     
     |          Mulliken Center for Theoretical Chemistry        |     
     |                    University of Bonn                     |     
      -----------------------------------------------------------      

   * xtb version 6.7.1 (edcfbbe) compiled by 'conda@3ef47c1a292c' on 2024-11-25

   xtb is free software: you can redistribute it and/or modify it under
   the terms of the GNU Lesser General Public License as published by
   the Free Software Foundation, either version 3 of the License, or
   (at your option) any later version.
   
   xtb is distributed in the hope that it will be useful,
   but WITHOUT ANY WARRANTY; without even the implied warranty of
   MERCHANTABILITY or FITNESS FOR A PARTICULAR PURPOSE.  See the
   GNU Lesser General Public License for more details.
   
   Cite this work as:
   * C. Bannwarth, E. Caldeweyher, S. Ehlert, A. Hansen, P. Pracht,
     J. Seibert, S. Spicher, S. Grimme, WIREs Comput. Mol. Sci., 2020, 11,
     e01493. DOI: 10.1002/wcms.1493
   
   for GFN2-xTB:
   * C. Bannwarth, S. Ehlert and S. Grimme., J. Chem. Theory Comput., 2019,
     15, 1652-1671. DOI: 10.1021/acs.jctc.8b01176
   for GFN1-xTB:
   * S. Grimme, C. Bannwarth, P. Shushkov, J. Chem. Theory Comput., 2017,
     13, 1989-2009. DOI: 10.1021/acs.jctc.7b00118
   for GFN0-xTB:
   * P. Pracht, E. Caldeweyher, S. Ehlert, S. Grimme, ChemRxiv, 2019, preprint.
     DOI: 10.26434/chemrxiv.8326202.v1
   for GFN-FF:
   * S. Spicher and S. Grimme, Angew. Chem. Int. Ed., 2020, 59, 15665-15673.
     DOI: 10.1002/anie.202004239
   
   for ALPB and GBSA implicit solvation:
   * S. Ehlert, M. Stahn, S. Spicher, S. Grimme, J. Chem. Theory Comput.,
     2021, 17, 4250-4261. DOI: 10.1021/acs.jctc.1c00471
   
   for ddCOSMO and CPCM-X implicit solvation:
   * M. Stahn, S. Ehlert, S. Grimme, J. Phys. Chem. A,
     2023, XX, XXXX-XXXX. DOI: 10.1021/acs.jpca.3c04382
   
   for DFT-D4:
   * E. Caldeweyher, C. Bannwarth and S. Grimme, J. Chem. Phys., 2017,
     147, 034112. DOI: 10.1063/1.4993215
   * E. Caldeweyher, S. Ehlert, A. Hansen, H. Neugebauer, S. Spicher,
     C. Bannwarth and S. Grimme, J. Chem. Phys., 2019, 150, 154122.
     DOI: 10.1063/1.5090222
   * E. Caldeweyher, J.-M. Mewes, S. Ehlert and S. Grimme, Phys. Chem. Chem. Phys.
     2020, 22, 8499-8512. DOI: 10.1039/D0CP00502A
   
   for sTDA-xTB:
   * S. Grimme and C. Bannwarth, J. Chem. Phys., 2016, 145, 054103.
     DOI: 10.1063/1.4959605
   
   in the mass-spec context:
   * V. Asgeirsson, C. Bauer and S. Grimme, Chem. Sci., 2017, 8, 4879.
     DOI: 10.1039/c7sc00601b
   * J. Koopman and S. Grimme, ACS Omega 2019, 4, 12, 15120-15133.
     DOI: 10.1021/acsomega.9b02011
   
   for metadynamics refer to:
   * S. Grimme, J. Chem. Theory Comput., 2019, 155, 2847-2862
     DOI: 10.1021/acs.jctc.9b00143
   
   for SPH calculations refer to:
   * S. Spicher and S. Grimme, J. Chem. Theory Comput., 2021, 17, 1701-1714
     DOI: 10.1021/acs.jctc.0c01306
   
   for ONIOM refer to:
   * C. Plett, A. Katbashev, S. Ehlert, S. Grimme, M. Bursch,
     Phys. Chem. Chem. Phys., 2023, 25, 17860-17868. DOI: 10.1039/D3CP02178E
   
   for DIPRO refer to:
   * J. Kohn, N. Gildemeister, S. Grimme, D. Fazzi, A. Hansen,
     J. Chem. Phys., 2023, just accepted.
   
   for PTB refer to:
   * S. Grimme, M. Mueller, A. Hansen, J. Chem. Phys., 2023, 158, 124111.
     DOI: 10.1063/5.0137838
   
   with help from (in alphabetical order)
   P. Atkinson, C. Bannwarth, F. Bohle, G. Brandenburg, E. Caldeweyher
   M. Checinski, S. Dohm, S. Ehlert, S. Ehrlich, I. Gerasimov, C. Hölzer
   A. Katbashev, J. Kohn, J. Koopman, C. Lavigne, S. Lehtola, F. März, M. Müller,
   F. Musil, H. Neugebauer, J. Pisarek, C. Plett, P. Pracht, F. Pultar,
   J. Seibert, P. Shushkov, S. Spicher, M. Stahn, M. Steiner, T. Strunk,
   J. Stückrath, T. Rose, and J. Unsleber
   
 * started run on 2025/05/15 at 16:29:36.922     
   ID    Z sym.   atoms
    1    6 C      1-9, 12-15
    2    8 O      10, 11
    3    1 H      16-33

           -------------------------------------------------
          |                Calculation Setup                |
           -------------------------------------------------

          program call               : xtb /rds/general/user/hgt20/home/callum/QDESCP/Ibuprofen_rdkit_conf_9/Ibuprofen_rdkit_conf_9.xyz --fod --gfn 2 --chrg 0 --acc 1 --uhf 0 --etemp 300 -P 1
          hostname                   : login-c
          coordinate file            : /rds/general/user/hgt20/home/callum/QDESCP/Ibuprofen_rdkit_conf_9/Ibuprofen_rdkit_conf_9.xyz
          omp threads                :                     1


           -------------------------------------------------
          |                 G F N 2 - x T B                 |
           -------------------------------------------------

        Reference                      10.1021/acs.jctc.8b01176
      * Hamiltonian:
        H0-scaling (s, p, d)           1.850000    2.230000    2.230000
        zeta-weighting                 0.500000
      * Dispersion:
        s8                             2.700000
        a1                             0.520000
        a2                             5.000000
        s9                             5.000000
      * Repulsion:
        kExp                           1.500000    1.000000
        rExp                           1.000000
      * Coulomb:
        alpha                          2.000000
        third order                    shell-resolved
        anisotropic                    true
        a3                             3.000000
        a5                             4.000000
        cn-shift                       1.200000
        cn-exp                         4.000000
        max-rad                        5.000000


          ...................................................
          :                      SETUP                      :
          :.................................................:
          :  # basis functions                  78          :
          :  # atomic orbitals                  78          :
          :  # shells                           48          :
          :  # electrons                        82          :
          :  max. iterations                   250          :
          :  Hamiltonian                  GFN2-xTB          :
          :  restarted?                      false          :
          :  GBSA solvation                  false          :
          :  PC potential                    false          :
          :  electronic temp.         5000.0000000     K    :
          :  accuracy                    1.0000000          :
          :  -> integral cutoff          0.2500000E+02      :
          :  -> integral neglect         0.1000000E-07      :
          :  -> SCF convergence          0.1000000E-05 Eh   :
          :  -> wf. convergence          0.1000000E-03 e    :
          :  Broyden damping             0.4000000          :
          :  net charge                          0          :
          :  unpaired electrons                  0          :
[...]

   xtb is free software: you can redistribute it and/or modify it under
   the terms of the GNU Lesser General Public License as published by
   the Free Software Foundation, either version 3 of the License, or
   (at your option) any later version.
   
   xtb is distributed in the hope that it will be useful,
   but WITHOUT ANY WARRANTY; without even the implied warranty of
   MERCHANTABILITY or FITNESS FOR A PARTICULAR PURPOSE.  See the
   GNU Lesser General Public License for more details.
   
   Cite this work as:
   * C. Bannwarth, E. Caldeweyher, S. Ehlert, A. Hansen, P. Pracht,
     J. Seibert, S. Spicher, S. Grimme, WIREs Comput. Mol. Sci., 2020, 11,
     e01493. DOI: 10.1002/wcms.1493
   
   for GFN2-xTB:
   * C. Bannwarth, S. Ehlert and S. Grimme., J. Chem. Theory Comput., 2019,
     15, 1652-1671. DOI: 10.1021/acs.jctc.8b01176
   for GFN1-xTB:
   * S. Grimme, C. Bannwarth, P. Shushkov, J. Chem. Theory Comput., 2017,
     13, 1989-2009. DOI: 10.1021/acs.jctc.7b00118
   for GFN0-xTB:
   * P. Pracht, E. Caldeweyher, S. Ehlert, S. Grimme, ChemRxiv, 2019, preprint.
     DOI: 10.26434/chemrxiv.8326202.v1
   for GFN-FF:
   * S. Spicher and S. Grimme, Angew. Chem. Int. Ed., 2020, 59, 15665-15673.
     DOI: 10.1002/anie.202004239
   
   for ALPB and GBSA implicit solvation:
   * S. Ehlert, M. Stahn, S. Spicher, S. Grimme, J. Chem. Theory Comput.,
     2021, 17, 4250-4261. DOI: 10.1021/acs.jctc.1c00471
   
   for ddCOSMO and CPCM-X implicit solvation:
   * M. Stahn, S. Ehlert, S. Grimme, J. Phys. Chem. A,
     2023, XX, XXXX-XXXX. DOI: 10.1021/acs.jpca.3c04382
   
   for DFT-D4:
   * E. Caldeweyher, C. Bannwarth and S. Grimme, J. Chem. Phys., 2017,
     147, 034112. DOI: 10.1063/1.4993215
   * E. Caldeweyher, S. Ehlert, A. Hansen, H. Neugebauer, S. Spicher,
     C. Bannwarth and S. Grimme, J. Chem. Phys., 2019, 150, 154122.
     DOI: 10.1063/1.5090222
   * E. Caldeweyher, J.-M. Mewes, S. Ehlert and S. Grimme, Phys. Chem. Chem. Phys.
     2020, 22, 8499-8512. DOI: 10.1039/D0CP00502A
   
   for sTDA-xTB:
   * S. Grimme and C. Bannwarth, J. Chem. Phys., 2016, 145, 054103.
     DOI: 10.1063/1.4959605
   
   in the mass-spec context:
   * V. Asgeirsson, C. Bauer and S. Grimme, Chem. Sci., 2017, 8, 4879.
     DOI: 10.1039/c7sc00601b
   * J. Koopman and S. Grimme, ACS Omega 2019, 4, 12, 15120-15133.
     DOI: 10.1021/acsomega.9b02011
   
   for metadynamics refer to:
   * S. Grimme, J. Chem. Theory Comput., 2019, 155, 2847-2862
     DOI: 10.1021/acs.jctc.9b00143
   
   for SPH calculations refer to:
   * S. Spicher and S. Grimme, J. Chem. Theory Comput., 2021, 17, 1701-1714
     DOI: 10.1021/acs.jctc.0c01306
   
   for ONIOM refer to:
   * C. Plett, A. Katbashev, S. Ehlert, S. Grimme, M. Bursch,
     Phys. Chem. Chem. Phys., 2023, 25, 17860-17868. DOI: 10.1039/D3CP02178E
   
   for DIPRO refer to:
   * J. Kohn, N. Gildemeister, S. Grimme, D. Fazzi, A. Hansen,
     J. Chem. Phys., 2023, just accepted.
   
   for PTB refer to:
   * S. Grimme, M. Mueller, A. Hansen, J. Chem. Phys., 2023, 158, 124111.
     DOI: 10.1063/5.0137838
   
   with help from (in alphabetical order)
   P. Atkinson, C. Bannwarth, F. Bohle, G. Brandenburg, E. Caldeweyher
   M. Checinski, S. Dohm, S. Ehlert, S. Ehrlich, I. Gerasimov, C. Hölzer
   A. Katbashev, J. Kohn, J. Koopman, C. Lavigne, S. Lehtola, F. März, M. Müller,
   F. Musil, H. Neugebauer, J. Pisarek, C. Plett, P. Pracht, F. Pultar,
   J. Seibert, P. Shushkov, S. Spicher, M. Stahn, M. Steiner, T. Strunk,
   J. Stückrath, T. Rose, and J. Unsleber
   
 * started run on 2025/05/15 at 16:29:37.405     
   ID    Z sym.   atoms
    1    6 C      1-9, 12-15
    2    8 O      10, 11
    3    1 H      16-33

           -------------------------------------------------
          |                Calculation Setup                |
           -------------------------------------------------

          program call               : xtb /rds/general/user/hgt20/home/callum/QDESCP/Ibuprofen_rdkit_conf_9/Ibuprofen_rdkit_conf_9.xyz --acc 1 --gfn 2 --chrg 0 --uhf 2 --etemp 300 --input /rds/general/user/hgt20/home/callum/QDESCP/Ibuprofen_rdkit_conf_9/Ibuprofen_rdkit_conf_9_xtb.inp -P 1
          hostname                   : login-c
          coordinate file            : /rds/general/user/hgt20/home/callum/QDESCP/Ibuprofen_rdkit_conf_9/Ibuprofen_rdkit_conf_9.xyz
          omp threads                :                     1


           -------------------------------------------------
          |                 G F N 2 - x T B                 |
           -------------------------------------------------

        Reference                      10.1021/acs.jctc.8b01176
      * Hamiltonian:
        H0-scaling (s, p, d)           1.850000    2.230000    2.230000
        zeta-weighting                 0.500000
      * Dispersion:
        s8                             2.700000
        a1                             0.520000
        a2                             5.000000
        s9                             5.000000
      * Repulsion:
        kExp                           1.500000    1.000000
        rExp                           1.000000
      * Coulomb:
        alpha                          2.000000
        third order                    shell-resolved
        anisotropic                    true
        a3                             3.000000
        a5                             4.000000
        cn-shift                       1.200000
        cn-exp                         4.000000
        max-rad                        5.000000


          ...................................................
          :                      SETUP                      :
          :.................................................:
          :  # basis functions                  78          :
          :  # atomic orbitals                  78          :
          :  # shells                           48          :
          :  # electrons                        82          :
          :  max. iterations                   250          :
          :  Hamiltonian                  GFN2-xTB          :
          :  restarted?                      false          :
          :  GBSA solvation                  false          :
          :  PC potential                    false          :
          :  electronic temp.          300.0000000     K    :
          :  accuracy                    1.0000000          :
          :  -> integral cutoff          0.2500000E+02      :
          :  -> integral neglect         0.1000000E-07      :
          :  -> SCF convergence          0.1000000E-05 Eh   :
          :  -> wf. convergence          0.1000000E-03 e    :
          :  Broyden damping             0.4000000          :
          :  net charge                          0          :
          :  unpaired electrons                  2          :
          ...................................................

 iter      E             dE          RMSdq      gap      omega  full diag
   1    -45.5837841 -0.455838E+02  0.343E+00    0.02       0.0  T
   2    -45.4406661  0.143118E+00  0.315E+00    0.57       1.0  T
   3    -45.3736013  0.670647E-01  0.224E+00    0.23       1.0  T
   4    -45.4919298 -0.118328E+00  0.224E+00    0.88       1.0  T
   5    -45.6358504 -0.143921E+00  0.154E+00    0.45       1.0  T
   6    -45.6437354 -0.788502E-02  0.929E-01    0.36       1.0  T
   7    -45.6676610 -0.239255E-01  0.708E-01    0.19       1.0  T
   8    -45.6729832 -0.532227E-02  0.538E-01    0.20       1.0  T
   9    -45.6761724 -0.318919E-02  0.379E-01    0.19       1.0  T
  10    -45.6770236 -0.851191E-03  0.117E-01    0.17       1.0  T
  11    -45.6773469 -0.323242E-03  0.765E-02    0.16       1.0  T
  12    -45.6776285 -0.281603E-03  0.184E-02    0.17       1.0  T
  13    -45.6776380 -0.952437E-05  0.136E-02    0.16       1.3  T
  14    -45.6776418 -0.379171E-05  0.395E-03    0.16       4.4  T
  15    -45.6776422 -0.409850E-06  0.260E-03    0.16       6.7  T
  16    -45.6776425 -0.323983E-06  0.927E-04    0.16      18.8  T
  17    -45.6776425 -0.196444E-07  0.466E-04    0.16      37.3  T

   *** convergence criteria satisfied after 17 iterations ***

         #    Occupation            Energy/Eh            Energy/eV
      -------------------------------------------------------------
         1        2.0000           -0.7289610             -19.8360
       ...           ...                  ...                  ...
        36        2.0000           -0.4381618             -11.9230
        37        2.0000           -0.4226361             -11.5005
        38        2.0000           -0.4188117             -11.3964
        39        2.0000           -0.4069082             -11.0725
        40        1.9994           -0.4033096             -10.9746
        41        1.0006           -0.3890972             -10.5879
        42        0.9568           -0.2280447              -6.2054 (HOMO)
        43        0.0432           -0.2221583              -6.0452 (LUMO)
        44                         -0.2081213              -5.6633
        45                         -0.0957400              -2.6052
        46                          0.0571813               1.5560
        47                          0.0782264               2.1286
       ...                                ...                  ...
        78                          0.6694166              18.2158
      -------------------------------------------------------------
                  HL-Gap            0.0058864 Eh            0.1602 eV
             Fermi-level           -0.3106472 Eh           -8.4531 eV

 transition dipole moment (au) for excitation:          41          42
     X       Y       Z   
   1.4475  -0.0348   0.4357  total (au/Debye):    1.512   3.843
 dE (eV)             :    4.382
 oscillator strength :  0.34715E+00

 SCC (total)                   0 d,  0 h,  0 min,  0.042 sec
 SCC setup                      ...        0 min,  0.000 sec (  0.537%)
 Dispersion                     ...        0 min,  0.000 sec (  0.633%)
 classical contributions        ...        0 min,  0.000 sec (  0.213%)
 integral evaluation            ...        0 min,  0.004 sec ( 10.598%)
 iterations                     ...        0 min,  0.020 sec ( 48.170%)
 molecular gradient             ...        0 min,  0.013 sec ( 30.189%)
 printout                       ...        0 min,  0.004 sec (  9.643%)

         :::::::::::::::::::::::::::::::::::::::::::::::::::::
         ::                     SUMMARY                     ::
         :::::::::::::::::::::::::::::::::::::::::::::::::::::
         :: total energy             -45.012137816040 Eh    ::
         :: gradient norm              0.153973330347 Eh/a0 ::
         :: HOMO-LUMO gap              0.160175998330 eV    ::
         ::.................................................::
         :: SCC energy               -45.677360965409 Eh    ::
         :: -> isotropic ES            0.052812140902 Eh    ::
         :: -> anisotropic ES          0.005113748611 Eh    ::
         :: -> anisotropic XC          0.017267611266 Eh    ::
         :: -> dispersion             -0.030090282113 Eh    ::
         :: repulsion energy           0.665223149369 Eh    ::
         :: add. restraining           0.000000000000 Eh    ::
         :: total charge               0.000000000529 e     ::
         :::::::::::::::::::::::::::::::::::::::::::::::::::::

           -------------------------------------------------
          |                Property Printout                |
           -------------------------------------------------

    * Orbital Energies and Occupations

         #    Occupation            Energy/Eh            Energy/eV
      -------------------------------------------------------------
         1        2.0000           -0.7289610             -19.8360
       ...           ...                  ...                  ...
        30        2.0000           -0.4618524             -12.5676
        31        2.0000           -0.4609320             -12.5426
        32        2.0000           -0.4563209             -12.4171
        33        2.0000           -0.4487513             -12.2111
        34        2.0000           -0.4435561             -12.0698
        35        2.0000           -0.4397084             -11.9651
        36        2.0000           -0.4381618             -11.9230
        37        2.0000           -0.4226361             -11.5005
        38        2.0000           -0.4188117             -11.3964
        39        2.0000           -0.4069082             -11.0725
        40        1.9994           -0.4033096             -10.9746
        41        1.0006           -0.3890972             -10.5879
        42        0.9568           -0.2280447              -6.2054 (HOMO)
        43        0.0432           -0.2221583              -6.0452 (LUMO)
        44                         -0.2081213              -5.6633
        45                         -0.0957400              -2.6052
        46                          0.0571813               1.5560
        47                          0.0782264               2.1286
        48                          0.0844668               2.2985
        49                          0.0917346               2.4962
        50                          0.0997940               2.7155
        51                          0.1143961               3.1129
        52                          0.1311332               3.5683
        53                          0.1364873               3.7140
       ...                                ...                  ...
        78                          0.6694166              18.2158
      -------------------------------------------------------------
                  HL-Gap            0.0058864 Eh            0.1602 eV
             Fermi-level           -0.3106472 Eh           -8.4531 eV

     #   Z          covCN         q      C6AA      α(0)
     1   6 C        3.755    -0.106    22.589     6.777
     2   6 C        3.849    -0.001    20.563     6.450
     3   6 C        3.809    -0.064    21.728     6.635
     4   6 C        2.967     0.014    27.690     8.631
     5   6 C        2.925    -0.035    28.869     8.811
     6   6 C        2.922    -0.044    29.081     8.843
     7   6 C        2.980     0.012    27.746     8.640
     8   6 C        3.858    -0.030    21.062     6.527
     9   6 C        2.699     0.331    21.372     7.567
    10   8 O        1.660    -0.397    20.796     6.156
    11   8 O        0.856    -0.420    22.089     6.301
    12   6 C        3.756    -0.104    22.534     6.768
    13   6 C        2.922    -0.036    28.893     8.815
    14   6 C        2.925    -0.041    29.028     8.836
    15   6 C        3.755    -0.106    22.585     6.776
    16   1 H        0.925     0.043     2.414     2.430
    17   1 H        0.925     0.038     2.480     2.463
    18   1 H        0.925     0.036     2.502     2.473
    19   1 H        0.924     0.030     2.584     2.514
    20   1 H        0.924     0.044     2.397     2.421
    21   1 H        0.924     0.045     2.386     2.416
    22   1 H        0.926     0.033     2.541     2.493
    23   1 H        0.926     0.029     2.601     2.522
    24   1 H        0.924     0.058     2.217     2.329
    25   1 H        0.804     0.322     0.657     1.274
    26   1 H        0.925     0.046     2.370     2.408
    27   1 H        0.925     0.046     2.373     2.409
    28   1 H        0.925     0.061     2.189     2.314
    29   1 H        0.926     0.048     2.341     2.393
    30   1 H        0.926     0.033     2.542     2.493
    31   1 H        0.925     0.035     2.514     2.479
    32   1 H        0.925     0.038     2.479     2.462
    33   1 H        0.925     0.042     2.427     2.436

 Mol. C6AA /au·bohr⁶  :      10216.766423
 Mol. C8AA /au·bohr⁸  :     233889.186988
 Mol. α(0) /au        :        155.261328


Wiberg/Mayer (AO) data.
largest (>0.10) Wiberg bond orders for each atom

 ---------------------------------------------------------------------------
     #   Z sym  total        # sym  WBO       # sym  WBO       # sym  WBO
 ---------------------------------------------------------------------------
     1   6 C    3.994 --     2 C    1.009    18 H    0.986    17 H    0.984
                            16 H    0.984
     2   6 C    3.973 --     1 C    1.009    15 C    1.009    19 H    0.969
                             3 C    0.941
     3   6 C    3.987 --     4 C    1.048    20 H    0.963    21 H    0.962
                             2 C    0.941
     4   6 C    3.707 --     5 C    1.199    14 C    1.159     3 C    1.048
     5   6 C    3.933 --     6 C    1.594     4 C    1.199    22 H    0.968
     6   6 C    3.938 --     5 C    1.594     7 C    1.151    23 H    0.968
     7   6 C    3.795 --    13 C    1.182     6 C    1.151     8 C    1.028
                             9 C    0.117    11 O    0.107
     8   6 C    3.980 --     7 C    1.028    12 C    0.970    24 H    0.961
                             9 C    0.887
     9   6 C    3.878 --    11 O    1.631    10 O    1.076     8 C    0.887
                             7 C    0.117
    10   8 O    2.131 --     9 C    1.076    25 H    0.871    11 O    0.124
    11   8 O    1.983 --     9 C    1.631    10 O    0.124     7 C    0.107
    12   6 C    3.986 --    27 H    0.984    28 H    0.983    26 H    0.983
                             8 C    0.970
    13   6 C    3.948 --    14 C    1.607     7 C    1.182    29 H    0.964
    14   6 C    3.949 --    13 C    1.607     4 C    1.159    30 H    0.968
    15   6 C    3.994 --     2 C    1.009    31 H    0.986    32 H    0.984
                            33 H    0.984
    16   1 H    0.998 --     1 C    0.984
    17   1 H    0.997 --     1 C    0.984
    18   1 H    0.998 --     1 C    0.986
    19   1 H    0.998 --     2 C    0.969
    20   1 H    0.993 --     3 C    0.963
    21   1 H    0.993 --     3 C    0.962
    22   1 H    0.998 --     5 C    0.968
    23   1 H    0.999 --     6 C    0.968
    24   1 H    0.996 --     8 C    0.961
    25   1 H    0.894 --    10 O    0.871
    26   1 H    0.997 --    12 C    0.983
    27   1 H    0.997 --    12 C    0.984
    28   1 H    0.996 --    12 C    0.983
    29   1 H    0.997 --    13 C    0.964
    30   1 H    0.999 --    14 C    0.968
    31   1 H    0.998 --    15 C    0.986
    32   1 H    0.997 --    15 C    0.984
    33   1 H    0.998 --    15 C    0.984
 ---------------------------------------------------------------------------

Topologies differ in total number of bonds
Writing topology from bond orders to xtbtopo.mol

molecular dipole:
                 x           y           z       tot (Debye)
 q only:       -0.898       0.329      -0.697
   full:       -0.899       0.466      -0.617       3.015
molecular quadrupole (traceless):
                xx          xy          yy          xz          yz          zz
 q only:        0.555       3.604       0.629      -5.813       5.077      -1.185
  q+dip:        2.934       6.241      -1.762      -4.042       4.063      -1.172
   full:        1.717       5.469      -1.166      -4.800       6.010      -0.551


           -------------------------------------------------
          | TOTAL ENERGY              -45.012137816040 Eh   |
          | GRADIENT NORM               0.153973330347 Eh/α |
          | HOMO-LUMO GAP               0.160175998330 eV   |
           -------------------------------------------------

------------------------------------------------------------------------
 * finished run on 2025/05/15 at 16:29:37.457     
------------------------------------------------------------------------
 total:
 * wall-time:     0 d,  0 h,  0 min,  0.052 sec
 *  cpu-time:     0 d,  0 h,  0 min,  0.050 sec
 * ratio c/w:     0.969 speedup
 SCF:
 * wall-time:     0 d,  0 h,  0 min,  0.042 sec
 *  cpu-time:     0 d,  0 h,  0 min,  0.042 sec
 * ratio c/w:     0.994 speedup


