----- Optimization -----
      -----------------------------------------------------------      
     |                   =====================                   |     
     |                           x T B                           |     
     |                   =====================                   |     
     |                         S. Grimme                         |     
     |          Mulliken Center for Theoretical Chemistry        |     
     |                    University of Bonn                     |     
      -----------------------------------------------------------      

   * xtb version 6.7.1 (edcfbbe) compiled by 'conda@3ef47c1a292c' on 2024-11-25

   xtb is free software: you can redistribute it and/or modify it under
   the terms of the GNU Lesser General Public License as published by
   the Free Software Foundation, either version 3 of the License, or
   (at your option) any later version.
   
   xtb is distributed in the hope that it will be useful,
   but WITHOUT ANY WARRANTY; without even the implied warranty of
   MERCHANTABILITY or FITNESS FOR A PARTICULAR PURPOSE.  See the
   GNU Lesser General Public License for more details.
   
   Cite this work as:
   * C. Bannwarth, E. Caldeweyher, S. Ehlert, A. Hansen, P. Pracht,
     J. Seibert, S. Spicher, S. Grimme, WIREs Comput. Mol. Sci., 2020, 11,
     e01493. DOI: 10.1002/wcms.1493
   
   for GFN2-xTB:
   * C. Bannwarth, S. Ehlert and S. Grimme., J. Chem. Theory Comput., 2019,
     15, 1652-1671. DOI: 10.1021/acs.jctc.8b01176
   for GFN1-xTB:
   * S. Grimme, C. Bannwarth, P. Shushkov, J. Chem. Theory Comput., 2017,
     13, 1989-2009. DOI: 10.1021/acs.jctc.7b00118
   for GFN0-xTB:
   * P. Pracht, E. Caldeweyher, S. Ehlert, S. Grimme, ChemRxiv, 2019, preprint.
     DOI: 10.26434/chemrxiv.8326202.v1
   for GFN-FF:
   * S. Spicher and S. Grimme, Angew. Chem. Int. Ed., 2020, 59, 15665-15673.
     DOI: 10.1002/anie.202004239
   
   for ALPB and GBSA implicit solvation:
   * S. Ehlert, M. Stahn, S. Spicher, S. Grimme, J. Chem. Theory Comput.,
     2021, 17, 4250-4261. DOI: 10.1021/acs.jctc.1c00471
   
   for ddCOSMO and CPCM-X implicit solvation:
   * M. Stahn, S. Ehlert, S. Grimme, J. Phys. Chem. A,
     2023, XX, XXXX-XXXX. DOI: 10.1021/acs.jpca.3c04382
   
   for DFT-D4:
   * E. Caldeweyher, C. Bannwarth and S. Grimme, J. Chem. Phys., 2017,
     147, 034112. DOI: 10.1063/1.4993215
   * E. Caldeweyher, S. Ehlert, A. Hansen, H. Neugebauer, S. Spicher,
     C. Bannwarth and S. Grimme, J. Chem. Phys., 2019, 150, 154122.
     DOI: 10.1063/1.5090222
   * E. Caldeweyher, J.-M. Mewes, S. Ehlert and S. Grimme, Phys. Chem. Chem. Phys.
     2020, 22, 8499-8512. DOI: 10.1039/D0CP00502A
   
   for sTDA-xTB:
   * S. Grimme and C. Bannwarth, J. Chem. Phys., 2016, 145, 054103.
     DOI: 10.1063/1.4959605
   
   in the mass-spec context:
   * V. Asgeirsson, C. Bauer and S. Grimme, Chem. Sci., 2017, 8, 4879.
     DOI: 10.1039/c7sc00601b
   * J. Koopman and S. Grimme, ACS Omega 2019, 4, 12, 15120-15133.
     DOI: 10.1021/acsomega.9b02011
   
   for metadynamics refer to:
   * S. Grimme, J. Chem. Theory Comput., 2019, 155, 2847-2862
     DOI: 10.1021/acs.jctc.9b00143
   
   for SPH calculations refer to:
   * S. Spicher and S. Grimme, J. Chem. Theory Comput., 2021, 17, 1701-1714
     DOI: 10.1021/acs.jctc.0c01306
   
   for ONIOM refer to:
   * C. Plett, A. Katbashev, S. Ehlert, S. Grimme, M. Bursch,
     Phys. Chem. Chem. Phys., 2023, 25, 17860-17868. DOI: 10.1039/D3CP02178E
   
   for DIPRO refer to:
   * J. Kohn, N. Gildemeister, S. Grimme, D. Fazzi, A. Hansen,
     J. Chem. Phys., 2023, just accepted.
   
   for PTB refer to:
   * S. Grimme, M. Mueller, A. Hansen, J. Chem. Phys., 2023, 158, 124111.
     DOI: 10.1063/5.0137838
   
   with help from (in alphabetical order)
   P. Atkinson, C. Bannwarth, F. Bohle, G. Brandenburg, E. Caldeweyher
   M. Checinski, S. Dohm, S. Ehlert, S. Ehrlich, I. Gerasimov, C. Hölzer
   A. Katbashev, J. Kohn, J. Koopman, C. Lavigne, S. Lehtola, F. März, M. Müller,
   F. Musil, H. Neugebauer, J. Pisarek, C. Plett, P. Pracht, F. Pultar,
   J. Seibert, P. Shushkov, S. Spicher, M. Stahn, M. Steiner, T. Strunk,
   J. Stückrath, T. Rose, and J. Unsleber
   
 * started run on 2025/05/15 at 16:16:28.209     
   ID    Z sym.   atoms
    1    8 O      1, 3, 21
    2    6 C      2, 4, 5, 7-9, 11, 12, 14-16, 18-20, 22-24
    3    7 N      6, 10, 13
    4    9 F      17
    5    1 H      25-42

           -------------------------------------------------
          |                Calculation Setup                |
           -------------------------------------------------

          program call               : xtb /rds/general/user/hgt20/home/callum/QDESCP/Ciprofloxacin_rdkit_conf_10/Ciprofloxacin_rdkit_conf_10.xyz --opt normal --acc 1 --gfn 2 --chrg 0 --uhf 0 -P 1
          hostname                   : login-c
          coordinate file            : /rds/general/user/hgt20/home/callum/QDESCP/Ciprofloxacin_rdkit_conf_10/Ciprofloxacin_rdkit_conf_10.xyz
          omp threads                :                     1


           -------------------------------------------------
          |                 G F N 2 - x T B                 |
           -------------------------------------------------

        Reference                      10.1021/acs.jctc.8b01176
      * Hamiltonian:
        H0-scaling (s, p, d)           1.850000    2.230000    2.230000
        zeta-weighting                 0.500000
      * Dispersion:
        s8                             2.700000
        a1                             0.520000
        a2                             5.000000
        s9                             5.000000
      * Repulsion:
        kExp                           1.500000    1.000000
        rExp                           1.000000
      * Coulomb:
        alpha                          2.000000
        third order                    shell-resolved
        anisotropic                    true
        a3                             3.000000
        a5                             4.000000
        cn-shift                       1.200000
        cn-exp                         4.000000
        max-rad                        5.000000


          ...................................................
          :                      SETUP                      :
          :.................................................:
          :  # basis functions                 114          :
          :  # atomic orbitals                 114          :
          :  # shells                           66          :
          :  # electrons                       126          :
          :  max. iterations                   250          :
          :  Hamiltonian                  GFN2-xTB          :
          :  restarted?                      false          :
          :  GBSA solvation                  false          :
          :  PC potential                    false          :
          :  electronic temp.          300.0000000     K    :
          :  accuracy                    1.0000000          :
          :  -> integral cutoff          0.2500000E+02      :
          :  -> integral neglect         0.1000000E-07      :
          :  -> SCF convergence          0.1000000E-05 Eh   :
          :  -> wf. convergence          0.1000000E-03 e    :
          :  Broyden damping             0.4000000          :
          :  net charge                          0          :
          :  unpaired electrons                  0          :
          ...................................................

 iter      E             dE          RMSdq      gap      omega  full diag
   1    -71.9756610 -0.719757E+02  0.417E+00    2.54       0.0  T
   2    -72.0940917 -0.118431E+00  0.251E+00    2.32       1.0  T
   3    -72.1032786 -0.918690E-02  0.144E+00    2.59       1.0  T
   4    -72.1210360 -0.177574E-01  0.463E-01    2.50       1.0  T
   5    -72.1278624 -0.682640E-02  0.108E-01    2.48       1.0  T
   6    -72.1280741 -0.211693E-03  0.511E-02    2.49       1.0  T
   7    -72.1281021 -0.279605E-04  0.224E-02    2.50       1.0  T
   8    -72.1281043 -0.228719E-05  0.898E-03    2.50       1.7  T
   9    -72.1281060 -0.162700E-05  0.411E-03    2.50       3.8  T
  10    -72.1281061 -0.135074E-06  0.153E-03    2.50      10.1  T
  11    -72.1281061 -0.486549E-07  0.689E-04    2.50      22.4  T
  12    -72.1281062 -0.561342E-08  0.264E-04    2.50      58.4  T

   *** convergence criteria satisfied after 12 iterations ***

         #    Occupation            Energy/Eh            Energy/eV
      -------------------------------------------------------------
         1        2.0000           -0.8208027             -22.3352
       ...           ...                  ...                  ...
        57        2.0000           -0.4331997             -11.7880
        58        2.0000           -0.4251200             -11.5681
        59        2.0000           -0.4176143             -11.3639
        60        2.0000           -0.3892037             -10.5908
        61        2.0000           -0.3784216             -10.2974
        62        2.0000           -0.3756997             -10.2233
        63        2.0000           -0.3689320             -10.0392 (HOMO)
        64                         -0.2771106              -7.5406 (LUMO)
        65                         -0.2655641              -7.2264
        66                         -0.2333944              -6.3510
        67                         -0.2118361              -5.7644
        68                         -0.1487970              -4.0490
       ...                                ...                  ...
       114                          0.6934904              18.8708
      -------------------------------------------------------------
                  HL-Gap            0.0918214 Eh            2.4986 eV
             Fermi-level           -0.3230213 Eh           -8.7899 eV

 SCC (total)                   0 d,  0 h,  0 min,  0.066 sec
 SCC setup                      ...        0 min,  0.000 sec (  0.555%)
 Dispersion                     ...        0 min,  0.000 sec (  0.695%)
 classical contributions        ...        0 min,  0.000 sec (  0.222%)
 integral evaluation            ...        0 min,  0.008 sec ( 11.923%)
 iterations                     ...        0 min,  0.027 sec ( 40.565%)
 molecular gradient             ...        0 min,  0.030 sec ( 45.732%)
 printout                       ...        0 min,  0.000 sec (  0.299%)

         :::::::::::::::::::::::::::::::::::::::::::::::::::::
         ::                     SUMMARY                     ::
         :::::::::::::::::::::::::::::::::::::::::::::::::::::
         :: total energy             -71.287514145624 Eh    ::
         :: gradient norm              0.081575116083 Eh/a0 ::
         :: HOMO-LUMO gap              2.498587313789 eV    ::
         ::.................................................::
         :: SCC energy               -72.128063201261 Eh    ::
         :: -> isotropic ES            0.107361502154 Eh    ::
         :: -> anisotropic ES          0.007909170177 Eh    ::
         :: -> anisotropic XC          0.021424650220 Eh    ::
         :: -> dispersion             -0.045129478588 Eh    ::
         :: repulsion energy           0.840549055638 Eh    ::
         :: add. restraining           0.000000000000 Eh    ::
         :: total charge               0.000000000000 e     ::
         :::::::::::::::::::::::::::::::::::::::::::::::::::::

      ----------------------------------------------------------- 
     |                   =====================                   |
     |                        A N C O P T                        |
     |                   =====================                   |
     |               Approximate Normal Coordinate               |
     |                Rational Function Optimizer                |
      ----------------------------------------------------------- 
      ----------------------------------------------------------- 
     |                   =====================                   |
     |                        A N C O P T                        |
     |                   =====================                   |
     |               Approximate Normal Coordinate               |
     |                Rational Function Optimizer                |
      ----------------------------------------------------------- 

          ...................................................
          :                      SETUP                      :
          :.................................................:
          :   optimization level            normal          :
          :   max. optcycles                   200          :
          :   ANC micro-cycles                  20          :
          :   degrees of freedom               120          :
          :.................................................:
          :   RF solver                   davidson          :
          :   write xtbopt.log                true          :
          :   linear?                        false          :
          :   energy convergence         0.5000000E-05 Eh   :
          :   grad. convergence          0.1000000E-02 Eh/α :
          :   maxmium RF displ.          1.0000000          :
          :   Hlow (freq-cutoff)         0.1000000E-01      :
          :   Hmax (freq-cutoff)         5.0000000          :
          :   S6 in model hess.         20.0000000          :
          ...................................................

generating ANC from exact Hessian ...
Using Lindh-Hessian (1995)
 Shifting diagonal of input Hessian by    9.6098083559443288E-003
 Lowest  eigenvalues of input Hessian
    0.000000    0.000000    0.000000    0.000000    0.000000    0.000000
    0.010000    0.010286    0.010688    0.011474    0.011908    0.012362
    0.012897    0.014734    0.015673    0.016926    0.018824    0.019983
 Highest eigenvalues
    1.867635    1.974915    2.025007    2.091434    2.210610    2.338945


........................................................................
.............................. CYCLE    1 ..............................
........................................................................

 iter      E             dE          RMSdq      gap      omega  full diag
   1    -72.1281062 -0.721281E+02  0.118E-04    2.50       0.0  T
   2    -72.1281062 -0.107065E-09  0.767E-05    2.50     201.2  T
   3    -72.1281062 -0.842419E-10  0.458E-05    2.50     337.0  T
     SCC iter.                  ...        0 min,  0.007 sec
     gradient                   ...        0 min,  0.023 sec
 * total energy  :   -71.2875141 Eh     change       -0.1041855E-08 Eh
   gradient norm :     0.0815767 Eh/α   predicted     0.0000000E+00 (-100.00%)
   displ. norm   :     0.3940423 α      lambda       -0.1678001E-01
   maximum displ.:     0.1591951 α      in ANC's #22, #14, #47, ...

........................................................................
.............................. CYCLE    2 ..............................
........................................................................

 iter      E             dE          RMSdq      gap      omega  full diag
   1    -72.1647322 -0.721647E+02  0.236E-01    2.55       0.0  T
   2    -72.1650980 -0.365846E-03  0.162E-01    2.58       1.0  T
   3    -72.1652395 -0.141445E-03  0.903E-02    2.57       1.0  T
   4    -72.1653207 -0.812319E-04  0.268E-02    2.57       1.0  T
   5    -72.1653420 -0.213330E-04  0.523E-03    2.57       3.0  T
   6    -72.1653424 -0.415415E-06  0.260E-03    2.57       5.9  T
   7    -72.1653425 -0.526127E-07  0.100E-03    2.57      15.4  T
   8    -72.1653425 -0.654587E-08  0.376E-04    2.57      41.1  T
   9    -72.1653425 -0.213929E-08  0.130E-04    2.57     119.0  T
     SCC iter.                  ...        0 min,  0.019 sec
     gradient                   ...        0 min,  0.035 sec
 * total energy  :   -71.2992433 Eh     change       -0.1172918E-01 Eh
   gradient norm :     0.0354161 Eh/α   predicted    -0.9698276E-02 ( -17.32%)
   displ. norm   :     0.3899728 α      lambda       -0.6242884E-02
   maximum displ.:     0.1567008 α      in ANC's #14, #22, #12, ...

........................................................................
.............................. CYCLE    3 ..............................
........................................................................

 iter      E             dE          RMSdq      gap      omega  full diag
   1    -72.1896360 -0.721896E+02  0.167E-01    2.58       0.0  T
   2    -72.1898817 -0.245711E-03  0.116E-01    2.61       1.0  T
   3    -72.1899915 -0.109861E-03  0.648E-02    2.60       1.0  T
   4    -72.1900147 -0.231859E-04  0.218E-02    2.60       1.0  T
   5    -72.1900280 -0.132919E-04  0.410E-03    2.61       3.8  T
   6    -72.1900283 -0.343303E-06  0.182E-03    2.60       8.5  T
   7    -72.1900284 -0.251489E-07  0.708E-04    2.60      21.8  T
   8    -72.1900284 -0.342146E-08  0.285E-04    2.60      54.1  T
     SCC iter.                  ...        0 min,  0.017 sec
     gradient                   ...        0 min,  0.024 sec
 * total energy  :   -71.3030670 Eh     change       -0.3823693E-02 Eh
   gradient norm :     0.0115229 Eh/α   predicted    -0.3599733E-02 (  -5.86%)
   displ. norm   :     0.2634264 α      lambda       -0.1287793E-02
   maximum displ.:     0.1125215 α      in ANC's #14, #12, #6, ...

........................................................................
.............................. CYCLE    4 ..............................
........................................................................

 iter      E             dE          RMSdq      gap      omega  full diag
   1    -72.1957854 -0.721958E+02  0.660E-02    2.59       0.0  T
   2    -72.1958061 -0.207804E-04  0.404E-02    2.61       1.0  T
   3    -72.1958055  0.667002E-06  0.232E-02    2.61       1.0  T
   4    -72.1958141 -0.865254E-05  0.550E-03    2.61       2.8  T
   5    -72.1958151 -0.979104E-06  0.151E-03    2.61      10.2  T
   6    -72.1958151 -0.431318E-07  0.748E-04    2.61      20.6  T
   7    -72.1958151 -0.396626E-08  0.234E-04    2.61      65.9  T
     SCC iter.                  ...        0 min,  0.015 sec
     gradient                   ...        0 min,  0.023 sec
 * total energy  :   -71.3040085 Eh     change       -0.9414739E-03 Eh
   gradient norm :     0.0094020 Eh/α   predicted    -0.6886172E-03 ( -26.86%)
   displ. norm   :     0.3118904 α      lambda       -0.9267660E-03
   maximum displ.:     0.1383996 α      in ANC's #6, #14, #2, ...

........................................................................
.............................. CYCLE    5 ..............................
........................................................................

 iter      E             dE          RMSdq      gap      omega  full diag
   1    -72.1977494 -0.721977E+02  0.764E-02    2.58       0.0  T
   2    -72.1977606 -0.112368E-04  0.446E-02    2.60       1.0  T
   3    -72.1977525  0.814101E-05  0.203E-02    2.60       1.0  T
   4    -72.1977639 -0.114690E-04  0.340E-03    2.60       4.5  T
   5    -72.1977643 -0.339805E-06  0.134E-03    2.60      11.5  T
   6    -72.1977643 -0.145199E-07  0.723E-04    2.60      21.4  T
   7    -72.1977643 -0.837336E-08  0.252E-04    2.60      61.3  T
     SCC iter.                  ...        0 min,  0.015 sec
     gradient                   ...        0 min,  0.023 sec
 * total energy  :   -71.3046231 Eh     change       -0.6145773E-03 Eh
   gradient norm :     0.0058733 Eh/α   predicted    -0.5084616E-03 ( -17.27%)
   displ. norm   :     0.2335677 α      lambda       -0.3609943E-03
   maximum displ.:     0.1275124 α      in ANC's #6, #2, #7, ...

........................................................................
.............................. CYCLE    6 ..............................
........................................................................

 iter      E             dE          RMSdq      gap      omega  full diag
   1    -72.1977460 -0.721977E+02  0.571E-02    2.58       0.0  T
   2    -72.1977482 -0.225646E-05  0.333E-02    2.59       1.0  T
   3    -72.1977455  0.270608E-05  0.919E-03    2.59       1.7  T
   4    -72.1977490 -0.345429E-05  0.178E-03    2.59       8.7  T
   5    -72.1977490 -0.573873E-07  0.904E-04    2.59      17.1  T
   6    -72.1977490 -0.513717E-08  0.407E-04    2.59      37.9  T
     SCC iter.                  ...        0 min,  0.013 sec
     gradient                   ...        0 min,  0.023 sec
 * total energy  :   -71.3048795 Eh     change       -0.2563773E-03 Eh
   gradient norm :     0.0049460 Eh/α   predicted    -0.1903745E-03 ( -25.74%)
   displ. norm   :     0.2545556 α      lambda       -0.2884597E-03
   maximum displ.:     0.1506750 α      in ANC's #6, #2, #5, ...

........................................................................
.............................. CYCLE    7 ..............................
........................................................................

 iter      E             dE          RMSdq      gap      omega  full diag
   1    -72.1974516 -0.721975E+02  0.649E-02    2.58       0.0  T
   2    -72.1974539 -0.228705E-05  0.380E-02    2.58       1.0  T
   3    -72.1974522  0.168469E-05  0.796E-03    2.58       1.9  T
   4    -72.1974545 -0.232489E-05  0.203E-03    2.58       7.6  T
   5    -72.1974546 -0.782311E-07  0.103E-03    2.58      15.0  T
   6    -72.1974546 -0.575648E-08  0.479E-04    2.58      32.2  T
   7    -72.1974546 -0.371719E-08  0.178E-04    2.58      86.9  T
     SCC iter.                  ...        0 min,  0.015 sec
     gradient                   ...        0 min,  0.024 sec
 * total energy  :   -71.3050929 Eh     change       -0.2134572E-03 Eh
   gradient norm :     0.0053850 Eh/α   predicted    -0.1535807E-03 ( -28.05%)
   displ. norm   :     0.2779762 α      lambda       -0.2703307E-03
   maximum displ.:     0.1619396 α      in ANC's #6, #2, #5, ...

........................................................................
.............................. CYCLE    8 ..............................
........................................................................

 iter      E             dE          RMSdq      gap      omega  full diag
   1    -72.1971885 -0.721972E+02  0.712E-02    2.57       0.0  T
   2    -72.1971907 -0.215783E-05  0.418E-02    2.57       1.0  T
   3    -72.1971870  0.368132E-05  0.108E-02    2.57       1.4  T
   4    -72.1971917 -0.471856E-05  0.232E-03    2.57       6.7  T
   5    -72.1971918 -0.667250E-07  0.123E-03    2.57      12.6  T
   6    -72.1971918 -0.892973E-08  0.480E-04    2.57      32.2  T
   7    -72.1971918 -0.430340E-08  0.196E-04    2.57      78.6  T
     SCC iter.                  ...        0 min,  0.015 sec
     gradient                   ...        0 min,  0.024 sec
 * total energy  :   -71.3053010 Eh     change       -0.2081271E-03 Eh
   gradient norm :     0.0056770 Eh/α   predicted    -0.1456125E-03 ( -30.04%)
   displ. norm   :     0.3270352 α      lambda       -0.2763684E-03
   maximum displ.:     0.1854253 α      in ANC's #6, #2, #5, ...

........................................................................
.............................. CYCLE    9 ..............................
........................................................................

 iter      E             dE          RMSdq      gap      omega  full diag
   1    -72.1969193 -0.721969E+02  0.842E-02    2.56       0.0  T
   2    -72.1969246 -0.534230E-05  0.492E-02    2.57       1.0  T
   3    -72.1969184  0.624891E-05  0.146E-02    2.57       1.1  T
   4    -72.1969262 -0.784400E-05  0.346E-03    2.57       4.5  T
   5    -72.1969265 -0.278530E-06  0.152E-03    2.57      10.1  T
   6    -72.1969265 -0.195242E-08  0.756E-04    2.57      20.4  T
   7    -72.1969265 -0.118488E-07  0.242E-04    2.57      63.9  T
     SCC iter.                  ...        0 min,  0.015 sec
     gradient                   ...        0 min,  0.038 sec
 * total energy  :   -71.3055115 Eh     change       -0.2104583E-03 Eh
   gradient norm :     0.0052745 Eh/α   predicted    -0.1529687E-03 ( -27.32%)
   displ. norm   :     0.3355633 α      lambda       -0.2405329E-03
   maximum displ.:     0.1982172 α      in ANC's #2, #6, #3, ...

........................................................................
.............................. CYCLE   10 ..............................
........................................................................

 iter      E             dE          RMSdq      gap      omega  full diag
   1    -72.1971415 -0.721971E+02  0.826E-02    2.56       0.0  T
   2    -72.1971472 -0.572938E-05  0.481E-02    2.57       1.0  T
   3    -72.1971384  0.878558E-05  0.172E-02    2.57       1.0  T
   4    -72.1971496 -0.111562E-04  0.337E-03    2.57       4.6  T
   5    -72.1971498 -0.220954E-06  0.166E-03    2.57       9.3  T
   6    -72.1971498 -0.774298E-08  0.845E-04    2.57      18.3  T
   7    -72.1971498 -0.120679E-07  0.254E-04    2.57      60.7  T
     SCC iter.                  ...        0 min,  0.015 sec
     gradient                   ...        0 min,  0.023 sec
 * total energy  :   -71.3056892 Eh     change       -0.1777473E-03 Eh
   gradient norm :     0.0043320 Eh/α   predicted    -0.1338092E-03 ( -24.72%)
   displ. norm   :     0.2891868 α      lambda       -0.1730824E-03
   maximum displ.:     0.1803630 α      in ANC's #2, #6, #3, ...

........................................................................
.............................. CYCLE   11 ..............................
........................................................................

 iter      E             dE          RMSdq      gap      omega  full diag
   1    -72.1978348 -0.721978E+02  0.705E-02    2.56       0.0  T
   2    -72.1978421 -0.730464E-05  0.406E-02    2.57       1.0  T
   3    -72.1978366  0.553650E-05  0.159E-02    2.57       1.0  T
   4    -72.1978442 -0.759949E-05  0.326E-03    2.57       4.7  T
   5    -72.1978444 -0.274417E-06  0.149E-03    2.57      10.4  T
   6    -72.1978445 -0.102533E-07  0.826E-04    2.57      18.7  T
   7    -72.1978445 -0.108873E-07  0.243E-04    2.57      63.6  T
     SCC iter.                  ...        0 min,  0.015 sec
     gradient                   ...        0 min,  0.045 sec
 * total energy  :   -71.3058176 Eh     change       -0.1283349E-03 Eh
   gradient norm :     0.0045730 Eh/α   predicted    -0.9378253E-04 ( -26.92%)
   displ. norm   :     0.2449276 α      lambda       -0.1383951E-03
   maximum displ.:     0.1586415 α      in ANC's #2, #6, #3, ...

........................................................................
.............................. CYCLE   12 ..............................
........................................................................

 iter      E             dE          RMSdq      gap      omega  full diag
   1    -72.1995487 -0.721995E+02  0.572E-02    2.56       0.0  T
   2    -72.1995546 -0.588184E-05  0.329E-02    2.58       1.0  T
   3    -72.1995505  0.412328E-05  0.148E-02    2.57       1.0  T
   4    -72.1995567 -0.619139E-05  0.253E-03    2.58       6.1  T
   5    -72.1995568 -0.159123E-06  0.120E-03    2.58      12.9  T
   6    -72.1995568 -0.429142E-08  0.612E-04    2.58      25.2  T
   7    -72.1995569 -0.794320E-08  0.186E-04    2.58      82.9  T
     SCC iter.                  ...        0 min,  0.015 sec
     gradient                   ...        0 min,  0.024 sec
 * total energy  :   -71.3059149 Eh     change       -0.9735766E-04 Eh
   gradient norm :     0.0038295 Eh/α   predicted    -0.7335078E-04 ( -24.66%)
   displ. norm   :     0.2895331 α      lambda       -0.1166265E-03
   maximum displ.:     0.1861860 α      in ANC's #2, #6, #3, ...

........................................................................
.............................. CYCLE   13 ..............................
........................................................................

 iter      E             dE          RMSdq      gap      omega  full diag
   1    -72.1980116 -0.721980E+02  0.717E-02    2.55       0.0  T
   2    -72.1980205 -0.892295E-05  0.415E-02    2.57       1.0  T
   3    -72.1980145  0.607247E-05  0.174E-02    2.57       1.0  T
   4    -72.1980232 -0.877989E-05  0.333E-03    2.57       4.6  T
   5    -72.1980235 -0.245273E-06  0.161E-03    2.57       9.6  T
   6    -72.1980235 -0.178019E-07  0.862E-04    2.57      17.9  T
   7    -72.1980235 -0.906286E-08  0.300E-04    2.57      51.4  T
     SCC iter.                  ...        0 min,  0.033 sec
     gradient                   ...        0 min,  0.024 sec
 * total energy  :   -71.3059700 Eh     change       -0.5505608E-04 Eh
   gradient norm :     0.0077567 Eh/α   predicted    -0.6320272E-04 (  14.80%)
   displ. norm   :     0.1391398 α      lambda       -0.1143303E-03
   maximum displ.:     0.0896157 α      in ANC's #2, #3, #4, ...

........................................................................
.............................. CYCLE   14 ..............................
........................................................................

 iter      E             dE          RMSdq      gap      omega  full diag
   1    -72.2007386 -0.722007E+02  0.337E-02    2.57       0.0  T
   2    -72.2007436 -0.504631E-05  0.202E-02    2.58       1.0  T
   3    -72.2007431  0.559030E-06  0.109E-02    2.58       1.4  T
   4    -72.2007453 -0.221539E-05  0.282E-03    2.58       5.5  T
   5    -72.2007455 -0.238928E-06  0.816E-04    2.58      18.9  T
   6    -72.2007455 -0.375434E-08  0.410E-04    2.58      37.6  T
     SCC iter.                  ...        0 min,  0.013 sec
     gradient                   ...        0 min,  0.024 sec
 * total energy  :   -71.3060327 Eh     change       -0.6271679E-04 Eh
   gradient norm :     0.0031577 Eh/α   predicted    -0.5827903E-04 (  -7.08%)
   displ. norm   :     0.1606824 α      lambda       -0.5806143E-04
   maximum displ.:     0.1072026 α      in ANC's #2, #4, #3, ...

........................................................................
.............................. CYCLE   15 ..............................
........................................................................

 iter      E             dE          RMSdq      gap      omega  full diag
   1    -72.1998462 -0.721998E+02  0.355E-02    2.57       0.0  T
   2    -72.1998481 -0.192776E-05  0.204E-02    2.58       1.0  T
   3    -72.1998468  0.126728E-05  0.762E-03    2.57       2.0  T
   4    -72.1998486 -0.177793E-05  0.166E-03    2.58       9.3  T
   5    -72.1998487 -0.785648E-07  0.741E-04    2.58      20.8  T
   6    -72.1998487 -0.172302E-08  0.354E-04    2.58      43.6  T
     SCC iter.                  ...        0 min,  0.013 sec
     gradient                   ...        0 min,  0.027 sec
 * total energy  :   -71.3060783 Eh     change       -0.4556481E-04 Eh
   gradient norm :     0.0026024 Eh/α   predicted    -0.2978577E-04 ( -34.63%)
   displ. norm   :     0.2887181 α      lambda       -0.1055352E-03
   maximum displ.:     0.1898683 α      in ANC's #2, #4, #3, ...

........................................................................
.............................. CYCLE   16 ..............................
........................................................................

 iter      E             dE          RMSdq      gap      omega  full diag
   1    -72.1986066 -0.721986E+02  0.662E-02    2.56       0.0  T
   2    -72.1986105 -0.393835E-05  0.381E-02    2.57       1.0  T
   3    -72.1986066  0.394746E-05  0.128E-02    2.57       1.2  T
   4    -72.1986121 -0.549411E-05  0.256E-03    2.57       6.0  T
   5    -72.1986122 -0.975373E-07  0.140E-03    2.57      11.0  T
   6    -72.1986122 -0.777828E-08  0.550E-04    2.57      28.1  T
   7    -72.1986122 -0.687230E-08  0.204E-04    2.57      75.8  T
     SCC iter.                  ...        0 min,  0.015 sec
     gradient                   ...        0 min,  0.024 sec
 * total energy  :   -71.3061427 Eh     change       -0.6441852E-04 Eh
   gradient norm :     0.0034110 Eh/α   predicted    -0.5716941E-04 ( -11.25%)
   displ. norm   :     0.1048149 α      lambda       -0.3806784E-04
   maximum displ.:     0.0619398 α      in ANC's #4, #2, #3, ...

........................................................................
.............................. CYCLE   17 ..............................
........................................................................

 iter      E             dE          RMSdq      gap      omega  full diag
   1    -72.1990852 -0.721991E+02  0.233E-02    2.57       0.0  T
   2    -72.1990859 -0.732260E-06  0.136E-02    2.57       1.1  T
   3    -72.1990852  0.671719E-06  0.551E-03    2.57       2.8  T
   4    -72.1990862 -0.916506E-06  0.100E-03    2.57      15.4  T
   5    -72.1990862 -0.226976E-07  0.472E-04    2.57      32.7  T
   6    -72.1990862 -0.102190E-08  0.233E-04    2.57      66.3  T
     SCC iter.                  ...        0 min,  0.022 sec
     gradient                   ...        0 min,  0.024 sec
 * total energy  :   -71.3061695 Eh     change       -0.2683217E-04 Eh
   gradient norm :     0.0022004 Eh/α   predicted    -0.1924761E-04 ( -28.27%)
   displ. norm   :     0.1876625 α      lambda       -0.4136170E-04
   maximum displ.:     0.1180611 α      in ANC's #2, #4, #3, ...

........................................................................
.............................. CYCLE   18 ..............................
........................................................................

 iter      E             dE          RMSdq      gap      omega  full diag
   1    -72.1993014 -0.721993E+02  0.418E-02    2.56       0.0  T
   2    -72.1993036 -0.225719E-05  0.241E-02    2.57       1.0  T
   3    -72.1993017  0.196213E-05  0.984E-03    2.57       1.6  T
   4    -72.1993045 -0.280930E-05  0.167E-03    2.57       9.3  T
   5    -72.1993045 -0.507896E-07  0.868E-04    2.57      17.8  T
   6    -72.1993045 -0.217202E-08  0.399E-04    2.57      38.7  T
     SCC iter.                  ...        0 min,  0.013 sec
     gradient                   ...        0 min,  0.024 sec
 * total energy  :   -71.3061983 Eh     change       -0.2879919E-04 Eh
   gradient norm :     0.0025392 Eh/α   predicted    -0.2141081E-04 ( -25.65%)
   displ. norm   :     0.1172694 α      lambda       -0.3731974E-04
   maximum displ.:     0.0805325 α      in ANC's #4, #2, #9, ...

........................................................................
.............................. CYCLE   19 ..............................
........................................................................

 iter      E             dE          RMSdq      gap      omega  full diag
   1    -72.2008905 -0.722009E+02  0.289E-02    2.56       0.0  T
   2    -72.2008916 -0.115529E-05  0.170E-02    2.57       1.0  T
   3    -72.2008907  0.903713E-06  0.636E-03    2.57       2.4  T
   4    -72.2008919 -0.122111E-05  0.122E-03    2.57      12.6  T
   5    -72.2008920 -0.396531E-07  0.555E-04    2.57      27.8  T
   6    -72.2008920 -0.963837E-09  0.310E-04    2.57      49.8  T
     SCC iter.                  ...        0 min,  0.013 sec
     gradient                   ...        0 min,  0.028 sec
 * total energy  :   -71.3062199 Eh     change       -0.2154471E-04 Eh
   gradient norm :     0.0023050 Eh/α   predicted    -0.1891738E-04 ( -12.19%)
   displ. norm   :     0.1891709 α      lambda       -0.2858875E-04
   maximum displ.:     0.1203572 α      in ANC's #2, #4, #9, ...

........................................................................
.............................. CYCLE   20 ..............................
........................................................................

 iter      E             dE          RMSdq      gap      omega  full diag
   1    -72.1995838 -0.721996E+02  0.424E-02    2.56       0.0  T
   2    -72.1995861 -0.220750E-05  0.245E-02    2.57       1.0  T
   3    -72.1995840  0.206417E-05  0.955E-03    2.56       1.6  T
   4    -72.1995868 -0.285147E-05  0.172E-03    2.57       9.0  T
   5    -72.1995869 -0.546526E-07  0.888E-04    2.57      17.4  T
   6    -72.1995869 -0.298175E-08  0.439E-04    2.57      35.2  T
     SCC iter.                  ...        0 min,  0.013 sec
     gradient                   ...        0 min,  0.024 sec
 * total energy  :   -71.3062328 Eh     change       -0.1289495E-04 Eh
   gradient norm :     0.0031056 Eh/α   predicted    -0.1480858E-04 (  14.84%)
   displ. norm   :     0.0405882 α      lambda       -0.2049707E-04
   maximum displ.:     0.0186706 α      in ANC's #3, #7, #4, ...
 * RMSD in coord.:     0.5668351 α      energy gain  -0.1871862E-01 Eh

generating ANC from exact Hessian ...
Using Lindh-Hessian (1995)
 Shifting diagonal of input Hessian by    9.5357174795919382E-003
 Lowest  eigenvalues of input Hessian
    0.000000    0.000000    0.000000    0.000000    0.000000    0.000000
    0.010000    0.010207    0.010858    0.011588    0.012169    0.012604
    0.013533    0.015060    0.016458    0.016866    0.020030    0.020695
 Highest eigenvalues
    1.971832    2.072280    2.114623    2.202254    2.298448    2.397286


........................................................................
.............................. CYCLE   21 ..............................
........................................................................

 iter      E             dE          RMSdq      gap      omega  full diag
   1    -72.2004913 -0.722005E+02  0.121E-02    2.57       0.0  T
   2    -72.2004914 -0.126748E-06  0.708E-03    2.57       2.2  T
   3    -72.2004914  0.505237E-07  0.164E-03    2.57       9.4  T
   4    -72.2004914 -0.705568E-07  0.452E-04    2.57      34.2  T
   5    -72.2004914 -0.462697E-08  0.194E-04    2.57      79.7  T
     SCC iter.                  ...        0 min,  0.011 sec
     gradient                   ...        0 min,  0.024 sec
 * total energy  :   -71.3062467 Eh     change       -0.1392122E-04 Eh
   gradient norm :     0.0021725 Eh/α   predicted     0.0000000E+00 (-100.00%)
   displ. norm   :     0.0181145 α      lambda       -0.8582110E-05
   maximum displ.:     0.0121005 α      in ANC's #8, #3, #13, ...

........................................................................
.............................. CYCLE   22 ..............................
........................................................................

 iter      E             dE          RMSdq      gap      omega  full diag
   1    -72.2004319 -0.722004E+02  0.668E-03    2.57       0.0  T
   2    -72.2004320 -0.996762E-07  0.399E-03    2.57       3.9  T
   3    -72.2004320  0.220657E-07  0.143E-03    2.57      10.8  T
   4    -72.2004320 -0.421106E-07  0.271E-04    2.57      56.9  T
   5    -72.2004320 -0.680515E-09  0.149E-04    2.57     103.4  T
     SCC iter.                  ...        0 min,  0.011 sec
     gradient                   ...        0 min,  0.024 sec
 * total energy  :   -71.3062546 Eh     change       -0.7924709E-05 Eh
   gradient norm :     0.0009770 Eh/α   predicted    -0.5186844E-05 ( -34.55%)
   displ. norm   :     0.0607147 α      lambda       -0.1276523E-04
   maximum displ.:     0.0409094 α      in ANC's #8, #3, #1, ...

........................................................................
.............................. CYCLE   23 ..............................
........................................................................

 iter      E             dE          RMSdq      gap      omega  full diag
   1    -72.2002301 -0.722002E+02  0.219E-02    2.57       0.0  T
   2    -72.2002306 -0.509703E-06  0.129E-02    2.57       1.2  T
   3    -72.2002304  0.191046E-06  0.352E-03    2.57       4.4  T
   4    -72.2002308 -0.316755E-06  0.800E-04    2.57      19.3  T
   5    -72.2002308 -0.644819E-08  0.452E-04    2.57      34.1  T
     SCC iter.                  ...        0 min,  0.011 sec
     gradient                   ...        0 min,  0.024 sec
 * total energy  :   -71.3062635 Eh     change       -0.8866902E-05 Eh
   gradient norm :     0.0017675 Eh/α   predicted    -0.6394267E-05 ( -27.89%)
   displ. norm   :     0.0335191 α      lambda       -0.5378689E-05
   maximum displ.:     0.0222947 α      in ANC's #8, #3, #12, ...

........................................................................
.............................. CYCLE   24 ..............................
........................................................................

 iter      E             dE          RMSdq      gap      omega  full diag
   1    -72.2002598 -0.722003E+02  0.118E-02    2.57       0.0  T
   2    -72.2002599 -0.606142E-07  0.689E-03    2.57       2.2  T
   3    -72.2002599  0.662203E-08  0.104E-03    2.57      14.8  T
   4    -72.2002599 -0.339737E-07  0.411E-04    2.57      37.5  T
   5    -72.2002599 -0.942350E-09  0.240E-04    2.57      64.4  T
     SCC iter.                  ...        0 min,  0.011 sec
     gradient                   ...        0 min,  0.045 sec
 * total energy  :   -71.3062697 Eh     change       -0.6190736E-05 Eh
   gradient norm :     0.0011941 Eh/α   predicted    -0.2691188E-05 ( -56.53%)
   displ. norm   :     0.1003431 α      lambda       -0.1264161E-04
   maximum displ.:     0.0644475 α      in ANC's #8, #1, #3, ...

........................................................................
.............................. CYCLE   25 ..............................
........................................................................

 iter      E             dE          RMSdq      gap      omega  full diag
   1    -72.2002125 -0.722002E+02  0.392E-02    2.57       0.0  T
   2    -72.2002131 -0.624954E-06  0.229E-02    2.57       1.0  T
   3    -72.2002129  0.177493E-06  0.363E-03    2.57       4.2  T
   4    -72.2002134 -0.454382E-06  0.131E-03    2.57      11.7  T
   5    -72.2002134 -0.100704E-07  0.781E-04    2.57      19.8  T
   6    -72.2002134 -0.594042E-08  0.236E-04    2.57      65.3  T
     SCC iter.                  ...        0 min,  0.013 sec
     gradient                   ...        0 min,  0.024 sec
 * total energy  :   -71.3062792 Eh     change       -0.9580792E-05 Eh
   gradient norm :     0.0023083 Eh/α   predicted    -0.6349683E-05 ( -33.72%)
   displ. norm   :     0.0192253 α      lambda       -0.4483991E-05
   maximum displ.:     0.0102166 α      in ANC's #8, #5, #1, ...

........................................................................
.............................. CYCLE   26 ..............................
........................................................................

 iter      E             dE          RMSdq      gap      omega  full diag
   1    -72.2003492 -0.722003E+02  0.731E-03    2.57       0.0  T
   2    -72.2003493 -0.617869E-07  0.427E-03    2.57       3.6  T
   3    -72.2003493  0.287012E-08  0.747E-04    2.57      20.7  T
   4    -72.2003493 -0.113186E-07  0.309E-04    2.57      49.9  T
     SCC iter.                  ...        0 min,  0.009 sec
     gradient                   ...        0 min,  0.034 sec
 * total energy  :   -71.3062830 Eh     change       -0.3735159E-05 Eh
   gradient norm :     0.0014865 Eh/α   predicted    -0.2245782E-05 ( -39.87%)
   displ. norm   :     0.1071571 α      lambda       -0.1072979E-04
   maximum displ.:     0.0575284 α      in ANC's #8, #5, #1, ...

........................................................................
.............................. CYCLE   27 ..............................
........................................................................

 iter      E             dE          RMSdq      gap      omega  full diag
   1    -72.2004676 -0.722005E+02  0.418E-02    2.57       0.0  T
   2    -72.2004684 -0.777686E-06  0.244E-02    2.57       1.0  T
   3    -72.2004682  0.161625E-06  0.364E-03    2.57       4.2  T
   4    -72.2004687 -0.450160E-06  0.149E-03    2.57      10.4  T
   5    -72.2004687 -0.334966E-07  0.807E-04    2.57      19.1  T
   6    -72.2004687 -0.178457E-08  0.278E-04    2.57      55.6  T
     SCC iter.                  ...        0 min,  0.013 sec
     gradient                   ...        0 min,  0.023 sec
 * total energy  :   -71.3062922 Eh     change       -0.9265828E-05 Eh
   gradient norm :     0.0011068 Eh/α   predicted    -0.5396001E-05 ( -41.76%)
   displ. norm   :     0.0570819 α      lambda       -0.3563020E-05
   maximum displ.:     0.0262763 α      in ANC's #8, #5, #1, ...

........................................................................
.............................. CYCLE   28 ..............................
........................................................................

 iter      E             dE          RMSdq      gap      omega  full diag
   1    -72.2003362 -0.722003E+02  0.230E-02    2.57       0.0  T
   2    -72.2003363 -0.150642E-06  0.135E-02    2.57       1.1  T
   3    -72.2003362  0.102219E-06  0.214E-03    2.57       7.2  T
   4    -72.2003364 -0.191602E-06  0.751E-04    2.57      20.5  T
   5    -72.2003364 -0.350686E-08  0.412E-04    2.57      37.4  T
     SCC iter.                  ...        0 min,  0.011 sec
     gradient                   ...        0 min,  0.024 sec
 * total energy  :   -71.3062963 Eh     change       -0.4047191E-05 Eh
   gradient norm :     0.0008711 Eh/α   predicted    -0.1785369E-05 ( -55.89%)
   displ. norm   :     0.0595006 α      lambda       -0.4552381E-05
   maximum displ.:     0.0379197 α      in ANC's #5, #10, #12, ...

   *** GEOMETRY OPTIMIZATION CONVERGED AFTER 28 ITERATIONS ***

------------------------------------------------------------------------
 total energy gain   :        -0.0187821 Eh      -11.7860 kcal/mol
 total RMSD          :         0.5785083 a0        0.3061 Å
 total power (kW/mol):        -1.7611616 (step)  -33.1713 (real)
------------------------------------------------------------------------

 ANCopt (total)                0 d,  0 h,  0 min,  1.487 sec
 optimizer setup                ...        0 min,  0.000 sec (  0.005%)
 model hessian                  ...        0 min,  0.028 sec (  1.888%)
 ANC generation                 ...        0 min,  0.024 sec (  1.614%)
 coordinate transformation      ...        0 min,  0.000 sec (  0.013%)
 single point calculation       ...        0 min,  1.427 sec ( 95.958%)
 optimization log               ...        0 min,  0.004 sec (  0.301%)
 hessian update                 ...        0 min,  0.000 sec (  0.024%)
 rational function              ...        0 min,  0.002 sec (  0.136%)

================
 final structure:
================
42
 xtb: 6.7.1 (edcfbbe)
O            6.16477179703019       -0.71008265829649        0.08840284468150
C            5.30946198343485       -1.48541399822277       -0.28599252650114
O            5.60647146124837       -2.69373186521490       -0.75515418997383
C            3.86936878514453       -1.17216877893720       -0.26404005248300
C            3.53906209855520        0.09289848151193        0.12013525414284
N            2.28543685319761        0.56645832190342        0.21175370668144
C            1.22172532823049       -0.24174567032860       -0.16177892642023
C           -0.08284740215910        0.24892334358320       -0.16754549804599
C           -1.17688487620237       -0.54064494486312       -0.52572448473321
N           -2.46814355005003       -0.07768320235892       -0.46143861023653
C           -3.40994996849324       -0.30975635272520       -1.53991911445371
C           -4.82096218068724       -0.43557369328654       -0.97181312033523
N           -5.13616714464829        0.79688196087982       -0.27268326639894
C           -4.21547447930758        0.99330952384989        0.82871170813629
C           -2.79238430710678        1.12191484706490        0.27704831950354
C           -0.88586692741885       -1.87498088660441       -0.88639879969777
F           -1.89798523178016       -2.72643233678753       -1.18833592765907
C            0.38982846645802       -2.36492337291704       -0.91538651776105
C            1.47688203803633       -1.56291223114452       -0.55752948667738
C            2.83196781337729       -2.14233263750883       -0.61261297023689
O            3.02287902983205       -3.30452737091737       -0.92146985313238
C            2.06610700107119        1.90807863841815        0.66608953820378
C            1.36200976838347        2.13049474994939        1.97517162828208
C            2.82690063606177        2.41146673129579        1.85537086301412
H            6.56575111171731       -2.83372210278944       -0.73039070726255
H            4.33625210096222        0.78008126758408        0.37098456447628
H           -0.25183571180784        1.27942196758924        0.09000126416236
H           -3.38824500208842        0.54833267554420       -2.22883638803340
H           -3.15165906790468       -1.20741565491204       -2.09411662776134
H           -5.53352167809058       -0.57266112627569       -1.78687457958390
H           -4.86103885652953       -1.31828480591442       -0.31132798151596
H           -6.09313425749953        0.78025249628637        0.06449849532175
H           -4.48402765637726        1.91106135075245        1.35610734984979
H           -4.23515472985883        0.15395672708068        1.54636114565456
H           -2.10378837839849        1.23447971888801        1.11513557320501
H           -2.73908558991650        2.01240694710779       -0.36632230896817
H            0.57848553148599       -3.38963678768213       -1.19596996323505
H            1.86806646334471        2.60745995769068       -0.14127472787226
H            1.06359877197485        1.25609531606251        2.53301267524521
H            0.67330086146619        2.95786487970644        2.05368595643153
H            3.16146204207104        3.43693846607123        1.84274014529343
H            3.50846705324181        1.73595210886239        2.34792559669386

 Bond Distances (Angstroems)
 ---------------------------
O1-C2=1.2136         C2-O1=1.2136         C2-O3=1.3298         C2-C4=1.4739         O3-C2=1.3298         O3-H25=0.9698        
C4-C2=1.4739         C4-C5=1.3628         C4-C20=1.4625        C5-C4=1.3628         C5-N6=1.3432         C5-H26=1.0820        
N6-C5=1.3432         N6-C7=1.3872         N6-C22=1.4333        C7-N6=1.3872         C7-C8=1.3938         C7-C19=1.4026        
C8-C7=1.3938         C8-C9=1.3959         C8-H27=1.0756        C9-C8=1.3959         C9-N10=1.3732        C9-C16=1.4125        
N10-C9=1.3732        N10-C11=1.4505       N10-C15=1.4455       C11-N10=1.4505       C11-C12=1.5263       C11-H28=1.1006       
C11-H29=1.0861       C12-C11=1.5263       C12-N13=1.4516       C12-H30=1.0913       C12-H31=1.1032       N13-C12=1.4516       
N13-C14=1.4489       N13-H32=1.0148       C14-N13=1.4489       C14-C15=1.5317       C14-H33=1.0920       C14-H34=1.1045       
C15-N10=1.4455       C15-C14=1.5317       C15-H35=1.0905       C15-H36=1.0999       C16-C9=1.4125        C16-F17=1.3567       
C16-C18=1.3669       F17-C16=1.3567       C18-C16=1.3669       C18-C19=1.3975       C18-H37=1.0791       C19-C7=1.4026        
C19-C18=1.3975       C19-C20=1.4748       C20-C4=1.4625        C20-C19=1.4748       C20-O21=1.2176       O21-C20=1.2176       
C22-N6=1.4333        C22-C23=1.5030       C22-C24=1.4989       C22-H38=1.0864       C23-C22=1.5030       C23-C24=1.4964       
C23-H39=1.0793       C23-H40=1.0794       C24-C22=1.4989       C24-C23=1.4964       C24-H41=1.0787       C24-H42=1.0786       
H25-O3=0.9698        H26-C5=1.0820        H27-C8=1.0756        H28-C11=1.1006       H29-C11=1.0861       H30-C12=1.0913       
H31-C12=1.1032       H32-N13=1.0148       H33-C14=1.0920       H34-C14=1.1045       H35-C15=1.0905       H36-C15=1.0999       
H37-C18=1.0791       H38-C22=1.0864       H39-C23=1.0793       H40-C23=1.0794       H41-C24=1.0787       H42-C24=1.0786       
 C  H  Rav=1.0879 sigma=0.0095  Rmin=1.0756  Rmax=1.1045    16
 C  C  Rav=1.4466 sigma=0.0566  Rmin=1.3628  Rmax=1.5317    15
 N  H  Rav=1.0148 sigma=0.0000  Rmin=1.0148  Rmax=1.0148     1
 N  C  Rav=1.4167 sigma=0.0398  Rmin=1.3432  Rmax=1.4516     8
 O  H  Rav=0.9698 sigma=0.0000  Rmin=0.9698  Rmax=0.9698     1
 O  C  Rav=1.2537 sigma=0.0539  Rmin=1.2136  Rmax=1.3298     3
 F  C  Rav=1.3567 sigma=0.0000  Rmin=1.3567  Rmax=1.3567     1

 selected bond angles (degree)
 --------------------
O3-C2-O1=122.14                C4-C2-O1=123.24                C4-C2-O3=114.62                H25-O3-C2=110.07               
C5-C4-C2=116.00                C20-C4-C2=123.27               C20-C4-C5=120.74               N6-C5-C4=124.94                
H26-C5-C4=118.45               H26-C5-N6=116.61               C7-N6-C5=119.47                C22-N6-C5=119.63               
C22-N6-C7=120.89               C8-C7-N6=120.91                C19-C7-N6=119.03               C19-C7-C8=120.05               
C9-C8-C7=122.38                H27-C8-C7=118.90               H27-C8-C9=118.70               N10-C9-C8=122.29               
C16-C9-C8=116.00               C16-C9-N10=121.61              C11-N10-C9=121.45              C15-N10-C9=120.97              
C15-N10-C11=111.53             

 selected dihedral angles (degree)
 ---------------------------------
H25-O3-C2-O1=  0.83           H25-O3-C2-C4=180.67           C5-C4-C2-O1=  4.41            C5-C4-C2-O3=184.57            
C20-C4-C2-O1=185.10           C20-C4-C2-O3=  5.27           N6-C5-C4-C2=180.43            N6-C5-C4-C20=359.75           
H26-C5-C4-C2=  0.60           H26-C5-C4-C20=179.92          C7-N6-C5-C4=356.87            C7-N6-C5-H26=176.70           
C22-N6-C5-C4=178.21           C22-N6-C5-H26=358.04          C8-C7-N6-C5=184.50            C8-C7-N6-C22=  3.14           
C19-C7-N6-C5=  3.48           C19-C7-N6-C22=182.13          C9-C8-C7-N6=180.61            C9-C8-C7-C19=  1.64           
H27-C8-C7-N6=  2.13           H27-C8-C7-C19=183.16          N10-C9-C8-C7=176.39           N10-C9-C8-H27=354.87          
C16-C9-C8-C7=359.93           C16-C9-C8-H27=178.41          C11-N10-C9-C8=135.17          C11-N10-C9-C16=311.43         
C15-N10-C9-C8=344.84          C15-N10-C9-C16=161.11         
           -------------------------------------------------
          |                Final Singlepoint                |
           -------------------------------------------------

          ...................................................
          :                      SETUP                      :
          :.................................................:
          :  # basis functions                 114          :
          :  # atomic orbitals                 114          :
          :  # shells                           66          :
          :  # electrons                       126          :
          :  max. iterations                   250          :
          :  Hamiltonian                  GFN2-xTB          :
          :  restarted?                      false          :
          :  GBSA solvation                  false          :
          :  PC potential                    false          :
          :  electronic temp.          300.0000000     K    :
          :  accuracy                    1.0000000          :
          :  -> integral cutoff          0.2500000E+02      :
          :  -> integral neglect         0.1000000E-07      :
          :  -> SCF convergence          0.1000000E-05 Eh   :
          :  -> wf. convergence          0.1000000E-03 e    :
          :  Broyden damping             0.4000000          :
          :  net charge                          0          :
          :  unpaired electrons                  0          :
          ...................................................

 iter      E             dE          RMSdq      gap      omega  full diag
   1    -72.2003364 -0.722003E+02  0.122E-04    2.57       0.0  T
   2    -72.2003364 -0.214101E-09  0.862E-05    2.57     179.0  T
   3    -72.2003364 -0.242622E-09  0.315E-05    2.57     490.2  T

   *** convergence criteria satisfied after 3 iterations ***

         #    Occupation            Energy/Eh            Energy/eV
      -------------------------------------------------------------
         1        2.0000           -0.8160738             -22.2065
       ...           ...                  ...                  ...
        57        2.0000           -0.4350244             -11.8376
        58        2.0000           -0.4234575             -11.5229
        59        2.0000           -0.4111752             -11.1886
        60        2.0000           -0.3859963             -10.5035
        61        2.0000           -0.3771509             -10.2628
        62        2.0000           -0.3714508             -10.1077
        63        2.0000           -0.3664609              -9.9719 (HOMO)
        64                         -0.2720991              -7.4042 (LUMO)
        65                         -0.2596800              -7.0663
        66                         -0.2237615              -6.0889
        67                         -0.2018846              -5.4936
        68                         -0.1356835              -3.6921
       ...                                ...                  ...
       114                          0.7152198              19.4621
      -------------------------------------------------------------
                  HL-Gap            0.0943617 Eh            2.5677 eV
             Fermi-level           -0.3192800 Eh           -8.6881 eV

 SCC (total)                   0 d,  0 h,  0 min,  0.049 sec
 SCC setup                      ...        0 min,  0.000 sec (  0.618%)
 Dispersion                     ...        0 min,  0.010 sec ( 21.177%)
 classical contributions        ...        0 min,  0.000 sec (  0.287%)
 integral evaluation            ...        0 min,  0.008 sec ( 15.775%)
 iterations                     ...        0 min,  0.007 sec ( 13.357%)
 molecular gradient             ...        0 min,  0.024 sec ( 48.473%)
 printout                       ...        0 min,  0.000 sec (  0.300%)

         :::::::::::::::::::::::::::::::::::::::::::::::::::::
         ::                     SUMMARY                     ::
         :::::::::::::::::::::::::::::::::::::::::::::::::::::
         :: total energy             -71.306296295569 Eh    ::
         :: gradient norm              0.000869902772 Eh/a0 ::
         :: HOMO-LUMO gap              2.567713762838 eV    ::
         ::.................................................::
         :: SCC energy               -72.200278149725 Eh    ::
         :: -> isotropic ES            0.108037071414 Eh    ::
         :: -> anisotropic ES          0.007299076134 Eh    ::
         :: -> anisotropic XC          0.019141974402 Eh    ::
         :: -> dispersion             -0.046210849474 Eh    ::
         :: repulsion energy           0.893981854156 Eh    ::
         :: add. restraining           0.000000000000 Eh    ::
         :: total charge              -0.000000000000 e     ::
         :::::::::::::::::::::::::::::::::::::::::::::::::::::

           -------------------------------------------------
          |                Property Printout                |
           -------------------------------------------------

    * Orbital Energies and Occupations

         #    Occupation            Energy/Eh            Energy/eV
      -------------------------------------------------------------
         1        2.0000           -0.8160738             -22.2065
       ...           ...                  ...                  ...
        51        2.0000           -0.4628222             -12.5940
        52        2.0000           -0.4585063             -12.4766
        53        2.0000           -0.4576749             -12.4540
        54        2.0000           -0.4560250             -12.4091
        55        2.0000           -0.4537021             -12.3459
        56        2.0000           -0.4413864             -12.0107
        57        2.0000           -0.4350244             -11.8376
        58        2.0000           -0.4234575             -11.5229
        59        2.0000           -0.4111752             -11.1886
        60        2.0000           -0.3859963             -10.5035
        61        2.0000           -0.3771509             -10.2628
        62        2.0000           -0.3714508             -10.1077
        63        2.0000           -0.3664609              -9.9719 (HOMO)
        64                         -0.2720991              -7.4042 (LUMO)
        65                         -0.2596800              -7.0663
        66                         -0.2237615              -6.0889
        67                         -0.2018846              -5.4936
        68                         -0.1356835              -3.6921
        69                         -0.0960581              -2.6139
        70                         -0.0760219              -2.0687
        71                         -0.0282589              -0.7690
        72                         -0.0146339              -0.3982
        73                          0.0343851               0.9357
        74                          0.0395537               1.0763
       ...                                ...                  ...
       114                          0.7152198              19.4621
      -------------------------------------------------------------
                  HL-Gap            0.0943617 Eh            2.5677 eV
             Fermi-level           -0.3192800 Eh           -8.6881 eV

     #   Z          covCN         q      C6AA      α(0)
     1   8 O        0.857    -0.454    22.797     6.402
     2   6 C        2.704     0.359    20.905     7.484
     3   8 O        1.660    -0.349    19.880     6.019
     4   6 C        2.956    -0.079    29.972     8.980
     5   6 C        2.884     0.030    27.340     8.572
     6   7 N        2.746    -0.005    21.360     6.864
     7   6 C        2.934     0.051    26.859     8.500
     8   6 C        2.929    -0.091    30.289     9.026
     9   6 C        2.905     0.054    26.791     8.487
    10   7 N        2.741    -0.088    22.955     7.116
    11   6 C        3.760    -0.002    20.660     6.480
    12   6 C        3.755     0.012    20.423     6.444
    13   7 N        2.684    -0.253    26.580     7.657
    14   6 C        3.755     0.015    20.381     6.437
    15   6 C        3.760    -0.003    20.674     6.482
    16   6 C        2.784     0.141    24.917     8.176
    17   9 F        0.787    -0.230    11.553     4.015
    18   6 C        2.921    -0.041    29.027     8.835
    19   6 C        2.983    -0.041    29.019     8.836
    20   6 C        2.830     0.223    23.317     7.913
    21   8 O        0.857    -0.396    21.599     6.231
    22   6 C        3.811     0.028    20.097     6.381
    23   6 C        3.806    -0.068    21.800     6.647
    24   6 C        3.806    -0.070    21.834     6.652
    25   1 H        0.805     0.327     0.646     1.262
    26   1 H        0.925     0.084     1.943     2.180
    27   1 H        0.926     0.047     2.362     2.403
    28   1 H        0.923     0.039     2.466     2.456
    29   1 H        0.925     0.067     2.116     2.275
    30   1 H        0.924     0.041     2.431     2.438
    31   1 H        0.923     0.023     2.681     2.561
    32   1 H        0.860     0.136     1.501     1.919
    33   1 H        0.924     0.038     2.473     2.459
    34   1 H        0.923     0.018     2.767     2.601
    35   1 H        0.924     0.045     2.384     2.415
    36   1 H        0.923     0.039     2.465     2.455
    37   1 H        0.926     0.093     1.854     2.129
    38   1 H        0.925     0.048     2.342     2.393
    39   1 H        0.926     0.053     2.283     2.363
    40   1 H        0.926     0.048     2.351     2.398
    41   1 H        0.926     0.054     2.265     2.354
    42   1 H        0.926     0.060     2.200     2.320

 Mol. C6AA /au·bohr⁶  :      20049.545693
 Mol. C8AA /au·bohr⁸  :     469375.631490
 Mol. α(0) /au        :        216.013822


Wiberg/Mayer (AO) data.
largest (>0.10) Wiberg bond orders for each atom

 ---------------------------------------------------------------------------
     #   Z sym  total        # sym  WBO       # sym  WBO       # sym  WBO
 ---------------------------------------------------------------------------
     1   8 O    1.983 --     2 C    1.682     3 O    0.168
     2   6 C    3.920 --     1 O    1.682     3 O    1.150     4 C    1.031
     3   8 O    2.227 --     2 C    1.150    25 H    0.868     1 O    0.168
     4   6 C    3.970 --     5 C    1.544    20 C    1.080     2 C    1.031
     5   6 C    3.961 --     4 C    1.544     6 N    1.266    26 H    0.951
     6   7 N    3.621 --     5 C    1.266     7 C    1.101    22 C    0.982
     7   6 C    3.963 --     8 C    1.362    19 C    1.304     6 N    1.101
     8   6 C    3.971 --     9 C    1.366     7 C    1.362    27 H    0.959
     9   6 C    3.977 --     8 C    1.366    16 C    1.253    10 N    1.169
    10   7 N    3.384 --     9 C    1.169    15 C    0.998    11 C    0.984
    11   6 C    3.974 --    12 C    1.000    10 N    0.984    29 H    0.969
                            28 H    0.963
    12   6 C    3.987 --    13 N    1.015    11 C    1.000    30 H    0.974
                            31 H    0.965
    13   7 N    3.065 --    14 C    1.019    12 C    1.015    32 H    0.957
    14   6 C    3.988 --    13 N    1.019    15 C    0.995    33 H    0.974
                            34 H    0.965
    15   6 C    3.982 --    10 N    0.998    14 C    0.995    35 H    0.970
                            36 H    0.964
    16   6 C    3.876 --    18 C    1.482     9 C    1.253    17 F    0.947
    17   9 F    1.076 --    16 C    0.947
    18   6 C    3.983 --    16 C    1.482    19 C    1.337    37 H    0.957
    19   6 C    3.978 --    18 C    1.337     7 C    1.304    20 C    1.053
    20   6 C    3.954 --    21 O    1.716     4 C    1.080    19 C    1.053
    21   8 O    2.025 --    20 C    1.716
    22   6 C    3.919 --     6 N    0.982    24 C    0.974    23 C    0.963
                            38 H    0.959
    23   6 C    3.940 --    24 C    0.985    40 H    0.979    39 H    0.979
                            22 C    0.963
    24   6 C    3.943 --    23 C    0.985    41 H    0.979    42 H    0.976
                            22 C    0.974
    25   1 H    0.893 --     3 O    0.868
    26   1 H    0.992 --     5 C    0.951
    27   1 H    0.997 --     8 C    0.959
    28   1 H    0.995 --    11 C    0.963
    29   1 H    0.995 --    11 C    0.969
    30   1 H    0.998 --    12 C    0.974
    31   1 H    0.999 --    12 C    0.965
    32   1 H    0.981 --    13 N    0.957
    33   1 H    0.998 --    14 C    0.974
    34   1 H    1.000 --    14 C    0.965
    35   1 H    0.998 --    15 C    0.970
    36   1 H    0.996 --    15 C    0.964
    37   1 H    0.990 --    18 C    0.957
    38   1 H    0.995 --    22 C    0.959
    39   1 H    0.997 --    23 C    0.979
    40   1 H    0.997 --    23 C    0.979
    41   1 H    0.997 --    24 C    0.979
    42   1 H    0.996 --    24 C    0.976
 ---------------------------------------------------------------------------

Topologies differ in total number of bonds
Writing topology from bond orders to xtbtopo.mol

molecular dipole:
                 x           y           z       tot (Debye)
 q only:       -2.005       2.599       0.745
   full:       -1.956       2.693       0.913       8.772
molecular quadrupole (traceless):
                xx          xy          yy          xz          yz          zz
 q only:       -5.803       8.146      -3.995       2.163      -0.814       9.799
  q+dip:       -2.149       9.148      -5.658      -0.920      -3.223       7.807
   full:       -3.188       9.663      -7.985      -1.294      -3.654      11.173

           -------------------------------------------------
          |                Geometry Summary                 |
           -------------------------------------------------

      molecular mass/u    :      331.3421713
   center of mass at/Å    :        0.6069877      -0.5081504      -0.1955985
  moments of inertia/u·Å² :        0.1066535E+04   0.3839164E+04   0.4800545E+04
rotational constants/cm⁻¹ :        0.1580598E-01   0.4390965E-02   0.3511608E-02

 * 41 selected distances

     #   Z          #   Z                                           value/Å
     1   8 O        2   6 C                                       1.2136168
     2   6 C        3   8 O                                       1.3297969
     4   6 C        5   6 C                                       1.3627504
     5   6 C        6   7 N                                       1.3432161
     6   7 N        7   6 C                                       1.3871564
     7   6 C        8   6 C                                       1.3938076
     8   6 C        9   6 C                                       1.3959329
     9   6 C       10   7 N                                       1.3732500
    10   7 N       11   6 C                                       1.4505095
    11   6 C       12   6 C                                       1.5262799
    12   6 C       13   7 N                                       1.4515798
    13   7 N       14   6 C                                       1.4489065
    10   7 N       15   6 C                                       1.4455210
    14   6 C       15   6 C                                       1.5316847 (max)
     9   6 C       16   6 C                                       1.4125262
    16   6 C       18   6 C                                       1.3668515
     7   6 C       19   6 C                                       1.4025708
    18   6 C       19   6 C                                       1.3974868
    20   6 C       21   8 O                                       1.2175946
     6   7 N       22   6 C                                       1.4333430
    22   6 C       23   6 C                                       1.5029698
    22   6 C       24   6 C                                       1.4988652
    23   6 C       24   6 C                                       1.4963967
     3   8 O       25   1 H                                       0.9697567 (min)
     5   6 C       26   1 H                                       1.0819694
     8   6 C       27   1 H                                       1.0755534
    11   6 C       28   1 H                                       1.1006340
    11   6 C       29   1 H                                       1.0861130
    12   6 C       30   1 H                                       1.0912650
    12   6 C       31   1 H                                       1.1031890
    13   7 N       32   1 H                                       1.0147681
    14   6 C       33   1 H                                       1.0920328
    14   6 C       34   1 H                                       1.1045005
    15   6 C       35   1 H                                       1.0905162
    15   6 C       36   1 H                                       1.0998831
    18   6 C       37   1 H                                       1.0790535
    22   6 C       38   1 H                                       1.0863662
    23   6 C       39   1 H                                       1.0792638
    23   6 C       40   1 H                                       1.0793637
    24   6 C       41   1 H                                       1.0787416
    24   6 C       42   1 H                                       1.0786395

 * 6 distinct bonds (by element types)

   Z      Z             #   av. dist./Å        max./Å        min./Å
   1 H    6 C          16     1.0879428     1.1045005     1.0755534
   6 C    6 C          12     1.4406769     1.5316847     1.3627504
   1 H    7 N           1     1.0147681     1.0147681     1.0147681
   6 C    7 N           8     1.4166853     1.4515798     1.3432161
   1 H    8 O           1     0.9697567     0.9697567     0.9697567
   6 C    8 O           3     1.2536694     1.3297969     1.2136168


optimized geometry written to: xtbopt.xyz


           -------------------------------------------------
          | TOTAL ENERGY              -71.306296295569 Eh   |
          | GRADIENT NORM               0.000869902772 Eh/α |
          | HOMO-LUMO GAP               2.567713762838 eV   |
           -------------------------------------------------

------------------------------------------------------------------------
 * finished run on 2025/05/15 at 16:16:29.827     
------------------------------------------------------------------------
 total:
 * wall-time:     0 d,  0 h,  0 min,  1.617 sec
 *  cpu-time:     0 d,  0 h,  0 min,  1.409 sec
 * ratio c/w:     0.872 speedup
 SCF:
 * wall-time:     0 d,  0 h,  0 min,  0.066 sec
 *  cpu-time:     0 d,  0 h,  0 min,  0.059 sec
 * ratio c/w:     0.890 speedup
 ANC optimizer:
 * wall-time:     0 d,  0 h,  0 min,  1.537 sec
 *  cpu-time:     0 d,  0 h,  0 min,  1.338 sec
 * ratio c/w:     0.870 speedup



----- Single-point -----
      -----------------------------------------------------------      
     |                   =====================                   |     
     |                           x T B                           |     
     |                   =====================                   |     
     |                         S. Grimme                         |     
     |          Mulliken Center for Theoretical Chemistry        |     
     |                    University of Bonn                     |     
      -----------------------------------------------------------      

   * xtb version 6.7.1 (edcfbbe) compiled by 'conda@3ef47c1a292c' on 2024-11-25

   xtb is free software: you can redistribute it and/or modify it under
   the terms of the GNU Lesser General Public License as published by
   the Free Software Foundation, either version 3 of the License, or
   (at your option) any later version.
   
   xtb is distributed in the hope that it will be useful,
   but WITHOUT ANY WARRANTY; without even the implied warranty of
   MERCHANTABILITY or FITNESS FOR A PARTICULAR PURPOSE.  See the
   GNU Lesser General Public License for more details.
   
   Cite this work as:
   * C. Bannwarth, E. Caldeweyher, S. Ehlert, A. Hansen, P. Pracht,
     J. Seibert, S. Spicher, S. Grimme, WIREs Comput. Mol. Sci., 2020, 11,
     e01493. DOI: 10.1002/wcms.1493
   
   for GFN2-xTB:
   * C. Bannwarth, S. Ehlert and S. Grimme., J. Chem. Theory Comput., 2019,
     15, 1652-1671. DOI: 10.1021/acs.jctc.8b01176
   for GFN1-xTB:
   * S. Grimme, C. Bannwarth, P. Shushkov, J. Chem. Theory Comput., 2017,
     13, 1989-2009. DOI: 10.1021/acs.jctc.7b00118
   for GFN0-xTB:
   * P. Pracht, E. Caldeweyher, S. Ehlert, S. Grimme, ChemRxiv, 2019, preprint.
     DOI: 10.26434/chemrxiv.8326202.v1
   for GFN-FF:
   * S. Spicher and S. Grimme, Angew. Chem. Int. Ed., 2020, 59, 15665-15673.
     DOI: 10.1002/anie.202004239
   
   for ALPB and GBSA implicit solvation:
   * S. Ehlert, M. Stahn, S. Spicher, S. Grimme, J. Chem. Theory Comput.,
     2021, 17, 4250-4261. DOI: 10.1021/acs.jctc.1c00471
   
   for ddCOSMO and CPCM-X implicit solvation:
   * M. Stahn, S. Ehlert, S. Grimme, J. Phys. Chem. A,
     2023, XX, XXXX-XXXX. DOI: 10.1021/acs.jpca.3c04382
   
   for DFT-D4:
   * E. Caldeweyher, C. Bannwarth and S. Grimme, J. Chem. Phys., 2017,
     147, 034112. DOI: 10.1063/1.4993215
   * E. Caldeweyher, S. Ehlert, A. Hansen, H. Neugebauer, S. Spicher,
     C. Bannwarth and S. Grimme, J. Chem. Phys., 2019, 150, 154122.
     DOI: 10.1063/1.5090222
   * E. Caldeweyher, J.-M. Mewes, S. Ehlert and S. Grimme, Phys. Chem. Chem. Phys.
     2020, 22, 8499-8512. DOI: 10.1039/D0CP00502A
   
   for sTDA-xTB:
   * S. Grimme and C. Bannwarth, J. Chem. Phys., 2016, 145, 054103.
     DOI: 10.1063/1.4959605
   
   in the mass-spec context:
   * V. Asgeirsson, C. Bauer and S. Grimme, Chem. Sci., 2017, 8, 4879.
     DOI: 10.1039/c7sc00601b
   * J. Koopman and S. Grimme, ACS Omega 2019, 4, 12, 15120-15133.
     DOI: 10.1021/acsomega.9b02011
   
   for metadynamics refer to:
   * S. Grimme, J. Chem. Theory Comput., 2019, 155, 2847-2862
     DOI: 10.1021/acs.jctc.9b00143
   
   for SPH calculations refer to:
   * S. Spicher and S. Grimme, J. Chem. Theory Comput., 2021, 17, 1701-1714
     DOI: 10.1021/acs.jctc.0c01306
   
   for ONIOM refer to:
   * C. Plett, A. Katbashev, S. Ehlert, S. Grimme, M. Bursch,
     Phys. Chem. Chem. Phys., 2023, 25, 17860-17868. DOI: 10.1039/D3CP02178E
   
   for DIPRO refer to:
   * J. Kohn, N. Gildemeister, S. Grimme, D. Fazzi, A. Hansen,
     J. Chem. Phys., 2023, just accepted.
   
   for PTB refer to:
   * S. Grimme, M. Mueller, A. Hansen, J. Chem. Phys., 2023, 158, 124111.
     DOI: 10.1063/5.0137838
   
   with help from (in alphabetical order)
   P. Atkinson, C. Bannwarth, F. Bohle, G. Brandenburg, E. Caldeweyher
   M. Checinski, S. Dohm, S. Ehlert, S. Ehrlich, I. Gerasimov, C. Hölzer
   A. Katbashev, J. Kohn, J. Koopman, C. Lavigne, S. Lehtola, F. März, M. Müller,
   F. Musil, H. Neugebauer, J. Pisarek, C. Plett, P. Pracht, F. Pultar,
   J. Seibert, P. Shushkov, S. Spicher, M. Stahn, M. Steiner, T. Strunk,
   J. Stückrath, T. Rose, and J. Unsleber
   
 * started run on 2025/05/15 at 16:16:29.846     
   ID    Z sym.   atoms
    1    8 O      1, 3, 21
    2    6 C      2, 4, 5, 7-9, 11, 12, 14-16, 18-20, 22-24
    3    7 N      6, 10, 13
    4    9 F      17
    5    1 H      25-42

           -------------------------------------------------
          |                Calculation Setup                |
           -------------------------------------------------

          program call               : xtb /rds/general/user/hgt20/home/callum/QDESCP/Ciprofloxacin_rdkit_conf_10/Ciprofloxacin_rdkit_conf_10.xyz --acc 1 --gfn 2 --chrg 0 --uhf 0 --etemp 300 --input /rds/general/user/hgt20/home/callum/QDESCP/Ciprofloxacin_rdkit_conf_10/Ciprofloxacin_rdkit_conf_10_xtb.inp -P 1
          hostname                   : login-c
          coordinate file            : /rds/general/user/hgt20/home/callum/QDESCP/Ciprofloxacin_rdkit_conf_10/Ciprofloxacin_rdkit_conf_10.xyz
          omp threads                :                     1


           -------------------------------------------------
          |                 G F N 2 - x T B                 |
           -------------------------------------------------

        Reference                      10.1021/acs.jctc.8b01176
      * Hamiltonian:
        H0-scaling (s, p, d)           1.850000    2.230000    2.230000
        zeta-weighting                 0.500000
      * Dispersion:
        s8                             2.700000
        a1                             0.520000
        a2                             5.000000
        s9                             5.000000
      * Repulsion:
        kExp                           1.500000    1.000000
        rExp                           1.000000
      * Coulomb:
        alpha                          2.000000
        third order                    shell-resolved
        anisotropic                    true
        a3                             3.000000
        a5                             4.000000
        cn-shift                       1.200000
        cn-exp                         4.000000
        max-rad                        5.000000

q/qsh data taken from xtbrestart
CAMM data taken from xtbrestart

          ...................................................
          :                      SETUP                      :
          :.................................................:
          :  # basis functions                 114          :
          :  # atomic orbitals                 114          :
          :  # shells                           66          :
          :  # electrons                       126          :
[...]
   
   for ALPB and GBSA implicit solvation:
   * S. Ehlert, M. Stahn, S. Spicher, S. Grimme, J. Chem. Theory Comput.,
     2021, 17, 4250-4261. DOI: 10.1021/acs.jctc.1c00471
   
   for ddCOSMO and CPCM-X implicit solvation:
   * M. Stahn, S. Ehlert, S. Grimme, J. Phys. Chem. A,
     2023, XX, XXXX-XXXX. DOI: 10.1021/acs.jpca.3c04382
   
   for DFT-D4:
   * E. Caldeweyher, C. Bannwarth and S. Grimme, J. Chem. Phys., 2017,
     147, 034112. DOI: 10.1063/1.4993215
   * E. Caldeweyher, S. Ehlert, A. Hansen, H. Neugebauer, S. Spicher,
     C. Bannwarth and S. Grimme, J. Chem. Phys., 2019, 150, 154122.
     DOI: 10.1063/1.5090222
   * E. Caldeweyher, J.-M. Mewes, S. Ehlert and S. Grimme, Phys. Chem. Chem. Phys.
     2020, 22, 8499-8512. DOI: 10.1039/D0CP00502A
   
   for sTDA-xTB:
   * S. Grimme and C. Bannwarth, J. Chem. Phys., 2016, 145, 054103.
     DOI: 10.1063/1.4959605
   
   in the mass-spec context:
   * V. Asgeirsson, C. Bauer and S. Grimme, Chem. Sci., 2017, 8, 4879.
     DOI: 10.1039/c7sc00601b
   * J. Koopman and S. Grimme, ACS Omega 2019, 4, 12, 15120-15133.
     DOI: 10.1021/acsomega.9b02011
   
   for metadynamics refer to:
   * S. Grimme, J. Chem. Theory Comput., 2019, 155, 2847-2862
     DOI: 10.1021/acs.jctc.9b00143
   
   for SPH calculations refer to:
   * S. Spicher and S. Grimme, J. Chem. Theory Comput., 2021, 17, 1701-1714
     DOI: 10.1021/acs.jctc.0c01306
   
   for ONIOM refer to:
   * C. Plett, A. Katbashev, S. Ehlert, S. Grimme, M. Bursch,
     Phys. Chem. Chem. Phys., 2023, 25, 17860-17868. DOI: 10.1039/D3CP02178E
   
   for DIPRO refer to:
   * J. Kohn, N. Gildemeister, S. Grimme, D. Fazzi, A. Hansen,
     J. Chem. Phys., 2023, just accepted.
   
   for PTB refer to:
   * S. Grimme, M. Mueller, A. Hansen, J. Chem. Phys., 2023, 158, 124111.
     DOI: 10.1063/5.0137838
   
   with help from (in alphabetical order)
   P. Atkinson, C. Bannwarth, F. Bohle, G. Brandenburg, E. Caldeweyher
   M. Checinski, S. Dohm, S. Ehlert, S. Ehrlich, I. Gerasimov, C. Hölzer
   A. Katbashev, J. Kohn, J. Koopman, C. Lavigne, S. Lehtola, F. März, M. Müller,
   F. Musil, H. Neugebauer, J. Pisarek, C. Plett, P. Pracht, F. Pultar,
   J. Seibert, P. Shushkov, S. Spicher, M. Stahn, M. Steiner, T. Strunk,
   J. Stückrath, T. Rose, and J. Unsleber
   
 * started run on 2025/05/15 at 16:16:31.516     
   ID    Z sym.   atoms
    1    8 O      1, 3, 21
    2    6 C      2, 4, 5, 7-9, 11, 12, 14-16, 18-20, 22-24
    3    7 N      6, 10, 13
    4    9 F      17
    5    1 H      25-42

           -------------------------------------------------
          |                Calculation Setup                |
           -------------------------------------------------

          program call               : xtb /rds/general/user/hgt20/home/callum/QDESCP/Ciprofloxacin_rdkit_conf_10/Ciprofloxacin_rdkit_conf_10.xyz --acc 1 --gfn 2 --chrg 0 --uhf 2 --etemp 300 --input /rds/general/user/hgt20/home/callum/QDESCP/Ciprofloxacin_rdkit_conf_10/Ciprofloxacin_rdkit_conf_10_xtb.inp -P 1
          hostname                   : login-c
          coordinate file            : /rds/general/user/hgt20/home/callum/QDESCP/Ciprofloxacin_rdkit_conf_10/Ciprofloxacin_rdkit_conf_10.xyz
          omp threads                :                     1


           -------------------------------------------------
          |                 G F N 2 - x T B                 |
           -------------------------------------------------

        Reference                      10.1021/acs.jctc.8b01176
      * Hamiltonian:
        H0-scaling (s, p, d)           1.850000    2.230000    2.230000
        zeta-weighting                 0.500000
      * Dispersion:
        s8                             2.700000
        a1                             0.520000
        a2                             5.000000
        s9                             5.000000
      * Repulsion:
        kExp                           1.500000    1.000000
        rExp                           1.000000
      * Coulomb:
        alpha                          2.000000
        third order                    shell-resolved
        anisotropic                    true
        a3                             3.000000
        a5                             4.000000
        cn-shift                       1.200000
        cn-exp                         4.000000
        max-rad                        5.000000


          ...................................................
          :                      SETUP                      :
          :.................................................:
          :  # basis functions                 114          :
          :  # atomic orbitals                 114          :
          :  # shells                           66          :
          :  # electrons                       126          :
          :  max. iterations                   250          :
          :  Hamiltonian                  GFN2-xTB          :
          :  restarted?                      false          :
          :  GBSA solvation                  false          :
          :  PC potential                    false          :
          :  electronic temp.          300.0000000     K    :
          :  accuracy                    1.0000000          :
          :  -> integral cutoff          0.2500000E+02      :
          :  -> integral neglect         0.1000000E-07      :
          :  -> SCF convergence          0.1000000E-05 Eh   :
          :  -> wf. convergence          0.1000000E-03 e    :
          :  Broyden damping             0.4000000          :
          :  net charge                          0          :
          :  unpaired electrons                  2          :
          ...................................................

 iter      E             dE          RMSdq      gap      omega  full diag
   1    -71.8106954 -0.718107E+02  0.403E+00    0.20       0.0  T
   2    -71.8082449  0.245052E-02  0.310E+00    0.09       1.0  T
   3    -71.9250028 -0.116758E+00  0.228E+00    0.54       1.0  T
   4    -71.9640163 -0.390135E-01  0.146E+00    0.27       1.0  T
   5    -71.9510208  0.129954E-01  0.142E+00    0.33       1.0  T
   6    -72.0608489 -0.109828E+00  0.605E-01    0.23       1.0  T
   7    -72.0397447  0.211042E-01  0.790E-01    0.16       1.0  T
   8    -72.0813544 -0.416097E-01  0.474E-01    0.12       1.0  T
   9    -72.0779983  0.335613E-02  0.430E-01    0.13       1.0  T
  10    -72.0923365 -0.143383E-01  0.858E-02    0.14       1.0  T
  11    -72.0925079 -0.171320E-03  0.484E-02    0.12       1.0  T
  12    -72.0923609  0.147012E-03  0.592E-02    0.12       1.0  T
  13    -72.0926052 -0.244300E-03  0.241E-02    0.12       1.0  T
  14    -72.0926301 -0.249650E-04  0.173E-02    0.12       1.0  T
  15    -72.0926438 -0.137045E-04  0.113E-02    0.12       1.4  T
  16    -72.0926539 -0.101076E-04  0.158E-03    0.12       9.8  T
  17    -72.0926540 -0.803458E-07  0.101E-03    0.12      15.3  T
  18    -72.0926541 -0.390266E-07  0.677E-04    0.12      22.8  T
  19    -72.0926541 -0.347633E-07  0.397E-05    0.12     388.3  T

   *** convergence criteria satisfied after 19 iterations ***

         #    Occupation            Energy/Eh            Energy/eV
      -------------------------------------------------------------
         1        2.0000           -0.8161284             -22.2080
       ...           ...                  ...                  ...
        58        2.0000           -0.4141187             -11.2687
        59        2.0000           -0.4050136             -11.0210
        60        2.0000           -0.3905932             -10.6286
        61        1.9521           -0.3778292             -10.2813
        62        1.5750           -0.3752758             -10.2118
        63        1.4729           -0.3748855             -10.2012
        64        0.9153           -0.2581955              -7.0259 (HOMO)
        65        0.0847           -0.2536740              -6.9028 (LUMO)
        66                         -0.2120799              -5.7710
        67                         -0.1964657              -5.3461
        68                         -0.1264922              -3.4420
        69                         -0.0859319              -2.3383
       ...                                ...                  ...
       114                          0.7209008              19.6167
      -------------------------------------------------------------
                  HL-Gap            0.0045215 Eh            0.1230 eV
             Fermi-level           -0.3154617 Eh           -8.5841 eV

 transition dipole moment (au) for excitation:          63          64
     X       Y       Z   
   1.0740  -0.2276   0.0271  total (au/Debye):    1.098   2.791
 dE (eV)             :    3.175
 oscillator strength :  0.13267E+00

 SCC (total)                   0 d,  0 h,  0 min,  0.102 sec
 SCC setup                      ...        0 min,  0.000 sec (  0.349%)
 Dispersion                     ...        0 min,  0.000 sec (  0.468%)
 classical contributions        ...        0 min,  0.000 sec (  0.142%)
 integral evaluation            ...        0 min,  0.008 sec (  7.873%)
 iterations                     ...        0 min,  0.061 sec ( 59.225%)
 molecular gradient             ...        0 min,  0.025 sec ( 24.884%)
 printout                       ...        0 min,  0.007 sec (  7.052%)

         :::::::::::::::::::::::::::::::::::::::::::::::::::::
         ::                     SUMMARY                     ::
         :::::::::::::::::::::::::::::::::::::::::::::::::::::
         :: total energy             -71.198613949610 Eh    ::
         :: gradient norm              0.084612830405 Eh/a0 ::
         :: HOMO-LUMO gap              0.123036827079 eV    ::
         ::.................................................::
         :: SCC energy               -72.092595803765 Eh    ::
         :: -> isotropic ES            0.100830568805 Eh    ::
         :: -> anisotropic ES          0.006219949136 Eh    ::
         :: -> anisotropic XC          0.017423267476 Eh    ::
         :: -> dispersion             -0.046190446028 Eh    ::
         :: repulsion energy           0.893981854156 Eh    ::
         :: add. restraining           0.000000000000 Eh    ::
         :: total charge              -0.000000000000 e     ::
         :::::::::::::::::::::::::::::::::::::::::::::::::::::

           -------------------------------------------------
          |                Property Printout                |
           -------------------------------------------------

    * Orbital Energies and Occupations

         #    Occupation            Energy/Eh            Energy/eV
      -------------------------------------------------------------
         1        2.0000           -0.8161284             -22.2080
       ...           ...                  ...                  ...
        52        2.0000           -0.4567598             -12.4291
        53        2.0000           -0.4535361             -12.3413
        54        2.0000           -0.4501374             -12.2489
        55        2.0000           -0.4471679             -12.1681
        56        2.0000           -0.4381793             -11.9235
        57        2.0000           -0.4323707             -11.7654
        58        2.0000           -0.4141187             -11.2687
        59        2.0000           -0.4050136             -11.0210
        60        2.0000           -0.3905932             -10.6286
        61        1.9521           -0.3778292             -10.2813
        62        1.5750           -0.3752758             -10.2118
        63        1.4729           -0.3748855             -10.2012
        64        0.9153           -0.2581955              -7.0259 (HOMO)
        65        0.0847           -0.2536740              -6.9028 (LUMO)
        66                         -0.2120799              -5.7710
        67                         -0.1964657              -5.3461
        68                         -0.1264922              -3.4420
        69                         -0.0859319              -2.3383
        70                         -0.0676399              -1.8406
        71                         -0.0271752              -0.7395
        72                         -0.0118973              -0.3237
        73                          0.0236555               0.6437
        74                          0.0420519               1.1443
        75                          0.0533200               1.4509
       ...                                ...                  ...
       114                          0.7209008              19.6167
      -------------------------------------------------------------
                  HL-Gap            0.0045215 Eh            0.1230 eV
             Fermi-level           -0.3154617 Eh           -8.5841 eV

     #   Z          covCN         q      C6AA      α(0)
     1   8 O        0.857    -0.450    22.713     6.390
     2   6 C        2.704     0.356    20.960     7.494
     3   8 O        1.660    -0.359    20.068     6.047
     4   6 C        2.956    -0.070    29.737     8.944
     5   6 C        2.884    -0.008    28.220     8.709
     6   7 N        2.746    -0.018    21.606     6.904
     7   6 C        2.934     0.054    26.792     8.489
     8   6 C        2.929    -0.105    30.651     9.079
     9   6 C        2.905     0.031    27.312     8.569
    10   7 N        2.741    -0.053    22.271     7.009
    11   6 C        3.760    -0.007    20.749     6.494
    12   6 C        3.755     0.010    20.459     6.449
    13   7 N        2.684    -0.243    26.329     7.621
    14   6 C        3.755     0.012    20.427     6.444
    15   6 C        3.760    -0.007    20.747     6.494
    16   6 C        2.784     0.143    24.867     8.168
    17   9 F        0.787    -0.230    11.550     4.015
    18   6 C        2.921    -0.072    29.796     8.951
    19   6 C        2.983    -0.015    28.372     8.737
    20   6 C        2.830     0.196    23.820     7.998
    21   8 O        0.857    -0.347    20.654     6.093
    22   6 C        3.811     0.030    20.055     6.374
    23   6 C        3.806    -0.069    21.814     6.649
    24   6 C        3.806    -0.069    21.821     6.650
    25   1 H        0.805     0.326     0.647     1.264
    26   1 H        0.925     0.072     2.063     2.246
    27   1 H        0.926     0.038     2.474     2.459
    28   1 H        0.923     0.053     2.285     2.364
    29   1 H        0.925     0.076     2.019     2.222
    30   1 H        0.924     0.047     2.354     2.399
    31   1 H        0.923     0.032     2.564     2.504
    32   1 H        0.860     0.143     1.451     1.887
    33   1 H        0.924     0.044     2.393     2.419
    34   1 H        0.923     0.026     2.651     2.546
    35   1 H        0.924     0.057     2.236     2.339
    36   1 H        0.923     0.053     2.288     2.365
    37   1 H        0.926     0.077     2.014     2.220
    38   1 H        0.925     0.043     2.407     2.426
    39   1 H        0.926     0.051     2.312     2.378
    40   1 H        0.926     0.042     2.418     2.432
    41   1 H        0.926     0.051     2.309     2.376
    42   1 H        0.926     0.060     2.199     2.319

 Mol. C6AA /au·bohr⁶  :      20028.990023
 Mol. C8AA /au·bohr⁸  :     469370.582397
 Mol. α(0) /au        :        215.937069


Wiberg/Mayer (AO) data.
largest (>0.10) Wiberg bond orders for each atom

 ---------------------------------------------------------------------------
     #   Z sym  total        # sym  WBO       # sym  WBO       # sym  WBO
 ---------------------------------------------------------------------------
     1   8 O    1.954 --     2 C    1.658     3 O    0.158
     2   6 C    3.888 --     1 O    1.658     3 O    1.136     4 C    1.036
     3   8 O    2.204 --     2 C    1.136    25 H    0.868     1 O    0.158
     4   6 C    3.842 --     5 C    1.450    20 C    1.075     2 C    1.036
     5   6 C    3.855 --     4 C    1.450     6 N    1.190    26 H    0.948
     6   7 N    3.546 --     5 C    1.190     7 C    1.117    22 C    0.987
     7   6 C    3.935 --     8 C    1.375    19 C    1.264     6 N    1.117
     8   6 C    3.882 --     7 C    1.375     9 C    1.261    27 H    0.959
     9   6 C    3.899 --    16 C    1.278     8 C    1.261    10 N    1.142
    10   7 N    3.291 --     9 C    1.142    15 C    1.004    11 C    0.993
    11   6 C    3.964 --    12 C    0.993    10 N    0.993    29 H    0.967
                            28 H    0.952
    12   6 C    3.978 --    13 N    1.017    11 C    0.993    30 H    0.973
                            31 H    0.962
    13   7 N    3.071 --    14 C    1.021    12 C    1.017    32 H    0.953
    14   6 C    3.979 --    13 N    1.021    15 C    0.988    33 H    0.973
                            34 H    0.963
    15   6 C    3.974 --    10 N    1.004    14 C    0.988    35 H    0.969
                            36 H    0.955
    16   6 C    3.783 --    18 C    1.392     9 C    1.278    17 F    0.947
    17   9 F    1.066 --    16 C    0.947
    18   6 C    3.916 --    16 C    1.392    19 C    1.293    37 H    0.960
    19   6 C    3.814 --    18 C    1.293     7 C    1.264    20 C    1.038
    20   6 C    3.869 --    21 O    1.565     4 C    1.075    19 C    1.038
    21   8 O    1.842 --    20 C    1.565
    22   6 C    3.923 --     6 N    0.987    24 C    0.974    23 C    0.961
                            38 H    0.958
    23   6 C    3.938 --    24 C    0.983    40 H    0.980    39 H    0.979
                            22 C    0.961
    24   6 C    3.943 --    23 C    0.983    41 H    0.980    42 H    0.976
                            22 C    0.974
    25   1 H    0.892 --     3 O    0.868
    26   1 H    0.987 --     5 C    0.948
    27   1 H    0.997 --     8 C    0.959
    28   1 H    0.979 --    11 C    0.952
    29   1 H    0.994 --    11 C    0.967
    30   1 H    0.997 --    12 C    0.973
    31   1 H    0.994 --    12 C    0.962
    32   1 H    0.977 --    13 N    0.953
    33   1 H    0.997 --    14 C    0.973
    34   1 H    0.995 --    14 C    0.963
    35   1 H    0.996 --    15 C    0.969
    36   1 H    0.982 --    15 C    0.955
    37   1 H    0.992 --    18 C    0.960
    38   1 H    0.994 --    22 C    0.958
    39   1 H    0.997 --    23 C    0.979
    40   1 H    0.998 --    23 C    0.980
    41   1 H    0.997 --    24 C    0.980
    42   1 H    0.996 --    24 C    0.976
 ---------------------------------------------------------------------------

Topologies differ in total number of bonds
Writing topology from bond orders to xtbtopo.mol

molecular dipole:
                 x           y           z       tot (Debye)
 q only:       -3.010       2.559       0.636
   full:       -2.993       2.587       0.784      10.252
molecular quadrupole (traceless):
                xx          xy          yy          xz          yz          zz
 q only:       -2.828       5.598      -5.630       2.354      -1.072       8.459
  q+dip:        0.765       5.920      -6.972      -0.870      -3.427       6.208
   full:        0.183       6.439      -9.123      -1.202      -3.612       8.940


           -------------------------------------------------
          | TOTAL ENERGY              -71.198613949610 Eh   |
          | GRADIENT NORM               0.084612830405 Eh/α |
          | HOMO-LUMO GAP               0.123036827079 eV   |
           -------------------------------------------------

------------------------------------------------------------------------
 * finished run on 2025/05/15 at 16:16:31.632     
------------------------------------------------------------------------
 total:
 * wall-time:     0 d,  0 h,  0 min,  0.116 sec
 *  cpu-time:     0 d,  0 h,  0 min,  0.096 sec
 * ratio c/w:     0.829 speedup
 SCF:
 * wall-time:     0 d,  0 h,  0 min,  0.102 sec
 *  cpu-time:     0 d,  0 h,  0 min,  0.084 sec
 * ratio c/w:     0.820 speedup


