42
 energy: -71.306296295569 gnorm: 0.000869902772 xtb: 6.7.1 (edcfbbe)
O            6.16477179703019       -0.71008265829649        0.08840284468150
C            5.30946198343485       -1.48541399822277       -0.28599252650114
O            5.60647146124837       -2.69373186521490       -0.75515418997383
C            3.86936878514453       -1.17216877893720       -0.26404005248300
C            3.53906209855520        0.09289848151193        0.12013525414284
N            2.28543685319761        0.56645832190342        0.21175370668144
C            1.22172532823049       -0.24174567032860       -0.16177892642023
C           -0.08284740215910        0.24892334358320       -0.16754549804599
C           -1.17688487620237       -0.54064494486312       -0.52572448473321
N           -2.46814355005003       -0.07768320235892       -0.46143861023653
C           -3.40994996849324       -0.30975635272520       -1.53991911445371
C           -4.82096218068724       -0.43557369328654       -0.97181312033523
N           -5.13616714464829        0.79688196087982       -0.27268326639894
C           -4.21547447930758        0.99330952384989        0.82871170813629
C           -2.79238430710678        1.12191484706490        0.27704831950354
C           -0.88586692741885       -1.87498088660441       -0.88639879969777
F           -1.89798523178016       -2.72643233678753       -1.18833592765907
C            0.38982846645802       -2.36492337291704       -0.91538651776105
C            1.47688203803633       -1.56291223114452       -0.55752948667738
C            2.83196781337729       -2.14233263750883       -0.61261297023689
O            3.02287902983205       -3.30452737091737       -0.92146985313238
C            2.06610700107119        1.90807863841815        0.66608953820378
C            1.36200976838347        2.13049474994939        1.97517162828208
C            2.82690063606177        2.41146673129579        1.85537086301412
H            6.56575111171731       -2.83372210278944       -0.73039070726255
H            4.33625210096222        0.78008126758408        0.37098456447628
H           -0.25183571180784        1.27942196758924        0.09000126416236
H           -3.38824500208842        0.54833267554420       -2.22883638803340
H           -3.15165906790468       -1.20741565491204       -2.09411662776134
H           -5.53352167809058       -0.57266112627569       -1.78687457958390
H           -4.86103885652953       -1.31828480591442       -0.31132798151596
H           -6.09313425749953        0.78025249628637        0.06449849532175
H           -4.48402765637726        1.91106135075245        1.35610734984979
H           -4.23515472985883        0.15395672708068        1.54636114565456
H           -2.10378837839849        1.23447971888801        1.11513557320501
H           -2.73908558991650        2.01240694710779       -0.36632230896817
H            0.57848553148599       -3.38963678768213       -1.19596996323505
H            1.86806646334471        2.60745995769068       -0.14127472787226
H            1.06359877197485        1.25609531606251        2.53301267524521
H            0.67330086146619        2.95786487970644        2.05368595643153
H            3.16146204207104        3.43693846607123        1.84274014529343
H            3.50846705324181        1.73595210886239        2.34792559669386
