31
 energy: -58.959416712884 gnorm: 0.000423849088 xtb: 6.7.1 (edcfbbe)
N            4.91024656483860       -1.37585190761719       -0.13673114297022
C            3.95911737523248       -0.45139117695858       -0.33008780659388
N            4.28070427898497        0.66267313299237       -0.99416567621993
C            3.35489867239833        1.58295087730591       -1.18620443614748
Cl           3.87184574665355        2.95842207789611       -2.05210621773910
N            2.09437323117904        1.58880768719377       -0.81037689496677
C            1.76698858532415        0.47825203009187       -0.14504153490873
C            2.63793522001739       -0.59023988703317        0.13077552821865
N            1.95887595651533       -1.56538708471125        0.81672263041012
C            0.75122540364125       -1.10680068836000        0.94136511745779
N            0.56496377928134        0.12815046830618        0.38593247191298
C           -0.63741026155484        0.92499380598787        0.32092877431106
C           -1.43291653509556        0.65589920016261       -0.96608737589819
C           -2.88551142471185        0.74188140738138       -0.49601848480923
C           -2.78315684667758        0.29516642631072        0.97015540450411
O           -1.47509308630557        0.62843880722467        1.40450395940307
C           -3.07644492121169       -1.19868094045271        1.15826378790354
O           -2.36656373244014       -1.95214519584764        0.19917301585816
O           -3.40723964295700        2.04674762282932       -0.51228132480100
H            5.83044584244063       -1.21347369520699       -0.50419390324373
H            4.68070890278880       -2.22121770061215        0.35263673233402
H           -0.04498430554647       -1.62387368665571        1.43527819515632
H           -0.31349901994785        1.97543696449803        0.38000283948105
H           -1.19277422728385        1.37640920580155       -1.74482702698275
H           -1.22513597873449       -0.35464572639085       -1.31673696452493
H           -3.53280237462151        0.06425402623166       -1.06793845253400
H           -3.48604923752299        0.86899763207482        1.58359242952405
H           -4.15814545164822       -1.35765345124596        1.05040544176318
H           -2.77634996912540       -1.47651960913838        2.17652702971996
H           -2.51365281993628       -2.88943836831854        0.36442109540169
H           -3.35469972397396        2.39983774625912       -1.40758721102022
