----- Optimization -----
      -----------------------------------------------------------      
     |                   =====================                   |     
     |                           x T B                           |     
     |                   =====================                   |     
     |                         S. Grimme                         |     
     |          Mulliken Center for Theoretical Chemistry        |     
     |                    University of Bonn                     |     
      -----------------------------------------------------------      

   * xtb version 6.7.1 (edcfbbe) compiled by 'conda@3ef47c1a292c' on 2024-11-25

   xtb is free software: you can redistribute it and/or modify it under
   the terms of the GNU Lesser General Public License as published by
   the Free Software Foundation, either version 3 of the License, or
   (at your option) any later version.
   
   xtb is distributed in the hope that it will be useful,
   but WITHOUT ANY WARRANTY; without even the implied warranty of
   MERCHANTABILITY or FITNESS FOR A PARTICULAR PURPOSE.  See the
   GNU Lesser General Public License for more details.
   
   Cite this work as:
   * C. Bannwarth, E. Caldeweyher, S. Ehlert, A. Hansen, P. Pracht,
     J. Seibert, S. Spicher, S. Grimme, WIREs Comput. Mol. Sci., 2020, 11,
     e01493. DOI: 10.1002/wcms.1493
   
   for GFN2-xTB:
   * C. Bannwarth, S. Ehlert and S. Grimme., J. Chem. Theory Comput., 2019,
     15, 1652-1671. DOI: 10.1021/acs.jctc.8b01176
   for GFN1-xTB:
   * S. Grimme, C. Bannwarth, P. Shushkov, J. Chem. Theory Comput., 2017,
     13, 1989-2009. DOI: 10.1021/acs.jctc.7b00118
   for GFN0-xTB:
   * P. Pracht, E. Caldeweyher, S. Ehlert, S. Grimme, ChemRxiv, 2019, preprint.
     DOI: 10.26434/chemrxiv.8326202.v1
   for GFN-FF:
   * S. Spicher and S. Grimme, Angew. Chem. Int. Ed., 2020, 59, 15665-15673.
     DOI: 10.1002/anie.202004239
   
   for ALPB and GBSA implicit solvation:
   * S. Ehlert, M. Stahn, S. Spicher, S. Grimme, J. Chem. Theory Comput.,
     2021, 17, 4250-4261. DOI: 10.1021/acs.jctc.1c00471
   
   for ddCOSMO and CPCM-X implicit solvation:
   * M. Stahn, S. Ehlert, S. Grimme, J. Phys. Chem. A,
     2023, XX, XXXX-XXXX. DOI: 10.1021/acs.jpca.3c04382
   
   for DFT-D4:
   * E. Caldeweyher, C. Bannwarth and S. Grimme, J. Chem. Phys., 2017,
     147, 034112. DOI: 10.1063/1.4993215
   * E. Caldeweyher, S. Ehlert, A. Hansen, H. Neugebauer, S. Spicher,
     C. Bannwarth and S. Grimme, J. Chem. Phys., 2019, 150, 154122.
     DOI: 10.1063/1.5090222
   * E. Caldeweyher, J.-M. Mewes, S. Ehlert and S. Grimme, Phys. Chem. Chem. Phys.
     2020, 22, 8499-8512. DOI: 10.1039/D0CP00502A
   
   for sTDA-xTB:
   * S. Grimme and C. Bannwarth, J. Chem. Phys., 2016, 145, 054103.
     DOI: 10.1063/1.4959605
   
   in the mass-spec context:
   * V. Asgeirsson, C. Bauer and S. Grimme, Chem. Sci., 2017, 8, 4879.
     DOI: 10.1039/c7sc00601b
   * J. Koopman and S. Grimme, ACS Omega 2019, 4, 12, 15120-15133.
     DOI: 10.1021/acsomega.9b02011
   
   for metadynamics refer to:
   * S. Grimme, J. Chem. Theory Comput., 2019, 155, 2847-2862
     DOI: 10.1021/acs.jctc.9b00143
   
   for SPH calculations refer to:
   * S. Spicher and S. Grimme, J. Chem. Theory Comput., 2021, 17, 1701-1714
     DOI: 10.1021/acs.jctc.0c01306
   
   for ONIOM refer to:
   * C. Plett, A. Katbashev, S. Ehlert, S. Grimme, M. Bursch,
     Phys. Chem. Chem. Phys., 2023, 25, 17860-17868. DOI: 10.1039/D3CP02178E
   
   for DIPRO refer to:
   * J. Kohn, N. Gildemeister, S. Grimme, D. Fazzi, A. Hansen,
     J. Chem. Phys., 2023, just accepted.
   
   for PTB refer to:
   * S. Grimme, M. Mueller, A. Hansen, J. Chem. Phys., 2023, 158, 124111.
     DOI: 10.1063/5.0137838
   
   with help from (in alphabetical order)
   P. Atkinson, C. Bannwarth, F. Bohle, G. Brandenburg, E. Caldeweyher
   M. Checinski, S. Dohm, S. Ehlert, S. Ehrlich, I. Gerasimov, C. Hölzer
   A. Katbashev, J. Kohn, J. Koopman, C. Lavigne, S. Lehtola, F. März, M. Müller,
   F. Musil, H. Neugebauer, J. Pisarek, C. Plett, P. Pracht, F. Pultar,
   J. Seibert, P. Shushkov, S. Spicher, M. Stahn, M. Steiner, T. Strunk,
   J. Stückrath, T. Rose, and J. Unsleber
   
 * started run on 2025/05/15 at 16:21:37.166     
   ID    Z sym.   atoms
    1    7 N      1, 3, 6, 9, 11
    2    6 C      2, 4, 7, 8, 10, 12-15, 17
    3   17 Cl     5
    4    8 O      16, 18, 19
    5    1 H      20-31

           -------------------------------------------------
          |                Calculation Setup                |
           -------------------------------------------------

          program call               : xtb /rds/general/user/hgt20/home/callum/QDESCP/Cladribine_rdkit_conf_3/Cladribine_rdkit_conf_3.xyz --opt normal --acc 1 --gfn 2 --chrg 0 --uhf 0 -P 1
          hostname                   : login-c
          coordinate file            : /rds/general/user/hgt20/home/callum/QDESCP/Cladribine_rdkit_conf_3/Cladribine_rdkit_conf_3.xyz
          omp threads                :                     1


           -------------------------------------------------
          |                 G F N 2 - x T B                 |
           -------------------------------------------------

        Reference                      10.1021/acs.jctc.8b01176
      * Hamiltonian:
        H0-scaling (s, p, d)           1.850000    2.230000    2.230000
        zeta-weighting                 0.500000
      * Dispersion:
        s8                             2.700000
        a1                             0.520000
        a2                             5.000000
        s9                             5.000000
      * Repulsion:
        kExp                           1.500000    1.000000
        rExp                           1.000000
      * Coulomb:
        alpha                          2.000000
        third order                    shell-resolved
        anisotropic                    true
        a3                             3.000000
        a5                             4.000000
        cn-shift                       1.200000
        cn-exp                         4.000000
        max-rad                        5.000000


          ...................................................
          :                      SETUP                      :
          :.................................................:
          :  # basis functions                  94          :
          :  # atomic orbitals                  93          :
          :  # shells                           51          :
          :  # electrons                       102          :
          :  max. iterations                   250          :
          :  Hamiltonian                  GFN2-xTB          :
          :  restarted?                      false          :
          :  GBSA solvation                  false          :
          :  PC potential                    false          :
          :  electronic temp.          300.0000000     K    :
          :  accuracy                    1.0000000          :
          :  -> integral cutoff          0.2500000E+02      :
          :  -> integral neglect         0.1000000E-07      :
          :  -> SCF convergence          0.1000000E-05 Eh   :
          :  -> wf. convergence          0.1000000E-03 e    :
          :  Broyden damping             0.4000000          :
          :  net charge                          0          :
          :  unpaired electrons                  0          :
          ...................................................

 iter      E             dE          RMSdq      gap      omega  full diag
   1    -59.3748776 -0.593749E+02  0.437E+00    2.96       0.0  T
   2    -59.4938946 -0.119017E+00  0.262E+00    3.32       1.0  T
   3    -59.5058466 -0.119519E-01  0.127E+00    3.17       1.0  T
   4    -59.5108288 -0.498225E-02  0.264E-01    3.09       1.0  T
   5    -59.5119095 -0.108063E-02  0.103E-01    3.07       1.0  T
   6    -59.5119944 -0.849826E-04  0.565E-02    3.06       1.0  T
   7    -59.5120220 -0.276063E-04  0.343E-02    3.07       1.0  T
   8    -59.5120301 -0.802045E-05  0.196E-02    3.07       1.0  T
   9    -59.5120332 -0.315479E-05  0.146E-02    3.07       1.2  T
  10    -59.5120358 -0.262066E-05  0.874E-03    3.07       2.1  T
  11    -59.5120370 -0.118728E-05  0.323E-03    3.07       5.6  T
  12    -59.5120371 -0.764793E-07  0.165E-03    3.07      10.9  T
  13    -59.5120372 -0.417537E-07  0.531E-04    3.07      33.8  T
  14    -59.5120372 -0.365328E-08  0.164E-04    3.07     109.6  T

   *** convergence criteria satisfied after 14 iterations ***

         #    Occupation            Energy/Eh            Energy/eV
      -------------------------------------------------------------
         1        2.0000           -1.0511145             -28.6023
       ...           ...                  ...                  ...
        45        2.0000           -0.4274866             -11.6325
        46        2.0000           -0.4207558             -11.4493
        47        2.0000           -0.4184964             -11.3879
        48        2.0000           -0.4142583             -11.2725
        49        2.0000           -0.4013034             -10.9200
        50        2.0000           -0.3905152             -10.6265
        51        2.0000           -0.3802798             -10.3479 (HOMO)
        52                         -0.2675146              -7.2794 (LUMO)
        53                         -0.2412319              -6.5643
        54                         -0.2070026              -5.6328
        55                         -0.1378824              -3.7520
        56                         -0.1152340              -3.1357
       ...                                ...                  ...
        93                          0.6274686              17.0743
      -------------------------------------------------------------
                  HL-Gap            0.1127652 Eh            3.0685 eV
             Fermi-level           -0.3238972 Eh           -8.8137 eV

 SCC (total)                   0 d,  0 h,  0 min,  0.049 sec
 SCC setup                      ...        0 min,  0.000 sec (  0.555%)
 Dispersion                     ...        0 min,  0.000 sec (  0.526%)
 classical contributions        ...        0 min,  0.000 sec (  0.179%)
 integral evaluation            ...        0 min,  0.012 sec ( 24.095%)
 iterations                     ...        0 min,  0.022 sec ( 43.966%)
 molecular gradient             ...        0 min,  0.015 sec ( 30.397%)
 printout                       ...        0 min,  0.000 sec (  0.269%)

         :::::::::::::::::::::::::::::::::::::::::::::::::::::
         ::                     SUMMARY                     ::
         :::::::::::::::::::::::::::::::::::::::::::::::::::::
         :: total energy             -58.947185587784 Eh    ::
         :: gradient norm              0.091436004148 Eh/a0 ::
         :: HOMO-LUMO gap              3.068497392672 eV    ::
         ::.................................................::
         :: SCC energy               -59.511917720490 Eh    ::
         :: -> isotropic ES            0.115923971768 Eh    ::
         :: -> anisotropic ES          0.001613039699 Eh    ::
         :: -> anisotropic XC          0.019456941527 Eh    ::
         :: -> dispersion             -0.033406300879 Eh    ::
         :: repulsion energy           0.564732132706 Eh    ::
         :: add. restraining           0.000000000000 Eh    ::
         :: total charge              -0.000000000000 e     ::
         :::::::::::::::::::::::::::::::::::::::::::::::::::::

      ----------------------------------------------------------- 
     |                   =====================                   |
     |                        A N C O P T                        |
     |                   =====================                   |
     |               Approximate Normal Coordinate               |
     |                Rational Function Optimizer                |
      ----------------------------------------------------------- 
      ----------------------------------------------------------- 
     |                   =====================                   |
     |                        A N C O P T                        |
     |                   =====================                   |
     |               Approximate Normal Coordinate               |
     |                Rational Function Optimizer                |
      ----------------------------------------------------------- 

          ...................................................
          :                      SETUP                      :
          :.................................................:
          :   optimization level            normal          :
          :   max. optcycles                   200          :
          :   ANC micro-cycles                  20          :
          :   degrees of freedom                87          :
          :.................................................:
          :   RF solver                   davidson          :
          :   write xtbopt.log                true          :
          :   linear?                        false          :
          :   energy convergence         0.5000000E-05 Eh   :
          :   grad. convergence          0.1000000E-02 Eh/α :
          :   maxmium RF displ.          1.0000000          :
          :   Hlow (freq-cutoff)         0.1000000E-01      :
          :   Hmax (freq-cutoff)         5.0000000          :
          :   S6 in model hess.         20.0000000          :
          ...................................................

generating ANC from exact Hessian ...
Using Lindh-Hessian (1995)
 Shifting diagonal of input Hessian by    9.1348573410774351E-003
 Lowest  eigenvalues of input Hessian
    0.000000    0.000000    0.000000    0.000000    0.000000    0.000000
    0.010000    0.010234    0.010532    0.013213    0.014627    0.016144
    0.017971    0.019108    0.020000    0.022757    0.029050    0.030509
 Highest eigenvalues
    1.782652    1.925644    2.062697    2.091923    2.173802    2.292574


........................................................................
.............................. CYCLE    1 ..............................
........................................................................

 iter      E             dE          RMSdq      gap      omega  full diag
   1    -59.5120372 -0.595120E+02  0.738E-05    3.07       0.0  T
   2    -59.5120372 -0.253593E-10  0.536E-05    3.07     335.2  T
   3    -59.5120372 -0.865441E-11  0.397E-05    3.07     451.9  T
     SCC iter.                  ...        0 min,  0.005 sec
     gradient                   ...        0 min,  0.046 sec
 * total energy  :   -58.9471856 Eh     change       -0.2013749E-09 Eh
   gradient norm :     0.0914358 Eh/α   predicted     0.0000000E+00 (-100.00%)
   displ. norm   :     0.2633159 α      lambda       -0.1212999E-01
   maximum displ.:     0.1092926 α      in ANC's #15, #29, #11, ...

........................................................................
.............................. CYCLE    2 ..............................
........................................................................

 iter      E             dE          RMSdq      gap      omega  full diag
   1    -59.5432681 -0.595433E+02  0.219E-01    3.18       0.0  T
   2    -59.5434217 -0.153664E-03  0.132E-01    3.14       1.0  T
   3    -59.5434349 -0.131407E-04  0.736E-02    3.16       1.0  T
   4    -59.5434847 -0.498198E-04  0.182E-02    3.16       1.0  T
   5    -59.5434898 -0.509621E-05  0.110E-02    3.16       1.6  T
   6    -59.5434905 -0.729642E-06  0.835E-03    3.16       2.2  T
   7    -59.5434911 -0.647183E-06  0.594E-03    3.16       3.0  T
   8    -59.5434917 -0.529484E-06  0.271E-03    3.16       6.6  T
   9    -59.5434918 -0.843205E-07  0.140E-03    3.16      12.9  T
  10    -59.5434918 -0.281503E-07  0.438E-04    3.16      41.0  T
  11    -59.5434918 -0.208848E-08  0.215E-04    3.16      83.4  T
     SCC iter.                  ...        0 min,  0.016 sec
     gradient                   ...        0 min,  0.015 sec
 * total energy  :   -58.9555815 Eh     change       -0.8395902E-02 Eh
   gradient norm :     0.0422789 Eh/α   predicted    -0.6487005E-02 ( -22.74%)
   displ. norm   :     0.2137609 α      lambda       -0.4107420E-02
   maximum displ.:     0.0830431 α      in ANC's #15, #9, #4, ...

........................................................................
.............................. CYCLE    3 ..............................
........................................................................

 iter      E             dE          RMSdq      gap      omega  full diag
   1    -59.5601444 -0.595601E+02  0.152E-01    3.24       0.0  T
   2    -59.5602717 -0.127355E-03  0.901E-02    3.20       1.0  T
   3    -59.5602972 -0.254323E-04  0.514E-02    3.22       1.0  T
   4    -59.5603124 -0.152287E-04  0.144E-02    3.21       1.2  T
   5    -59.5603160 -0.363202E-05  0.728E-03    3.21       2.5  T
   6    -59.5603164 -0.326060E-06  0.539E-03    3.21       3.3  T
   7    -59.5603166 -0.240382E-06  0.407E-03    3.21       4.4  T
   8    -59.5603168 -0.236300E-06  0.202E-03    3.21       8.9  T
   9    -59.5603169 -0.493309E-07  0.998E-04    3.21      18.0  T
  10    -59.5603169 -0.160491E-07  0.313E-04    3.21      57.3  T
     SCC iter.                  ...        0 min,  0.015 sec
     gradient                   ...        0 min,  0.041 sec
 * total energy  :   -58.9579235 Eh     change       -0.2341993E-02 Eh
   gradient norm :     0.0129852 Eh/α   predicted    -0.2148419E-02 (  -8.27%)
   displ. norm   :     0.1140766 α      lambda       -0.5465843E-03
   maximum displ.:     0.0471749 α      in ANC's #4, #9, #5, ...

........................................................................
.............................. CYCLE    4 ..............................
........................................................................

 iter      E             dE          RMSdq      gap      omega  full diag
   1    -59.5598322 -0.595598E+02  0.546E-02    3.22       0.0  T
   2    -59.5598420 -0.985951E-05  0.313E-02    3.22       1.0  T
   3    -59.5598412  0.777162E-06  0.162E-02    3.22       1.1  T
   4    -59.5598442 -0.298493E-05  0.384E-03    3.22       4.7  T
   5    -59.5598446 -0.348497E-06  0.166E-03    3.22      10.8  T
   6    -59.5598446 -0.186132E-07  0.745E-04    3.22      24.1  T
   7    -59.5598446 -0.490549E-08  0.400E-04    3.22      44.9  T
     SCC iter.                  ...        0 min,  0.010 sec
     gradient                   ...        0 min,  0.015 sec
 * total energy  :   -58.9583310 Eh     change       -0.4075287E-03 Eh
   gradient norm :     0.0100332 Eh/α   predicted    -0.2768609E-03 ( -32.06%)
   displ. norm   :     0.1560426 α      lambda       -0.4718499E-03
   maximum displ.:     0.0723003 α      in ANC's #4, #9, #2, ...

........................................................................
.............................. CYCLE    5 ..............................
........................................................................

 iter      E             dE          RMSdq      gap      omega  full diag
   1    -59.5580246 -0.595580E+02  0.687E-02    3.23       0.0  T
   2    -59.5580356 -0.109647E-04  0.403E-02    3.22       1.0  T
   3    -59.5580324  0.322202E-05  0.190E-02    3.23       1.0  T
   4    -59.5580386 -0.620513E-05  0.443E-03    3.23       4.1  T
   5    -59.5580390 -0.372501E-06  0.213E-03    3.23       8.4  T
   6    -59.5580390 -0.261878E-07  0.958E-04    3.23      18.8  T
   7    -59.5580390 -0.853733E-08  0.607E-04    3.23      29.6  T
     SCC iter.                  ...        0 min,  0.010 sec
     gradient                   ...        0 min,  0.051 sec
 * total energy  :   -58.9586363 Eh     change       -0.3052586E-03 Eh
   gradient norm :     0.0074407 Eh/α   predicted    -0.2416757E-03 ( -20.83%)
   displ. norm   :     0.1171286 α      lambda       -0.1832786E-03
   maximum displ.:     0.0567137 α      in ANC's #2, #4, #9, ...

........................................................................
.............................. CYCLE    6 ..............................
........................................................................

 iter      E             dE          RMSdq      gap      omega  full diag
   1    -59.5579657 -0.595580E+02  0.451E-02    3.24       0.0  T
   2    -59.5579693 -0.353056E-05  0.269E-02    3.23       1.0  T
   3    -59.5579674  0.191751E-05  0.118E-02    3.23       1.5  T
   4    -59.5579704 -0.299954E-05  0.271E-03    3.23       6.6  T
   5    -59.5579705 -0.121792E-06  0.131E-03    3.23      13.7  T
   6    -59.5579705 -0.781507E-08  0.494E-04    3.23      36.3  T
   7    -59.5579705 -0.240595E-08  0.284E-04    3.23      63.2  T
     SCC iter.                  ...        0 min,  0.010 sec
     gradient                   ...        0 min,  0.015 sec
 * total energy  :   -58.9587775 Eh     change       -0.1412485E-03 Eh
   gradient norm :     0.0060719 Eh/α   predicted    -0.9295303E-04 ( -34.19%)
   displ. norm   :     0.1902747 α      lambda       -0.2254386E-03
   maximum displ.:     0.1048567 α      in ANC's #2, #4, #7, ...

........................................................................
.............................. CYCLE    7 ..............................
........................................................................

 iter      E             dE          RMSdq      gap      omega  full diag
   1    -59.5587902 -0.595588E+02  0.658E-02    3.25       0.0  T
   2    -59.5587963 -0.610391E-05  0.393E-02    3.24       1.0  T
   3    -59.5587921  0.419724E-05  0.162E-02    3.25       1.1  T
   4    -59.5587983 -0.618917E-05  0.374E-03    3.25       4.8  T
   5    -59.5587985 -0.199427E-06  0.183E-03    3.25       9.8  T
   6    -59.5587985 -0.138115E-07  0.617E-04    3.25      29.1  T
   7    -59.5587985 -0.364104E-08  0.335E-04    3.25      53.7  T
     SCC iter.                  ...        0 min,  0.010 sec
     gradient                   ...        0 min,  0.054 sec
 * total energy  :   -58.9589392 Eh     change       -0.1617043E-03 Eh
   gradient norm :     0.0045457 Eh/α   predicted    -0.1168409E-03 ( -27.74%)
   displ. norm   :     0.1842739 α      lambda       -0.1425322E-03
   maximum displ.:     0.1137527 α      in ANC's #2, #7, #4, ...

........................................................................
.............................. CYCLE    8 ..............................
........................................................................

 iter      E             dE          RMSdq      gap      omega  full diag
   1    -59.5599146 -0.595599E+02  0.552E-02    3.26       0.0  T
   2    -59.5599178 -0.319442E-05  0.328E-02    3.26       1.0  T
   3    -59.5599156  0.226445E-05  0.116E-02    3.26       1.5  T
   4    -59.5599189 -0.329867E-05  0.294E-03    3.26       6.1  T
   5    -59.5599190 -0.103326E-06  0.154E-03    3.26      11.7  T
   6    -59.5599190 -0.103681E-07  0.613E-04    3.26      29.3  T
   7    -59.5599190 -0.338947E-08  0.410E-04    3.26      43.8  T
     SCC iter.                  ...        0 min,  0.010 sec
     gradient                   ...        0 min,  0.015 sec
 * total energy  :   -58.9590417 Eh     change       -0.1024290E-03 Eh
   gradient norm :     0.0037535 Eh/α   predicted    -0.7368646E-04 ( -28.06%)
   displ. norm   :     0.1641575 α      lambda       -0.8738440E-04
   maximum displ.:     0.1109078 α      in ANC's #2, #7, #1, ...

........................................................................
.............................. CYCLE    9 ..............................
........................................................................

 iter      E             dE          RMSdq      gap      omega  full diag
   1    -59.5608881 -0.595609E+02  0.421E-02    3.26       0.0  T
   2    -59.5608892 -0.112682E-05  0.249E-02    3.26       1.0  T
   3    -59.5608887  0.481417E-06  0.604E-03    3.26       3.0  T
   4    -59.5608896 -0.872875E-06  0.196E-03    3.26       9.2  T
   5    -59.5608896 -0.246469E-07  0.103E-03    3.26      17.4  T
   6    -59.5608896 -0.748195E-08  0.415E-04    3.26      43.3  T
   7    -59.5608896 -0.170311E-08  0.296E-04    3.26      60.6  T
     SCC iter.                  ...        0 min,  0.010 sec
     gradient                   ...        0 min,  0.048 sec
 * total energy  :   -58.9591059 Eh     change       -0.6429697E-04 Eh
   gradient norm :     0.0030611 Eh/α   predicted    -0.4488346E-04 ( -30.19%)
   displ. norm   :     0.1484356 α      lambda       -0.5807006E-04
   maximum displ.:     0.1077403 α      in ANC's #2, #1, #7, ...

........................................................................
.............................. CYCLE   10 ..............................
........................................................................

 iter      E             dE          RMSdq      gap      omega  full diag
   1    -59.5612486 -0.595612E+02  0.340E-02    3.27       0.0  T
   2    -59.5612492 -0.551700E-06  0.200E-02    3.26       1.0  T
   3    -59.5612492  0.496242E-08  0.328E-03    3.26       5.5  T
   4    -59.5612494 -0.207655E-06  0.138E-03    3.26      13.1  T
   5    -59.5612494 -0.374315E-08  0.610E-04    3.26      29.4  T
   6    -59.5612494 -0.384576E-08  0.261E-04    3.26      68.8  T
     SCC iter.                  ...        0 min,  0.009 sec
     gradient                   ...        0 min,  0.015 sec
 * total energy  :   -58.9591509 Eh     change       -0.4492601E-04 Eh
   gradient norm :     0.0025196 Eh/α   predicted    -0.2967563E-04 ( -33.95%)
   displ. norm   :     0.1351610 α      lambda       -0.4673119E-04
   maximum displ.:     0.1021104 α      in ANC's #2, #1, #3, ...

........................................................................
.............................. CYCLE   11 ..............................
........................................................................

 iter      E             dE          RMSdq      gap      omega  full diag
   1    -59.5615163 -0.595615E+02  0.288E-02    3.26       0.0  T
   2    -59.5615168 -0.461702E-06  0.169E-02    3.26       1.1  T
   3    -59.5615166  0.172323E-06  0.346E-03    3.26       5.2  T
   4    -59.5615169 -0.314765E-06  0.125E-03    3.26      14.4  T
   5    -59.5615169 -0.141434E-07  0.704E-04    3.26      25.5  T
   6    -59.5615169 -0.300116E-08  0.268E-04    3.26      66.9  T
     SCC iter.                  ...        0 min,  0.009 sec
     gradient                   ...        0 min,  0.015 sec
 * total energy  :   -58.9591882 Eh     change       -0.3728278E-04 Eh
   gradient norm :     0.0024073 Eh/α   predicted    -0.2379494E-04 ( -36.18%)
   displ. norm   :     0.1502227 α      lambda       -0.4586915E-04
   maximum displ.:     0.1142129 α      in ANC's #2, #1, #3, ...

........................................................................
.............................. CYCLE   12 ..............................
........................................................................

 iter      E             dE          RMSdq      gap      omega  full diag
   1    -59.5610421 -0.595610E+02  0.314E-02    3.26       0.0  T
   2    -59.5610426 -0.469284E-06  0.185E-02    3.26       1.0  T
   3    -59.5610426 -0.129456E-07  0.286E-03    3.26       6.3  T
   4    -59.5610427 -0.140352E-06  0.125E-03    3.26      14.4  T
   5    -59.5610427 -0.355687E-08  0.680E-04    3.26      26.4  T
   6    -59.5610427 -0.549835E-08  0.285E-04    3.26      62.9  T
     SCC iter.                  ...        0 min,  0.009 sec
     gradient                   ...        0 min,  0.015 sec
 * total energy  :   -58.9592242 Eh     change       -0.3600570E-04 Eh
   gradient norm :     0.0025206 Eh/α   predicted    -0.2345407E-04 ( -34.86%)
   displ. norm   :     0.1557498 α      lambda       -0.4967675E-04
   maximum displ.:     0.1168544 α      in ANC's #2, #1, #3, ...

........................................................................
.............................. CYCLE   13 ..............................
........................................................................

 iter      E             dE          RMSdq      gap      omega  full diag
   1    -59.5611437 -0.595611E+02  0.319E-02    3.26       0.0  T
   2    -59.5611443 -0.548500E-06  0.188E-02    3.26       1.0  T
   3    -59.5611439  0.367269E-06  0.435E-03    3.26       4.1  T
   4    -59.5611445 -0.546301E-06  0.138E-03    3.26      13.0  T
   5    -59.5611445 -0.192761E-07  0.793E-04    3.26      22.6  T
   6    -59.5611445 -0.323230E-08  0.321E-04    3.26      56.0  T
     SCC iter.                  ...        0 min,  0.009 sec
     gradient                   ...        0 min,  0.015 sec
 * total energy  :   -58.9592621 Eh     change       -0.3797640E-04 Eh
   gradient norm :     0.0028330 Eh/α   predicted    -0.2544428E-04 ( -33.00%)
   displ. norm   :     0.1666065 α      lambda       -0.4689256E-04
   maximum displ.:     0.1234612 α      in ANC's #2, #1, #3, ...

........................................................................
.............................. CYCLE   14 ..............................
........................................................................

 iter      E             dE          RMSdq      gap      omega  full diag
   1    -59.5611628 -0.595612E+02  0.334E-02    3.26       0.0  T
   2    -59.5611632 -0.425187E-06  0.198E-02    3.26       1.0  T
   3    -59.5611631  0.105010E-06  0.328E-03    3.26       5.5  T
   4    -59.5611634 -0.254766E-06  0.139E-03    3.26      13.0  T
   5    -59.5611634 -0.127711E-07  0.838E-04    3.26      21.4  T
   6    -59.5611634 -0.580049E-08  0.363E-04    3.26      49.4  T
     SCC iter.                  ...        0 min,  0.009 sec
     gradient                   ...        0 min,  0.015 sec
 * total energy  :   -58.9592991 Eh     change       -0.3700206E-04 Eh
   gradient norm :     0.0026206 Eh/α   predicted    -0.2410029E-04 ( -34.87%)
   displ. norm   :     0.1764631 α      lambda       -0.4720947E-04
   maximum displ.:     0.1322656 α      in ANC's #2, #3, #1, ...

........................................................................
.............................. CYCLE   15 ..............................
........................................................................

 iter      E             dE          RMSdq      gap      omega  full diag
   1    -59.5606560 -0.595607E+02  0.351E-02    3.26       0.0  T
   2    -59.5606564 -0.459052E-06  0.207E-02    3.26       1.0  T
   3    -59.5606565 -0.814198E-07  0.273E-03    3.26       6.6  T
   4    -59.5606566 -0.805014E-07  0.139E-03    3.26      12.9  T
   5    -59.5606566 -0.506719E-08  0.772E-04    3.26      23.3  T
   6    -59.5606566 -0.443936E-08  0.420E-04    3.26      42.8  T
     SCC iter.                  ...        0 min,  0.009 sec
     gradient                   ...        0 min,  0.015 sec
 * total energy  :   -58.9593311 Eh     change       -0.3193813E-04 Eh
   gradient norm :     0.0022484 Eh/α   predicted    -0.2434144E-04 ( -23.79%)
   displ. norm   :     0.1441205 α      lambda       -0.3692759E-04
   maximum displ.:     0.1058588 α      in ANC's #2, #3, #1, ...

........................................................................
.............................. CYCLE   16 ..............................
........................................................................

 iter      E             dE          RMSdq      gap      omega  full diag
   1    -59.5613019 -0.595613E+02  0.303E-02    3.26       0.0  T
   2    -59.5613022 -0.298136E-06  0.180E-02    3.26       1.0  T
   3    -59.5613019  0.278281E-06  0.371E-03    3.26       4.8  T
   4    -59.5613023 -0.392383E-06  0.124E-03    3.26      14.5  T
   5    -59.5613023 -0.133513E-07  0.804E-04    3.26      22.3  T
   6    -59.5613023 -0.397930E-08  0.396E-04    3.26      45.4  T
     SCC iter.                  ...        0 min,  0.042 sec
     gradient                   ...        0 min,  0.015 sec
 * total energy  :   -58.9593562 Eh     change       -0.2509555E-04 Eh
   gradient norm :     0.0014825 Eh/α   predicted    -0.1884893E-04 ( -24.89%)
   displ. norm   :     0.1718164 α      lambda       -0.2109332E-04
   maximum displ.:     0.1318344 α      in ANC's #2, #3, #1, ...

........................................................................
.............................. CYCLE   17 ..............................
........................................................................

 iter      E             dE          RMSdq      gap      omega  full diag
   1    -59.5614505 -0.595615E+02  0.343E-02    3.27       0.0  T
   2    -59.5614509 -0.350456E-06  0.203E-02    3.27       1.0  T
   3    -59.5614506  0.337779E-06  0.407E-03    3.27       4.4  T
   4    -59.5614510 -0.476274E-06  0.136E-03    3.27      13.2  T
   5    -59.5614510 -0.148932E-07  0.885E-04    3.27      20.3  T
   6    -59.5614511 -0.473909E-08  0.425E-04    3.27      42.2  T
     SCC iter.                  ...        0 min,  0.010 sec
     gradient                   ...        0 min,  0.015 sec
 * total energy  :   -58.9593769 Eh     change       -0.2072740E-04 Eh
   gradient norm :     0.0016356 Eh/α   predicted    -0.1068967E-04 ( -48.43%)
   displ. norm   :     0.0652007 α      lambda       -0.1359989E-04
   maximum displ.:     0.0412013 α      in ANC's #2, #5, #9, ...

........................................................................
.............................. CYCLE   18 ..............................
........................................................................

 iter      E             dE          RMSdq      gap      omega  full diag
   1    -59.5616504 -0.595617E+02  0.142E-02    3.27       0.0  T
   2    -59.5616505 -0.955317E-07  0.848E-03    3.27       2.1  T
   3    -59.5616503  0.153533E-06  0.235E-03    3.27       7.6  T
   4    -59.5616505 -0.194586E-06  0.582E-04    3.27      30.9  T
   5    -59.5616505 -0.240385E-08  0.365E-04    3.27      49.2  T
     SCC iter.                  ...        0 min,  0.007 sec
     gradient                   ...        0 min,  0.047 sec
 * total energy  :   -58.9593920 Eh     change       -0.1510561E-04 Eh
   gradient norm :     0.0012729 Eh/α   predicted    -0.6814478E-05 ( -54.89%)
   displ. norm   :     0.0800911 α      lambda       -0.1112504E-04
   maximum displ.:     0.0528831 α      in ANC's #2, #5, #3, ...

........................................................................
.............................. CYCLE   19 ..............................
........................................................................

 iter      E             dE          RMSdq      gap      omega  full diag
   1    -59.5611931 -0.595612E+02  0.175E-02    3.26       0.0  T
   2    -59.5611932 -0.123265E-06  0.104E-02    3.26       1.7  T
   3    -59.5611931  0.766568E-07  0.193E-03    3.26       9.3  T
   4    -59.5611932 -0.113483E-06  0.706E-04    3.26      25.4  T
   5    -59.5611932 -0.485747E-08  0.422E-04    3.26      42.5  T
     SCC iter.                  ...        0 min,  0.007 sec
     gradient                   ...        0 min,  0.015 sec
 * total energy  :   -58.9594028 Eh     change       -0.1075105E-04 Eh
   gradient norm :     0.0010187 Eh/α   predicted    -0.5582034E-05 ( -48.08%)
   displ. norm   :     0.0469308 α      lambda       -0.4517459E-05
   maximum displ.:     0.0322240 α      in ANC's #2, #5, #6, ...

........................................................................
.............................. CYCLE   20 ..............................
........................................................................

 iter      E             dE          RMSdq      gap      omega  full diag
   1    -59.5613806 -0.595614E+02  0.110E-02    3.26       0.0  T
   2    -59.5613806 -0.480879E-07  0.653E-03    3.26       2.7  T
   3    -59.5613806  0.445030E-08  0.942E-04    3.26      19.1  T
   4    -59.5613806 -0.158509E-07  0.428E-04    3.26      41.9  T
     SCC iter.                  ...        0 min,  0.006 sec
     gradient                   ...        0 min,  0.054 sec
 * total energy  :   -58.9594078 Eh     change       -0.5013202E-05 Eh
   gradient norm :     0.0008471 Eh/α   predicted    -0.2264583E-05 ( -54.83%)
   displ. norm   :     0.0544156 α      lambda       -0.4829684E-05
   maximum displ.:     0.0384664 α      in ANC's #2, #6, #5, ...
 * RMSD in coord.:     0.3945618 α      energy gain  -0.1222218E-01 Eh

generating ANC from exact Hessian ...
Using Lindh-Hessian (1995)
 Shifting diagonal of input Hessian by    9.0579589307887894E-003
 Lowest  eigenvalues of input Hessian
    0.000000    0.000000    0.000000    0.000000    0.000000    0.000000
    0.010000    0.010263    0.010550    0.013488    0.014550    0.016347
    0.017945    0.019698    0.020803    0.025870    0.029656    0.030608
 Highest eigenvalues
    1.946776    2.022490    2.155029    2.206711    2.322360    2.350698


........................................................................
.............................. CYCLE   21 ..............................
........................................................................

 iter      E             dE          RMSdq      gap      omega  full diag
   1    -59.5613282 -0.595613E+02  0.144E-02    3.26       0.0  T
   2    -59.5613282 -0.691062E-07  0.851E-03    3.26       2.1  T
   3    -59.5613282  0.296437E-07  0.148E-03    3.26      12.1  T
   4    -59.5613283 -0.532391E-07  0.568E-04    3.26      31.6  T
   5    -59.5613283 -0.207696E-08  0.334E-04    3.26      53.7  T
     SCC iter.                  ...        0 min,  0.007 sec
     gradient                   ...        0 min,  0.015 sec
 * total energy  :   -58.9594132 Eh     change       -0.5463470E-05 Eh
   gradient norm :     0.0008951 Eh/α   predicted     0.0000000E+00 (-100.00%)
   displ. norm   :     0.0161986 α      lambda       -0.2281251E-05
   maximum displ.:     0.0072847 α      in ANC's #2, #9, #1, ...

........................................................................
.............................. CYCLE   22 ..............................
........................................................................

 iter      E             dE          RMSdq      gap      omega  full diag
   1    -59.5613846 -0.595614E+02  0.602E-03    3.26       0.0  T
   2    -59.5613846 -0.231131E-07  0.348E-03    3.26       5.2  T
   3    -59.5613846  0.526926E-08  0.733E-04    3.26      24.5  T
   4    -59.5613846 -0.125584E-07  0.304E-04    3.26      59.2  T
     SCC iter.                  ...        0 min,  0.006 sec
     gradient                   ...        0 min,  0.046 sec
 * total energy  :   -58.9594167 Eh     change       -0.3475761E-05 Eh
   gradient norm :     0.0004222 Eh/α   predicted    -0.1438905E-05 ( -58.60%)
   displ. norm   :     0.0468595 α      lambda       -0.4582241E-05
   maximum displ.:     0.0223419 α      in ANC's #2, #1, #6, ...

   *** GEOMETRY OPTIMIZATION CONVERGED AFTER 22 ITERATIONS ***

------------------------------------------------------------------------
 total energy gain   :        -0.0122311 Eh       -7.6751 kcal/mol
 total RMSD          :         0.3954555 a0        0.2093 Å
 total power (kW/mol):        -1.4596733 (step)  -30.2215 (real)
------------------------------------------------------------------------

 ANCopt (total)                0 d,  0 h,  0 min,  1.063 sec
 optimizer setup                ...        0 min,  0.000 sec (  0.007%)
 model hessian                  ...        0 min,  0.024 sec (  2.263%)
 ANC generation                 ...        0 min,  0.002 sec (  0.163%)
 coordinate transformation      ...        0 min,  0.000 sec (  0.010%)
 single point calculation       ...        0 min,  1.031 sec ( 97.030%)
 optimization log               ...        0 min,  0.004 sec (  0.334%)
 hessian update                 ...        0 min,  0.000 sec (  0.018%)
 rational function              ...        0 min,  0.001 sec (  0.114%)

================
 final structure:
================
31
 xtb: 6.7.1 (edcfbbe)
N            4.91024656483860       -1.37585190761719       -0.13673114297022
C            3.95911737523248       -0.45139117695858       -0.33008780659388
N            4.28070427898497        0.66267313299237       -0.99416567621993
C            3.35489867239833        1.58295087730591       -1.18620443614748
Cl           3.87184574665355        2.95842207789611       -2.05210621773910
N            2.09437323117904        1.58880768719377       -0.81037689496677
C            1.76698858532415        0.47825203009187       -0.14504153490873
C            2.63793522001739       -0.59023988703317        0.13077552821865
N            1.95887595651533       -1.56538708471125        0.81672263041012
C            0.75122540364125       -1.10680068836000        0.94136511745779
N            0.56496377928134        0.12815046830618        0.38593247191298
C           -0.63741026155484        0.92499380598787        0.32092877431106
C           -1.43291653509556        0.65589920016261       -0.96608737589819
C           -2.88551142471185        0.74188140738138       -0.49601848480923
C           -2.78315684667758        0.29516642631072        0.97015540450411
O           -1.47509308630557        0.62843880722467        1.40450395940307
C           -3.07644492121169       -1.19868094045271        1.15826378790354
O           -2.36656373244014       -1.95214519584764        0.19917301585816
O           -3.40723964295700        2.04674762282932       -0.51228132480100
H            5.83044584244063       -1.21347369520699       -0.50419390324373
H            4.68070890278880       -2.22121770061215        0.35263673233402
H           -0.04498430554647       -1.62387368665571        1.43527819515632
H           -0.31349901994785        1.97543696449803        0.38000283948105
H           -1.19277422728385        1.37640920580155       -1.74482702698275
H           -1.22513597873449       -0.35464572639085       -1.31673696452493
H           -3.53280237462151        0.06425402623166       -1.06793845253400
H           -3.48604923752299        0.86899763207482        1.58359242952405
H           -4.15814545164822       -1.35765345124596        1.05040544176318
H           -2.77634996912540       -1.47651960913838        2.17652702971996
H           -2.51365281993628       -2.88943836831854        0.36442109540169
H           -3.35469972397396        2.39983774625912       -1.40758721102022

 Bond Distances (Angstroems)
 ---------------------------
N1-C2=1.3404         N1-H20=1.0041        N1-H21=1.0034        C2-N1=1.3404         C2-N3=1.3362         C2-C8=1.4061         
N3-C2=1.3362         N3-C4=1.3194         C4-N3=1.3194         C4-Cl5=1.7056        C4-N6=1.3154         Cl5-C4=1.7056        
N6-C4=1.3154         N6-C7=1.3354         C7-N6=1.3354         C7-C8=1.4058         C7-N11=1.3599        C8-C2=1.4061         
C8-C7=1.4058         C8-N9=1.3721         N9-C8=1.3721         N9-C10=1.2978        C10-N9=1.2978        C10-N11=1.3669       
C10-H22=1.0702       N11-C7=1.3599        N11-C10=1.3669       N11-C12=1.4439       C12-N11=1.4439       C12-C13=1.5368       
C12-O16=1.4014       C12-H23=1.1008       C13-C12=1.5368       C13-C14=1.5292       C13-H24=1.0878       C13-H25=1.0896       
C14-C13=1.5292       C14-C15=1.5361       C14-O19=1.4054       C14-H26=1.0978       C15-C14=1.5361       C15-O16=1.4180       
C15-C17=1.5339       C15-H27=1.0953       O16-C12=1.4014       O16-C15=1.4180       C17-C15=1.5339       C17-O18=1.4112       
C17-H28=1.0986       C17-H29=1.0973       O18-C17=1.4112       O18-H30=0.9630       O19-C14=1.4054       O19-H31=0.9638       
H20-N1=1.0041        H21-N1=1.0034        H22-C10=1.0702       H23-C12=1.1008       H24-C13=1.0878       H25-C13=1.0896       
H26-C14=1.0978       H27-C15=1.0953       H28-C17=1.0986       H29-C17=1.0973       H30-O18=0.9630       H31-O19=0.9638       
 C  H  Rav=1.0922 sigma=0.0093  Rmin=1.0702  Rmax=1.1008     8
 C  C  Rav=1.4913 sigma=0.0604  Rmin=1.4058  Rmax=1.5368     6
 N  H  Rav=1.0037 sigma=0.0003  Rmin=1.0034  Rmax=1.0041     2
 N  C  Rav=1.3487 sigma=0.0388  Rmin=1.2978  Rmax=1.4439    10
 O  H  Rav=0.9634 sigma=0.0004  Rmin=0.9630  Rmax=0.9638     2
 O  C  Rav=1.4090 sigma=0.0063  Rmin=1.4014  Rmax=1.4180     4
 Cl C  Rav=1.7056 sigma=0.0000  Rmin=1.7056  Rmax=1.7056     1

 selected bond angles (degree)
 --------------------
H20-N1-C2=119.08               H21-N1-C2=119.28               H21-N1-H20=121.63              N3-C2-N1=118.42                
C8-C2-N1=123.46                C8-C2-N3=118.12                C4-N3-C2=119.01                Cl5-C4-N3=115.07               
N6-C4-N3=129.34                N6-C4-Cl5=115.59               C7-N6-C4=111.94                C8-C7-N6=125.31                
N11-C7-N6=128.71               N11-C7-C8=105.98               C7-C8-C2=116.28                N9-C8-C2=134.35                
N9-C8-C7=109.37                C10-N9-C8=104.92               N11-C10-N9=114.02              H22-C10-N9=124.47              
H22-C10-N11=121.51             

 selected dihedral angles (degree)
 ---------------------------------
N3-C2-N1-H20=359.20           N3-C2-N1-H21=180.58           C8-C2-N1-H20=179.28           C8-C2-N1-H21=  0.66           
C4-N3-C2-N1=180.28            C4-N3-C2-C8=  0.21            Cl5-C4-N3-C2=180.32           N6-C4-N3-C2=  0.08            
C7-N6-C4-N3=  0.00            C7-N6-C4-Cl5=179.73           C8-C7-N6-C4=359.66            N11-C7-N6-C4=180.42           
C7-C8-C2-N1=179.41            C7-C8-C2-N3=359.49            N9-C8-C2-N1=359.29            N9-C8-C2-N3=179.36            
C2-C8-C7-N6=  0.61            C2-C8-C7-N11=179.99           N9-C8-C7-N6=180.71            N9-C8-C7-N11=  0.09           
C10-N9-C8-C2=180.23           C10-N9-C8-C7=  0.10           N11-C10-N9-C8=359.73          H22-C10-N9-C8=180.14          
           -------------------------------------------------
          |                Final Singlepoint                |
           -------------------------------------------------

          ...................................................
          :                      SETUP                      :
          :.................................................:
          :  # basis functions                  94          :
          :  # atomic orbitals                  93          :
          :  # shells                           51          :
          :  # electrons                       102          :
          :  max. iterations                   250          :
          :  Hamiltonian                  GFN2-xTB          :
          :  restarted?                      false          :
          :  GBSA solvation                  false          :
          :  PC potential                    false          :
          :  electronic temp.          300.0000000     K    :
          :  accuracy                    1.0000000          :
          :  -> integral cutoff          0.2500000E+02      :
          :  -> integral neglect         0.1000000E-07      :
          :  -> SCF convergence          0.1000000E-05 Eh   :
          :  -> wf. convergence          0.1000000E-03 e    :
          :  Broyden damping             0.4000000          :
          :  net charge                          0          :
          :  unpaired electrons                  0          :
          ...................................................

 iter      E             dE          RMSdq      gap      omega  full diag
   1    -59.5613846 -0.595614E+02  0.192E-04    3.26       0.0  T
   2    -59.5613846 -0.145448E-09  0.148E-04    3.26     121.7  T
   3    -59.5613846 -0.602611E-10  0.116E-04    3.26     155.5  T

   *** convergence criteria satisfied after 3 iterations ***

         #    Occupation            Energy/Eh            Energy/eV
      -------------------------------------------------------------
         1        2.0000           -1.0474288             -28.5020
       ...           ...                  ...                  ...
        45        2.0000           -0.4236407             -11.5278
        46        2.0000           -0.4164531             -11.3323
        47        2.0000           -0.4157679             -11.3136
        48        2.0000           -0.4116843             -11.2025
        49        2.0000           -0.3977261             -10.8227
        50        2.0000           -0.3851715             -10.4811
        51        2.0000           -0.3740265             -10.1778 (HOMO)
        52                         -0.2540630              -6.9134 (LUMO)
        53                         -0.2314360              -6.2977
        54                         -0.1970213              -5.3612
        55                         -0.1302073              -3.5431
        56                         -0.1033944              -2.8135
       ...                                ...                  ...
        93                          0.6546522              17.8140
      -------------------------------------------------------------
                  HL-Gap            0.1199635 Eh            3.2644 eV
             Fermi-level           -0.3140447 Eh           -8.5456 eV

 SCC (total)                   0 d,  0 h,  0 min,  0.025 sec
 SCC setup                      ...        0 min,  0.000 sec (  0.788%)
 Dispersion                     ...        0 min,  0.000 sec (  0.689%)
 classical contributions        ...        0 min,  0.000 sec (  0.308%)
 integral evaluation            ...        0 min,  0.006 sec ( 21.791%)
 iterations                     ...        0 min,  0.004 sec ( 17.515%)
 molecular gradient             ...        0 min,  0.015 sec ( 58.446%)
 printout                       ...        0 min,  0.000 sec (  0.434%)

         :::::::::::::::::::::::::::::::::::::::::::::::::::::
         ::                     SUMMARY                     ::
         :::::::::::::::::::::::::::::::::::::::::::::::::::::
         :: total energy             -58.959416712884 Eh    ::
         :: gradient norm              0.000423849088 Eh/a0 ::
         :: HOMO-LUMO gap              3.264371945170 eV    ::
         ::.................................................::
         :: SCC energy               -59.561275227967 Eh    ::
         :: -> isotropic ES            0.114565372460 Eh    ::
         :: -> anisotropic ES          0.000424114670 Eh    ::
         :: -> anisotropic XC          0.017102436367 Eh    ::
         :: -> dispersion             -0.033903401194 Eh    ::
         :: repulsion energy           0.601858515083 Eh    ::
         :: add. restraining           0.000000000000 Eh    ::
         :: total charge              -0.000000000000 e     ::
         :::::::::::::::::::::::::::::::::::::::::::::::::::::

           -------------------------------------------------
          |                Property Printout                |
           -------------------------------------------------

    * Orbital Energies and Occupations

         #    Occupation            Energy/Eh            Energy/eV
      -------------------------------------------------------------
         1        2.0000           -1.0474288             -28.5020
       ...           ...                  ...                  ...
        39        2.0000           -0.4708155             -12.8115
        40        2.0000           -0.4631942             -12.6042
        41        2.0000           -0.4469516             -12.1622
        42        2.0000           -0.4376731             -11.9097
        43        2.0000           -0.4360264             -11.8649
        44        2.0000           -0.4306266             -11.7179
        45        2.0000           -0.4236407             -11.5278
        46        2.0000           -0.4164531             -11.3323
        47        2.0000           -0.4157679             -11.3136
        48        2.0000           -0.4116843             -11.2025
        49        2.0000           -0.3977261             -10.8227
        50        2.0000           -0.3851715             -10.4811
        51        2.0000           -0.3740265             -10.1778 (HOMO)
        52                         -0.2540630              -6.9134 (LUMO)
        53                         -0.2314360              -6.2977
        54                         -0.1970213              -5.3612
        55                         -0.1302073              -3.5431
        56                         -0.1033944              -2.8135
        57                         -0.0230222              -0.6265
        58                         -0.0031103              -0.0846
        59                          0.0054999               0.1497
        60                          0.0107920               0.2937
        61                          0.0201806               0.5491
        62                          0.0251463               0.6843
       ...                                ...                  ...
        93                          0.6546522              17.8140
      -------------------------------------------------------------
                  HL-Gap            0.1199635 Eh            3.2644 eV
             Fermi-level           -0.3140447 Eh           -8.5456 eV

     #   Z          covCN         q      C6AA      α(0)
     1   7 N        2.647    -0.233    26.104     7.588
     2   6 C        2.882     0.173    24.287     8.079
     3   7 N        1.928    -0.307    28.793     7.956
     4   6 C        2.920     0.264    22.561     7.789
     5  17 Cl       1.052    -0.129   103.190    15.541
     6   7 N        1.907    -0.314    28.975     7.981
     7   6 C        3.182     0.133    24.690     8.111
     8   6 C        3.222     0.009    27.080     8.459
     9   7 N        1.885    -0.275    27.993     7.843
    10   6 C        3.186     0.107    25.202     8.192
    11   7 N        2.828    -0.057    22.332     7.019
    12   6 C        3.719     0.181    17.820     6.030
    13   6 C        3.821    -0.084    22.090     6.689
    14   6 C        3.742     0.116    18.748     6.177
    15   6 C        3.782     0.103    18.900     6.193
    16   8 O        1.703    -0.306    19.095     5.900
    17   6 C        3.673     0.072    19.608     6.346
    18   8 O        1.655    -0.441    21.657     6.282
    19   8 O        1.656    -0.440    21.646     6.281
    20   1 H        0.860     0.202     1.093     1.638
    21   1 H        0.861     0.202     1.098     1.641
    22   1 H        0.927     0.065     2.138     2.286
    23   1 H        0.923     0.063     2.161     2.299
    24   1 H        0.925     0.057     2.236     2.338
    25   1 H        0.925     0.069     2.096     2.264
    26   1 H        0.924     0.033     2.545     2.495
    27   1 H        0.924     0.067     2.121     2.277
    28   1 H        0.923     0.029     2.596     2.520
    29   1 H        0.924     0.041     2.437     2.441
    30   1 H        0.805     0.297     0.729     1.341
    31   1 H        0.805     0.300     0.721     1.334

 Mol. C6AA /au·bohr⁶  :      12607.093834
 Mol. C8AA /au·bohr⁸  :     308073.989621
 Mol. α(0) /au        :        169.330235


Wiberg/Mayer (AO) data.
largest (>0.10) Wiberg bond orders for each atom

 ---------------------------------------------------------------------------
     #   Z sym  total        # sym  WBO       # sym  WBO       # sym  WBO
 ---------------------------------------------------------------------------
     1   7 N    3.396 --     2 C    1.275    21 H    0.943    20 H    0.940
     2   6 C    3.971 --     3 N    1.319     1 N    1.275     8 C    1.223
     3   7 N    3.034 --     4 C    1.385     2 C    1.319
     4   6 C    3.937 --     6 N    1.421     3 N    1.385     5 Cl   0.992
     5  17 Cl   1.155 --     4 C    0.992
     6   7 N    3.024 --     4 C    1.421     7 C    1.281
     7   6 C    3.958 --     6 N    1.281     8 C    1.270    11 N    1.180
     8   6 C    3.972 --     7 C    1.270     2 C    1.223     9 N    1.210
     9   7 N    3.019 --    10 C    1.597     8 C    1.210    11 N    0.103
    10   6 C    3.949 --     9 N    1.597    11 N    1.202    22 H    0.960
    11   7 N    3.612 --    10 C    1.202     7 C    1.180    12 C    0.962
                             9 N    0.103
    12   6 C    3.939 --    16 O    0.991    13 C    0.972    11 N    0.962
                            23 H    0.950
    13   6 C    3.992 --    14 C    0.987    24 H    0.975    12 C    0.972
                            25 H    0.972
    14   6 C    3.961 --    19 O    0.998    13 C    0.987    15 C    0.972
                            26 H    0.960
    15   6 C    3.950 --    17 C    0.984    14 C    0.972    16 O    0.969
                            27 H    0.957
    16   8 O    2.095 --    12 C    0.991    15 C    0.969
    17   6 C    3.960 --    18 O    0.999    15 C    0.984    28 H    0.969
                            29 H    0.969
    18   8 O    1.954 --    17 C    0.999    30 H    0.897
    19   8 O    1.962 --    14 C    0.998    31 H    0.892
    20   1 H    0.959 --     1 N    0.940
    21   1 H    0.959 --     1 N    0.943
    22   1 H    0.995 --    10 C    0.960
    23   1 H    0.996 --    12 C    0.950
    24   1 H    0.997 --    13 C    0.975
    25   1 H    0.995 --    13 C    0.972
    26   1 H    0.998 --    14 C    0.960
    27   1 H    0.995 --    15 C    0.957
    28   1 H    0.999 --    17 C    0.969
    29   1 H    0.998 --    17 C    0.969
    30   1 H    0.912 --    18 O    0.897
    31   1 H    0.910 --    19 O    0.892
 ---------------------------------------------------------------------------

Topologies differ in total number of bonds
Writing topology from bond orders to xtbtopo.mol

molecular dipole:
                 x           y           z       tot (Debye)
 q only:       -0.958      -1.792       0.128
   full:       -1.369      -2.094       0.136       6.368
molecular quadrupole (traceless):
                xx          xy          yy          xz          yz          zz
 q only:       11.027     -12.906      -4.631       7.299      -1.042      -6.396
  q+dip:        9.989     -11.436      -5.228      10.568       0.116      -4.760
   full:        8.730     -10.966      -5.414      10.741       0.819      -3.316

           -------------------------------------------------
          |                Geometry Summary                 |
           -------------------------------------------------

      molecular mass/u    :      285.6873164
   center of mass at/Å    :        0.7784830       0.4203832      -0.2084249
  moments of inertia/u·Å² :        0.7996992E+03   0.2503553E+04   0.3140462E+04
rotational constants/cm⁻¹ :        0.2107997E-01   0.6733484E-02   0.5367883E-02

 * 33 selected distances

     #   Z          #   Z                                           value/Å
     1   7 N        2   6 C                                       1.3403960
     2   6 C        3   7 N                                       1.3362474
     3   7 N        4   6 C                                       1.3194341
     4   6 C        5  17 Cl                                      1.7055620 (max)
     4   6 C        6   7 N                                       1.3153727
     6   7 N        7   6 C                                       1.3353599
     2   6 C        8   6 C                                       1.4061282
     7   6 C        8   6 C                                       1.4058088
     8   6 C        9   7 N                                       1.3720632
     9   7 N       10   6 C                                       1.2977894
     7   6 C       11   7 N                                       1.3599149
    10   6 C       11   7 N                                       1.3668590
    11   7 N       12   6 C                                       1.4439143
    12   6 C       13   6 C                                       1.5367671
    13   6 C       14   6 C                                       1.5291795
    14   6 C       15   6 C                                       1.5361305
    12   6 C       16   8 O                                       1.4013540
    15   6 C       16   8 O                                       1.4180128
    15   6 C       17   6 C                                       1.5339436
    17   6 C       18   8 O                                       1.4112034
    14   6 C       19   8 O                                       1.4053971
     1   7 N       20   1 H                                       1.0040729
     1   7 N       21   1 H                                       1.0034002
    10   6 C       22   1 H                                       1.0701704
    12   6 C       23   1 H                                       1.1008357
    13   6 C       24   1 H                                       1.0877677
    13   6 C       25   1 H                                       1.0896463
    14   6 C       26   1 H                                       1.0978420
    15   6 C       27   1 H                                       1.0952831
    17   6 C       28   1 H                                       1.0986273
    17   6 C       29   1 H                                       1.0973202
    18   8 O       30   1 H                                       0.9630477 (min)
    19   8 O       31   1 H                                       0.9638495

 * 7 distinct bonds (by element types)

   Z      Z             #   av. dist./Å        max./Å        min./Å
   1 H    6 C           8     1.0921866     1.1008357     1.0701704
   6 C    6 C           6     1.4913263     1.5367671     1.4058088
   1 H    7 N           2     1.0037366     1.0040729     1.0034002
   6 C    7 N          10     1.3487351     1.4439143     1.2977894
   1 H    8 O           2     0.9634486     0.9638495     0.9630477
   6 C    8 O           4     1.4089918     1.4180128     1.4013540
   6 C   17 Cl          1     1.7055620     1.7055620     1.7055620


optimized geometry written to: xtbopt.xyz


           -------------------------------------------------
          | TOTAL ENERGY              -58.959416712884 Eh   |
          | GRADIENT NORM               0.000423849088 Eh/α |
          | HOMO-LUMO GAP               3.264371945170 eV   |
           -------------------------------------------------

------------------------------------------------------------------------
 * finished run on 2025/05/15 at 16:21:38.316     
------------------------------------------------------------------------
 total:
 * wall-time:     0 d,  0 h,  0 min,  1.151 sec
 *  cpu-time:     0 d,  0 h,  0 min,  0.763 sec
 * ratio c/w:     0.663 speedup
 SCF:
 * wall-time:     0 d,  0 h,  0 min,  0.049 sec
 *  cpu-time:     0 d,  0 h,  0 min,  0.043 sec
 * ratio c/w:     0.871 speedup
 ANC optimizer:
 * wall-time:     0 d,  0 h,  0 min,  1.090 sec
 *  cpu-time:     0 d,  0 h,  0 min,  0.710 sec
 * ratio c/w:     0.652 speedup



----- Single-point -----
      -----------------------------------------------------------      
     |                   =====================                   |     
     |                           x T B                           |     
     |                   =====================                   |     
     |                         S. Grimme                         |     
     |          Mulliken Center for Theoretical Chemistry        |     
     |                    University of Bonn                     |     
      -----------------------------------------------------------      

   * xtb version 6.7.1 (edcfbbe) compiled by 'conda@3ef47c1a292c' on 2024-11-25

   xtb is free software: you can redistribute it and/or modify it under
   the terms of the GNU Lesser General Public License as published by
   the Free Software Foundation, either version 3 of the License, or
   (at your option) any later version.
   
   xtb is distributed in the hope that it will be useful,
   but WITHOUT ANY WARRANTY; without even the implied warranty of
   MERCHANTABILITY or FITNESS FOR A PARTICULAR PURPOSE.  See the
   GNU Lesser General Public License for more details.
   
   Cite this work as:
   * C. Bannwarth, E. Caldeweyher, S. Ehlert, A. Hansen, P. Pracht,
     J. Seibert, S. Spicher, S. Grimme, WIREs Comput. Mol. Sci., 2020, 11,
     e01493. DOI: 10.1002/wcms.1493
   
   for GFN2-xTB:
   * C. Bannwarth, S. Ehlert and S. Grimme., J. Chem. Theory Comput., 2019,
     15, 1652-1671. DOI: 10.1021/acs.jctc.8b01176
   for GFN1-xTB:
   * S. Grimme, C. Bannwarth, P. Shushkov, J. Chem. Theory Comput., 2017,
     13, 1989-2009. DOI: 10.1021/acs.jctc.7b00118
   for GFN0-xTB:
   * P. Pracht, E. Caldeweyher, S. Ehlert, S. Grimme, ChemRxiv, 2019, preprint.
     DOI: 10.26434/chemrxiv.8326202.v1
   for GFN-FF:
   * S. Spicher and S. Grimme, Angew. Chem. Int. Ed., 2020, 59, 15665-15673.
     DOI: 10.1002/anie.202004239
   
   for ALPB and GBSA implicit solvation:
   * S. Ehlert, M. Stahn, S. Spicher, S. Grimme, J. Chem. Theory Comput.,
     2021, 17, 4250-4261. DOI: 10.1021/acs.jctc.1c00471
   
   for ddCOSMO and CPCM-X implicit solvation:
   * M. Stahn, S. Ehlert, S. Grimme, J. Phys. Chem. A,
     2023, XX, XXXX-XXXX. DOI: 10.1021/acs.jpca.3c04382
   
   for DFT-D4:
   * E. Caldeweyher, C. Bannwarth and S. Grimme, J. Chem. Phys., 2017,
     147, 034112. DOI: 10.1063/1.4993215
   * E. Caldeweyher, S. Ehlert, A. Hansen, H. Neugebauer, S. Spicher,
     C. Bannwarth and S. Grimme, J. Chem. Phys., 2019, 150, 154122.
     DOI: 10.1063/1.5090222
   * E. Caldeweyher, J.-M. Mewes, S. Ehlert and S. Grimme, Phys. Chem. Chem. Phys.
     2020, 22, 8499-8512. DOI: 10.1039/D0CP00502A
   
   for sTDA-xTB:
   * S. Grimme and C. Bannwarth, J. Chem. Phys., 2016, 145, 054103.
     DOI: 10.1063/1.4959605
   
   in the mass-spec context:
   * V. Asgeirsson, C. Bauer and S. Grimme, Chem. Sci., 2017, 8, 4879.
     DOI: 10.1039/c7sc00601b
   * J. Koopman and S. Grimme, ACS Omega 2019, 4, 12, 15120-15133.
     DOI: 10.1021/acsomega.9b02011
   
   for metadynamics refer to:
   * S. Grimme, J. Chem. Theory Comput., 2019, 155, 2847-2862
     DOI: 10.1021/acs.jctc.9b00143
   
   for SPH calculations refer to:
   * S. Spicher and S. Grimme, J. Chem. Theory Comput., 2021, 17, 1701-1714
     DOI: 10.1021/acs.jctc.0c01306
   
   for ONIOM refer to:
   * C. Plett, A. Katbashev, S. Ehlert, S. Grimme, M. Bursch,
     Phys. Chem. Chem. Phys., 2023, 25, 17860-17868. DOI: 10.1039/D3CP02178E
   
   for DIPRO refer to:
   * J. Kohn, N. Gildemeister, S. Grimme, D. Fazzi, A. Hansen,
     J. Chem. Phys., 2023, just accepted.
   
   for PTB refer to:
   * S. Grimme, M. Mueller, A. Hansen, J. Chem. Phys., 2023, 158, 124111.
     DOI: 10.1063/5.0137838
   
   with help from (in alphabetical order)
   P. Atkinson, C. Bannwarth, F. Bohle, G. Brandenburg, E. Caldeweyher
   M. Checinski, S. Dohm, S. Ehlert, S. Ehrlich, I. Gerasimov, C. Hölzer
   A. Katbashev, J. Kohn, J. Koopman, C. Lavigne, S. Lehtola, F. März, M. Müller,
   F. Musil, H. Neugebauer, J. Pisarek, C. Plett, P. Pracht, F. Pultar,
   J. Seibert, P. Shushkov, S. Spicher, M. Stahn, M. Steiner, T. Strunk,
   J. Stückrath, T. Rose, and J. Unsleber
   
 * started run on 2025/05/15 at 16:21:38.333     
   ID    Z sym.   atoms
    1    7 N      1, 3, 6, 9, 11
    2    6 C      2, 4, 7, 8, 10, 12-15, 17
    3   17 Cl     5
    4    8 O      16, 18, 19
    5    1 H      20-31

           -------------------------------------------------
          |                Calculation Setup                |
           -------------------------------------------------

          program call               : xtb /rds/general/user/hgt20/home/callum/QDESCP/Cladribine_rdkit_conf_3/Cladribine_rdkit_conf_3.xyz --acc 1 --gfn 2 --chrg 0 --uhf 0 --etemp 300 --input /rds/general/user/hgt20/home/callum/QDESCP/Cladribine_rdkit_conf_3/Cladribine_rdkit_conf_3_xtb.inp -P 1
          hostname                   : login-c
          coordinate file            : /rds/general/user/hgt20/home/callum/QDESCP/Cladribine_rdkit_conf_3/Cladribine_rdkit_conf_3.xyz
          omp threads                :                     1


           -------------------------------------------------
          |                 G F N 2 - x T B                 |
           -------------------------------------------------

        Reference                      10.1021/acs.jctc.8b01176
      * Hamiltonian:
        H0-scaling (s, p, d)           1.850000    2.230000    2.230000
        zeta-weighting                 0.500000
      * Dispersion:
        s8                             2.700000
        a1                             0.520000
        a2                             5.000000
        s9                             5.000000
      * Repulsion:
        kExp                           1.500000    1.000000
        rExp                           1.000000
      * Coulomb:
        alpha                          2.000000
        third order                    shell-resolved
        anisotropic                    true
        a3                             3.000000
        a5                             4.000000
        cn-shift                       1.200000
        cn-exp                         4.000000
        max-rad                        5.000000

q/qsh data taken from xtbrestart
CAMM data taken from xtbrestart

          ...................................................
          :                      SETUP                      :
          :.................................................:
          :  # basis functions                  94          :
          :  # atomic orbitals                  93          :
          :  # shells                           51          :
          :  # electrons                       102          :
          :  max. iterations                   250          :
          :  Hamiltonian                  GFN2-xTB          :
          :  restarted?                       true          :
          :  GBSA solvation                  false          :
          :  PC potential                    false          :
          :  electronic temp.          300.0000000     K    :
          :  accuracy                    1.0000000          :
          :  -> integral cutoff          0.2500000E+02      :
          :  -> integral neglect         0.1000000E-07      :
          :  -> SCF convergence          0.1000000E-05 Eh   :
          :  -> wf. convergence          0.1000000E-03 e    :
          :  Broyden damping             0.4000000          :
          :  net charge                          0          :
          :  unpaired electrons                  0          :
          ...................................................

 iter      E             dE          RMSdq      gap      omega  full diag
   1    -59.5613846 -0.595614E+02  0.546E-05    3.26       0.0  T
   2    -59.5613846 -0.996891E-11  0.433E-05    3.26     414.8  T
   3    -59.5613846 -0.606803E-11  0.301E-05    3.26     597.1  T

   *** convergence criteria satisfied after 3 iterations ***

         #    Occupation            Energy/Eh            Energy/eV
      -------------------------------------------------------------
         1        2.0000           -1.0474289             -28.5020
       ...           ...                  ...                  ...
        45        2.0000           -0.4236410             -11.5279
        46        2.0000           -0.4164533             -11.3323
        47        2.0000           -0.4157682             -11.3136
        48        2.0000           -0.4116845             -11.2025
        49        2.0000           -0.3977267             -10.8227
        50        2.0000           -0.3851719             -10.4811
        51        2.0000           -0.3740268             -10.1778 (HOMO)
        52                         -0.2540634              -6.9134 (LUMO)
        53                         -0.2314364              -6.2977
        54                         -0.1970212              -5.3612
        55                         -0.1302084              -3.5431
        56                         -0.1033950              -2.8135
       ...                                ...                  ...
        93                          0.6546517              17.8140
      -------------------------------------------------------------
                  HL-Gap            0.1199634 Eh            3.2644 eV
             Fermi-level           -0.3140451 Eh           -8.5456 eV

 SCC (total)                   0 d,  0 h,  0 min,  0.054 sec
 SCC setup                      ...        0 min,  0.000 sec (  0.616%)
 Dispersion                     ...        0 min,  0.000 sec (  0.522%)
 classical contributions        ...        0 min,  0.000 sec (  0.166%)
 integral evaluation            ...        0 min,  0.006 sec ( 10.769%)
 iterations                     ...        0 min,  0.006 sec ( 10.958%)
 molecular gradient             ...        0 min,  0.041 sec ( 76.644%)
 printout                       ...        0 min,  0.000 sec (  0.311%)

         :::::::::::::::::::::::::::::::::::::::::::::::::::::
         ::                     SUMMARY                     ::
         :::::::::::::::::::::::::::::::::::::::::::::::::::::
         :: total energy             -58.959416713061 Eh    ::
         :: gradient norm              0.000423994596 Eh/a0 ::
         :: HOMO-LUMO gap              3.264370202553 eV    ::
         ::.................................................::
         :: SCC energy               -59.561275228144 Eh    ::
         :: -> isotropic ES            0.114565791677 Eh    ::
         :: -> anisotropic ES          0.000424105986 Eh    ::
         :: -> anisotropic XC          0.017102151342 Eh    ::
         :: -> dispersion             -0.033903402649 Eh    ::
         :: repulsion energy           0.601858515083 Eh    ::
         :: add. restraining           0.000000000000 Eh    ::
         :: total charge              -0.000000000000 e     ::
         :::::::::::::::::::::::::::::::::::::::::::::::::::::

           -------------------------------------------------
          |                Property Printout                |
           -------------------------------------------------

    * Orbital Energies and Occupations

         #    Occupation            Energy/Eh            Energy/eV
      -------------------------------------------------------------
         1        2.0000           -1.0474289             -28.5020
       ...           ...                  ...                  ...
        39        2.0000           -0.4708156             -12.8115
        40        2.0000           -0.4631943             -12.6042
        41        2.0000           -0.4469517             -12.1622
        42        2.0000           -0.4376732             -11.9097
        43        2.0000           -0.4360266             -11.8649
        44        2.0000           -0.4306267             -11.7179
        45        2.0000           -0.4236410             -11.5279
        46        2.0000           -0.4164533             -11.3323
        47        2.0000           -0.4157682             -11.3136
        48        2.0000           -0.4116845             -11.2025
        49        2.0000           -0.3977267             -10.8227
        50        2.0000           -0.3851719             -10.4811
        51        2.0000           -0.3740268             -10.1778 (HOMO)
        52                         -0.2540634              -6.9134 (LUMO)
        53                         -0.2314364              -6.2977
        54                         -0.1970212              -5.3612
        55                         -0.1302084              -3.5431
        56                         -0.1033950              -2.8135
        57                         -0.0230221              -0.6265
        58                         -0.0031102              -0.0846
        59                          0.0054993               0.1496
        60                          0.0107919               0.2937
        61                          0.0201804               0.5491
        62                          0.0251461               0.6843
       ...                                ...                  ...
        93                          0.6546517              17.8140
      -------------------------------------------------------------
                  HL-Gap            0.1199634 Eh            3.2644 eV
             Fermi-level           -0.3140451 Eh           -8.5456 eV

     #   Z          covCN         q      C6AA      α(0)
     1   7 N        2.647    -0.233    26.104     7.588
     2   6 C        2.882     0.173    24.287     8.079
     3   7 N        1.928    -0.307    28.793     7.956
     4   6 C        2.920     0.264    22.561     7.789
     5  17 Cl       1.052    -0.129   103.190    15.541
     6   7 N        1.907    -0.314    28.975     7.981
     7   6 C        3.182     0.133    24.690     8.111
     8   6 C        3.222     0.009    27.080     8.459
     9   7 N        1.885    -0.275    27.993     7.843
    10   6 C        3.186     0.107    25.202     8.192
    11   7 N        2.828    -0.057    22.332     7.019
    12   6 C        3.719     0.181    17.820     6.030
    13   6 C        3.821    -0.084    22.090     6.689
    14   6 C        3.742     0.116    18.748     6.177
    15   6 C        3.782     0.103    18.900     6.193
    16   8 O        1.703    -0.306    19.095     5.900
    17   6 C        3.673     0.072    19.608     6.346
    18   8 O        1.655    -0.441    21.657     6.282
    19   8 O        1.656    -0.440    21.646     6.281
    20   1 H        0.860     0.202     1.093     1.638
    21   1 H        0.861     0.202     1.098     1.641
    22   1 H        0.927     0.065     2.138     2.286
    23   1 H        0.923     0.063     2.161     2.299
    24   1 H        0.925     0.057     2.236     2.338
    25   1 H        0.925     0.069     2.096     2.264
    26   1 H        0.924     0.033     2.545     2.495
    27   1 H        0.924     0.067     2.121     2.277
    28   1 H        0.923     0.029     2.596     2.520
    29   1 H        0.924     0.041     2.437     2.441
    30   1 H        0.805     0.297     0.729     1.341
    31   1 H        0.805     0.300     0.721     1.334

 Mol. C6AA /au·bohr⁶  :      12607.092926
 Mol. C8AA /au·bohr⁸  :     308073.974356
 Mol. α(0) /au        :        169.330228


Wiberg/Mayer (AO) data.
largest (>0.10) Wiberg bond orders for each atom

 ---------------------------------------------------------------------------
     #   Z sym  total        # sym  WBO       # sym  WBO       # sym  WBO
 ---------------------------------------------------------------------------
     1   7 N    3.396 --     2 C    1.275    21 H    0.943    20 H    0.940
     2   6 C    3.971 --     3 N    1.319     1 N    1.275     8 C    1.223
     3   7 N    3.034 --     4 C    1.385     2 C    1.319
     4   6 C    3.937 --     6 N    1.421     3 N    1.385     5 Cl   0.992
     5  17 Cl   1.155 --     4 C    0.992
     6   7 N    3.024 --     4 C    1.421     7 C    1.281
     7   6 C    3.958 --     6 N    1.281     8 C    1.270    11 N    1.180
     8   6 C    3.972 --     7 C    1.270     2 C    1.223     9 N    1.210
     9   7 N    3.019 --    10 C    1.597     8 C    1.210    11 N    0.103
    10   6 C    3.949 --     9 N    1.597    11 N    1.202    22 H    0.960
    11   7 N    3.612 --    10 C    1.202     7 C    1.180    12 C    0.962
                             9 N    0.103
    12   6 C    3.939 --    16 O    0.991    13 C    0.972    11 N    0.962
                            23 H    0.950
    13   6 C    3.992 --    14 C    0.987    24 H    0.975    12 C    0.972
                            25 H    0.972
[...]
      -----------------------------------------------------------      

   * xtb version 6.7.1 (edcfbbe) compiled by 'conda@3ef47c1a292c' on 2024-11-25

   xtb is free software: you can redistribute it and/or modify it under
   the terms of the GNU Lesser General Public License as published by
   the Free Software Foundation, either version 3 of the License, or
   (at your option) any later version.
   
   xtb is distributed in the hope that it will be useful,
   but WITHOUT ANY WARRANTY; without even the implied warranty of
   MERCHANTABILITY or FITNESS FOR A PARTICULAR PURPOSE.  See the
   GNU Lesser General Public License for more details.
   
   Cite this work as:
   * C. Bannwarth, E. Caldeweyher, S. Ehlert, A. Hansen, P. Pracht,
     J. Seibert, S. Spicher, S. Grimme, WIREs Comput. Mol. Sci., 2020, 11,
     e01493. DOI: 10.1002/wcms.1493
   
   for GFN2-xTB:
   * C. Bannwarth, S. Ehlert and S. Grimme., J. Chem. Theory Comput., 2019,
     15, 1652-1671. DOI: 10.1021/acs.jctc.8b01176
   for GFN1-xTB:
   * S. Grimme, C. Bannwarth, P. Shushkov, J. Chem. Theory Comput., 2017,
     13, 1989-2009. DOI: 10.1021/acs.jctc.7b00118
   for GFN0-xTB:
   * P. Pracht, E. Caldeweyher, S. Ehlert, S. Grimme, ChemRxiv, 2019, preprint.
     DOI: 10.26434/chemrxiv.8326202.v1
   for GFN-FF:
   * S. Spicher and S. Grimme, Angew. Chem. Int. Ed., 2020, 59, 15665-15673.
     DOI: 10.1002/anie.202004239
   
   for ALPB and GBSA implicit solvation:
   * S. Ehlert, M. Stahn, S. Spicher, S. Grimme, J. Chem. Theory Comput.,
     2021, 17, 4250-4261. DOI: 10.1021/acs.jctc.1c00471
   
   for ddCOSMO and CPCM-X implicit solvation:
   * M. Stahn, S. Ehlert, S. Grimme, J. Phys. Chem. A,
     2023, XX, XXXX-XXXX. DOI: 10.1021/acs.jpca.3c04382
   
   for DFT-D4:
   * E. Caldeweyher, C. Bannwarth and S. Grimme, J. Chem. Phys., 2017,
     147, 034112. DOI: 10.1063/1.4993215
   * E. Caldeweyher, S. Ehlert, A. Hansen, H. Neugebauer, S. Spicher,
     C. Bannwarth and S. Grimme, J. Chem. Phys., 2019, 150, 154122.
     DOI: 10.1063/1.5090222
   * E. Caldeweyher, J.-M. Mewes, S. Ehlert and S. Grimme, Phys. Chem. Chem. Phys.
     2020, 22, 8499-8512. DOI: 10.1039/D0CP00502A
   
   for sTDA-xTB:
   * S. Grimme and C. Bannwarth, J. Chem. Phys., 2016, 145, 054103.
     DOI: 10.1063/1.4959605
   
   in the mass-spec context:
   * V. Asgeirsson, C. Bauer and S. Grimme, Chem. Sci., 2017, 8, 4879.
     DOI: 10.1039/c7sc00601b
   * J. Koopman and S. Grimme, ACS Omega 2019, 4, 12, 15120-15133.
     DOI: 10.1021/acsomega.9b02011
   
   for metadynamics refer to:
   * S. Grimme, J. Chem. Theory Comput., 2019, 155, 2847-2862
     DOI: 10.1021/acs.jctc.9b00143
   
   for SPH calculations refer to:
   * S. Spicher and S. Grimme, J. Chem. Theory Comput., 2021, 17, 1701-1714
     DOI: 10.1021/acs.jctc.0c01306
   
   for ONIOM refer to:
   * C. Plett, A. Katbashev, S. Ehlert, S. Grimme, M. Bursch,
     Phys. Chem. Chem. Phys., 2023, 25, 17860-17868. DOI: 10.1039/D3CP02178E
   
   for DIPRO refer to:
   * J. Kohn, N. Gildemeister, S. Grimme, D. Fazzi, A. Hansen,
     J. Chem. Phys., 2023, just accepted.
   
   for PTB refer to:
   * S. Grimme, M. Mueller, A. Hansen, J. Chem. Phys., 2023, 158, 124111.
     DOI: 10.1063/5.0137838
   
   with help from (in alphabetical order)
   P. Atkinson, C. Bannwarth, F. Bohle, G. Brandenburg, E. Caldeweyher
   M. Checinski, S. Dohm, S. Ehlert, S. Ehrlich, I. Gerasimov, C. Hölzer
   A. Katbashev, J. Kohn, J. Koopman, C. Lavigne, S. Lehtola, F. März, M. Müller,
   F. Musil, H. Neugebauer, J. Pisarek, C. Plett, P. Pracht, F. Pultar,
   J. Seibert, P. Shushkov, S. Spicher, M. Stahn, M. Steiner, T. Strunk,
   J. Stückrath, T. Rose, and J. Unsleber
   
 * started run on 2025/05/15 at 16:21:39.889     
   ID    Z sym.   atoms
    1    7 N      1, 3, 6, 9, 11
    2    6 C      2, 4, 7, 8, 10, 12-15, 17
    3   17 Cl     5
    4    8 O      16, 18, 19
    5    1 H      20-31

           -------------------------------------------------
          |                Calculation Setup                |
           -------------------------------------------------

          program call               : xtb /rds/general/user/hgt20/home/callum/QDESCP/Cladribine_rdkit_conf_3/Cladribine_rdkit_conf_3.xyz --acc 1 --gfn 2 --chrg 0 --uhf 2 --etemp 300 --input /rds/general/user/hgt20/home/callum/QDESCP/Cladribine_rdkit_conf_3/Cladribine_rdkit_conf_3_xtb.inp -P 1
          hostname                   : login-c
          coordinate file            : /rds/general/user/hgt20/home/callum/QDESCP/Cladribine_rdkit_conf_3/Cladribine_rdkit_conf_3.xyz
          omp threads                :                     1


           -------------------------------------------------
          |                 G F N 2 - x T B                 |
           -------------------------------------------------

        Reference                      10.1021/acs.jctc.8b01176
      * Hamiltonian:
        H0-scaling (s, p, d)           1.850000    2.230000    2.230000
        zeta-weighting                 0.500000
      * Dispersion:
        s8                             2.700000
        a1                             0.520000
        a2                             5.000000
        s9                             5.000000
      * Repulsion:
        kExp                           1.500000    1.000000
        rExp                           1.000000
      * Coulomb:
        alpha                          2.000000
        third order                    shell-resolved
        anisotropic                    true
        a3                             3.000000
        a5                             4.000000
        cn-shift                       1.200000
        cn-exp                         4.000000
        max-rad                        5.000000


          ...................................................
          :                      SETUP                      :
          :.................................................:
          :  # basis functions                  94          :
          :  # atomic orbitals                  93          :
          :  # shells                           51          :
          :  # electrons                       102          :
          :  max. iterations                   250          :
          :  Hamiltonian                  GFN2-xTB          :
          :  restarted?                      false          :
          :  GBSA solvation                  false          :
          :  PC potential                    false          :
          :  electronic temp.          300.0000000     K    :
          :  accuracy                    1.0000000          :
          :  -> integral cutoff          0.2500000E+02      :
          :  -> integral neglect         0.1000000E-07      :
          :  -> SCF convergence          0.1000000E-05 Eh   :
          :  -> wf. convergence          0.1000000E-03 e    :
          :  Broyden damping             0.4000000          :
          :  net charge                          0          :
          :  unpaired electrons                  2          :
          ...................................................

 iter      E             dE          RMSdq      gap      omega  full diag
   1    -59.1765266 -0.591765E+02  0.449E+00    0.35       0.0  T
   2    -59.3273187 -0.150792E+00  0.298E+00    0.84       1.0  T
   3    -59.3538543 -0.265356E-01  0.209E+00    0.58       1.0  T
   4    -59.3027473  0.511070E-01  0.175E+00    0.75       1.0  T
   5    -59.3797441 -0.769968E-01  0.113E+00    0.34       1.0  T
   6    -59.4252379 -0.454938E-01  0.472E-01    0.39       1.0  T
   7    -59.4294453 -0.420739E-02  0.232E-01    0.39       1.0  T
   8    -59.4308795 -0.143419E-02  0.124E-01    0.40       1.0  T
   9    -59.4311055 -0.226049E-03  0.834E-02    0.39       1.0  T
  10    -59.4311454 -0.398409E-04  0.563E-02    0.39       1.0  T
  11    -59.4312125 -0.671534E-04  0.313E-02    0.39       1.0  T
  12    -59.4312079  0.461657E-05  0.326E-02    0.39       1.0  T
  13    -59.4312234 -0.154811E-04  0.189E-02    0.39       1.0  T
  14    -59.4312274 -0.397592E-05  0.123E-02    0.39       1.5  T
  15    -59.4312301 -0.272578E-05  0.476E-03    0.39       3.8  T
  16    -59.4312307 -0.562993E-06  0.224E-03    0.39       8.0  T
  17    -59.4312308 -0.807821E-07  0.117E-03    0.39      15.4  T
  18    -59.4312308 -0.255592E-07  0.537E-04    0.39      33.4  T
  19    -59.4312308 -0.428980E-08  0.364E-04    0.39      49.4  T

   *** convergence criteria satisfied after 19 iterations ***

         #    Occupation            Energy/Eh            Energy/eV
      -------------------------------------------------------------
         1        2.0000           -1.0480753             -28.5196
       ...           ...                  ...                  ...
        46        2.0000           -0.4172767             -11.3547
        47        2.0000           -0.4166723             -11.3382
        48        2.0000           -0.4129248             -11.2363
        49        2.0000           -0.4049649             -11.0197
        50        1.5416           -0.3845539             -10.4642
        51        1.4584           -0.3842373             -10.4556
        52        0.9995           -0.2464737              -6.7069 (HOMO)
        53        0.0005           -0.2321522              -6.3172 (LUMO)
        54                         -0.1940882              -5.2814
        55                         -0.1293321              -3.5193
        56                         -0.1029269              -2.8008
        57                         -0.0225244              -0.6129
       ...                                ...                  ...
        93                          0.6532873              17.7769
      -------------------------------------------------------------
                  HL-Gap            0.0143215 Eh            0.3897 eV
             Fermi-level           -0.3118543 Eh           -8.4860 eV

 transition dipole moment (au) for excitation:          51          52
     X       Y       Z   
  -0.1635  -0.0027   0.0245  total (au/Debye):    0.165   0.420
 dE (eV)             :    3.749
 oscillator strength :  0.35494E-02

 SCC (total)                   0 d,  0 h,  0 min,  0.090 sec
 SCC setup                      ...        0 min,  0.000 sec (  0.323%)
 Dispersion                     ...        0 min,  0.000 sec (  0.298%)
 classical contributions        ...        0 min,  0.000 sec (  0.096%)
 integral evaluation            ...        0 min,  0.006 sec (  6.375%)
 iterations                     ...        0 min,  0.029 sec ( 32.064%)
 molecular gradient             ...        0 min,  0.015 sec ( 16.613%)
 printout                       ...        0 min,  0.040 sec ( 44.223%)

         :::::::::::::::::::::::::::::::::::::::::::::::::::::
         ::                     SUMMARY                     ::
         :::::::::::::::::::::::::::::::::::::::::::::::::::::
         :: total energy             -58.829262863827 Eh    ::
         :: gradient norm              0.129625130162 Eh/a0 ::
         :: HOMO-LUMO gap              0.389706773882 eV    ::
         ::.................................................::
         :: SCC energy               -59.431121378910 Eh    ::
         :: -> isotropic ES            0.105694848958 Eh    ::
         :: -> anisotropic ES          0.000899813080 Eh    ::
         :: -> anisotropic XC          0.009612591772 Eh    ::
         :: -> dispersion             -0.033887155677 Eh    ::
         :: repulsion energy           0.601858515083 Eh    ::
         :: add. restraining           0.000000000000 Eh    ::
         :: total charge               0.000000000395 e     ::
         :::::::::::::::::::::::::::::::::::::::::::::::::::::

           -------------------------------------------------
          |                Property Printout                |
           -------------------------------------------------

    * Orbital Energies and Occupations

         #    Occupation            Energy/Eh            Energy/eV
      -------------------------------------------------------------
         1        2.0000           -1.0480753             -28.5196
       ...           ...                  ...                  ...
        40        2.0000           -0.4628432             -12.5946
        41        2.0000           -0.4468589             -12.1596
        42        2.0000           -0.4371600             -11.8957
        43        2.0000           -0.4362267             -11.8703
        44        2.0000           -0.4345879             -11.8257
        45        2.0000           -0.4271977             -11.6246
        46        2.0000           -0.4172767             -11.3547
        47        2.0000           -0.4166723             -11.3382
        48        2.0000           -0.4129248             -11.2363
        49        2.0000           -0.4049649             -11.0197
        50        1.5416           -0.3845539             -10.4642
        51        1.4584           -0.3842373             -10.4556
        52        0.9995           -0.2464737              -6.7069 (HOMO)
        53        0.0005           -0.2321522              -6.3172 (LUMO)
        54                         -0.1940882              -5.2814
        55                         -0.1293321              -3.5193
        56                         -0.1029269              -2.8008
        57                         -0.0225244              -0.6129
        58                         -0.0023518              -0.0640
        59                          0.0073956               0.2012
        60                          0.0115676               0.3148
        61                          0.0204608               0.5568
        62                          0.0250291               0.6811
        63                          0.0255361               0.6949
       ...                                ...                  ...
        93                          0.6532873              17.7769
      -------------------------------------------------------------
                  HL-Gap            0.0143215 Eh            0.3897 eV
             Fermi-level           -0.3118543 Eh           -8.4860 eV

     #   Z          covCN         q      C6AA      α(0)
     1   7 N        2.647    -0.229    26.024     7.577
     2   6 C        2.882     0.118    25.393     8.261
     3   7 N        1.928    -0.261    27.617     7.792
     4   6 C        2.920     0.228    23.234     7.904
     5  17 Cl       1.052    -0.124   103.040    15.530
     6   7 N        1.907    -0.283    28.185     7.871
     7   6 C        3.182     0.139    24.578     8.092
     8   6 C        3.222     0.031    26.579     8.381
     9   7 N        1.885    -0.252    27.412     7.762
    10   6 C        3.186     0.080    25.787     8.286
    11   7 N        2.828    -0.059    22.385     7.027
    12   6 C        3.719     0.182    17.812     6.028
    13   6 C        3.821    -0.085    22.102     6.690
    14   6 C        3.742     0.116    18.749     6.178
    15   6 C        3.782     0.103    18.905     6.194
    16   8 O        1.703    -0.303    19.050     5.893
    17   6 C        3.673     0.071    19.613     6.347
    18   8 O        1.655    -0.440    21.642     6.280
    19   8 O        1.656    -0.440    21.646     6.281
    20   1 H        0.860     0.199     1.111     1.651
    21   1 H        0.861     0.196     1.126     1.662
    22   1 H        0.927     0.059     2.205     2.322
    23   1 H        0.923     0.060     2.204     2.322
    24   1 H        0.925     0.055     2.255     2.348
    25   1 H        0.925     0.071     2.079     2.255
    26   1 H        0.924     0.033     2.540     2.492
    27   1 H        0.924     0.067     2.116     2.275
    28   1 H        0.923     0.029     2.596     2.520
    29   1 H        0.924     0.042     2.428     2.437
    30   1 H        0.805     0.297     0.729     1.341
    31   1 H        0.805     0.300     0.722     1.335

 Mol. C6AA /au·bohr⁶  :      12602.359469
 Mol. C8AA /au·bohr⁸  :     308014.771290
 Mol. α(0) /au        :        169.332978


Wiberg/Mayer (AO) data.
largest (>0.10) Wiberg bond orders for each atom

 ---------------------------------------------------------------------------
     #   Z sym  total        # sym  WBO       # sym  WBO       # sym  WBO
 ---------------------------------------------------------------------------
     1   7 N    3.267 --     2 C    1.217    21 H    0.945    20 H    0.942
     2   6 C    3.861 --     3 N    1.279     1 N    1.217     8 C    1.094
     3   7 N    3.040 --     4 C    1.405     2 C    1.279
     4   6 C    3.843 --     3 N    1.405     6 N    1.202     5 Cl   0.987
     5  17 Cl   1.144 --     4 C    0.987
     6   7 N    2.868 --     7 C    1.289     4 C    1.202
     7   6 C    3.901 --     6 N    1.289     8 C    1.215    11 N    1.188
     8   6 C    3.831 --     9 N    1.309     7 C    1.215     2 C    1.094
     9   7 N    3.004 --    10 C    1.389     8 C    1.309
    10   6 C    3.804 --     9 N    1.389    11 N    1.166    22 H    0.961
    11   7 N    3.587 --     7 C    1.188    10 C    1.166    12 C    0.963
    12   6 C    3.940 --    16 O    0.991    13 C    0.971    11 N    0.963
                            23 H    0.950
    13   6 C    3.990 --    14 C    0.987    24 H    0.975    25 H    0.972
                            12 C    0.971
    14   6 C    3.960 --    19 O    0.998    13 C    0.987    15 C    0.972
                            26 H    0.960
    15   6 C    3.950 --    17 C    0.984    14 C    0.972    16 O    0.969
                            27 H    0.956
    16   8 O    2.096 --    12 C    0.991    15 C    0.969
    17   6 C    3.960 --    18 O    0.999    15 C    0.984    28 H    0.969
                            29 H    0.969
    18   8 O    1.954 --    17 C    0.999    30 H    0.897
    19   8 O    1.962 --    14 C    0.998    31 H    0.892
    20   1 H    0.958 --     1 N    0.942
    21   1 H    0.961 --     1 N    0.945
    22   1 H    0.995 --    10 C    0.961
    23   1 H    0.996 --    12 C    0.950
    24   1 H    0.997 --    13 C    0.975
    25   1 H    0.995 --    13 C    0.972
    26   1 H    0.998 --    14 C    0.960
    27   1 H    0.995 --    15 C    0.956
    28   1 H    0.999 --    17 C    0.969
    29   1 H    0.998 --    17 C    0.969
    30   1 H    0.911 --    18 O    0.897
    31   1 H    0.910 --    19 O    0.892
 ---------------------------------------------------------------------------

Topologies differ in total number of bonds
Writing topology from bond orders to xtbtopo.mol

molecular dipole:
                 x           y           z       tot (Debye)
 q only:       -0.958      -1.692       0.074
   full:       -1.323      -2.001       0.074       6.099
molecular quadrupole (traceless):
                xx          xy          yy          xz          yz          zz
 q only:       10.595     -11.944      -4.404       6.987      -1.156      -6.191
  q+dip:        9.589     -10.902      -4.783      10.460      -0.126      -4.806
   full:        8.820     -10.715      -4.991      10.442       0.347      -3.829


           -------------------------------------------------
          | TOTAL ENERGY              -58.829262863827 Eh   |
          | GRADIENT NORM               0.129625130162 Eh/α |
          | HOMO-LUMO GAP               0.389706773882 eV   |
           -------------------------------------------------

------------------------------------------------------------------------
 * finished run on 2025/05/15 at 16:21:39.990     
------------------------------------------------------------------------
 total:
 * wall-time:     0 d,  0 h,  0 min,  0.101 sec
 *  cpu-time:     0 d,  0 h,  0 min,  0.066 sec
 * ratio c/w:     0.646 speedup
 SCF:
 * wall-time:     0 d,  0 h,  0 min,  0.090 sec
 *  cpu-time:     0 d,  0 h,  0 min,  0.056 sec
 * ratio c/w:     0.619 speedup


