29
 energy: -55.286222601578 gnorm: 0.000560108786 xtb: 6.7.1 (edcfbbe)
O           -2.04418937822916        0.40472578901902        2.71538580596613
C           -1.67490635811250       -0.60301944196226        1.81188676115901
C           -2.18862532184072       -0.28520309073451        0.39987920885007
C           -1.75808872054833       -1.32309014172554       -0.65441403066556
C           -0.69276239770607       -0.58092981426671       -1.51910118248849
C           -0.58501394500520        0.80959795000441       -0.87387284584813
N            0.65059070161963        0.94136921599660       -0.13366098804279
C            1.35415101682845        2.05679248840983        0.15436306805287
N            2.37599077905193        1.76238577413470        0.91151745058733
C            2.27080243753311        0.41645763136100        1.08523556033011
C            3.23562326616083       -0.36631589189150        1.89888125451350
N            4.19673263716634        0.42192967894352        2.42499369453386
O            3.16458325813165       -1.56240417636583        2.06467915037526
N            1.23380108017302       -0.10055146802137        0.46454701093854
O           -1.69168568671330        0.98202302337574       -0.04054877622278
O           -1.10992710957089       -0.42100366084448       -2.84674558435031
O           -2.81583366502377       -1.79559046151992       -1.43594779424143
H           -1.81344392327556        1.25499924386345        2.32016680927282
H           -2.13432232282409       -1.52621655246553        2.16939322137240
H           -0.58373639380549       -0.73488860006313        1.78569209241461
H           -3.27960941719226       -0.18376309451581        0.43501849550528
H           -1.32252563028531       -2.20240671555918       -0.17675464669461
H            0.27477010213034       -1.09533440837054       -1.46979964949652
H           -0.60903191209076        1.59955958808828       -1.63373740028017
H            1.09435437672145        3.03212449689858       -0.20133329127748
H            4.91089802006813        0.01555510407067        3.00468061854760
H            4.18199635869473        1.41128319068527        2.24506575249224
H           -1.39313077200143       -1.28514799026159       -3.17656385680314
H           -3.24756108005458       -1.04263766628296       -1.86320590849595
