50
 energy: -70.102081558868 gnorm: 0.000357528628 xtb: 6.7.1 (edcfbbe)
O            1.22415934970632        3.01971004174464       -0.45611996216642
C            0.90631067102686        1.64691202133692       -0.42162414761993
C           -0.57727851123882        1.46079503649514       -0.81211256212705
N           -1.40783583426774        2.37631500024043       -0.02607219345649
C           -2.71818237852910        2.46867162752682       -0.65507339756798
C           -3.34192325618965        1.06708810277975       -0.82434620597908
C           -1.57430311634206        1.90666628705533        1.34229918817069
C           -2.37121559375556        0.58258861062705        1.40725764972758
C           -1.72751043727894       -0.39825306068907        2.39096243111500
C           -2.54487205675570       -1.66520011092293        2.61464291433601
C           -2.47950055807860        0.07091951591324       -0.03851782693921
C           -1.09287336119053        0.01714434981254       -0.68767656153587
C            1.77973440541684        0.90359234643314       -1.40236043624622
C            2.02459029662480        1.48663518986689       -2.62359811963756
C            2.78468226916923        0.80420078598461       -3.58106976649554
N            3.27702801577098       -0.38847112376624       -3.39296844454800
C            3.07078393169206       -0.98375553027492       -2.20512232742121
C            2.33319197713172       -0.37878852362186       -1.14626875572505
C            2.20572437136252       -1.08267645768139        0.07167568538670
C            2.75384368668025       -2.33194965656055        0.22701664153257
O            2.68025790203553       -3.08924268714142        1.35602473631744
C            1.96931789960118       -2.59201416501981        2.46221164336628
C            3.46449297571512       -2.93178644212884       -0.83835950666001
C            3.62238293563179       -2.27145331989277       -2.01614474578239
H            0.42951519351073        3.49238161154285       -0.16787022800347
H            1.07426731496283        1.27103330525984        0.59763094515386
H           -0.66072957161786        1.79876787514591       -1.85192940532559
H           -3.34249415197836        3.10425357835319       -0.02332774156291
H           -2.60021642144093        2.96778172359677       -1.61997333410439
H           -4.36703636979310        1.05257357200964       -0.45192522902523
H           -3.36328387170879        0.77643887713467       -1.87585292846420
H           -2.08205178827382        2.69696685303268        1.90173631575412
H           -0.58565624340373        1.77868188183686        1.78584225720982
H           -3.38751426043087        0.78533092096545        1.76341344132772
H           -0.72857585258725       -0.67010173015045        2.04391556959906
H           -1.60936442199796        0.11723163179178        3.34805480043585
H           -2.60374856528702       -2.26122221259861        1.70753330297339
H           -2.08663503870796       -2.27523841496179        3.39012053849139
H           -3.55568260182176       -1.41556691168393        2.92901784658428
H           -2.94319618035754       -0.91761399532286       -0.06196378260043
H           -1.15583045051690       -0.44991560872152       -1.67162570015557
H           -0.41838759775639       -0.59043889161567       -0.08638609533946
H            1.63862506209714        2.47136294714677       -2.83398948940506
H            2.98432619171449        1.25381478011877       -4.54553814685287
H            1.68936450491362       -0.61614781276456        0.89483083374549
H            2.40477299978035       -1.66029827678224        2.83808088086325
H            2.04565937493896       -3.35870927212293        3.23156069277007
H            0.91318378657428       -2.43101598008093        2.22043362596662
H            3.87789924886657       -3.91425005850899       -0.67389367547246
H            4.17178412637702       -2.70384823073733       -2.83705122460676
