98
 energy: -148.188880745762 gnorm: 0.000538758446 xtb: 6.7.1 (edcfbbe)
O           -4.75796938860839        1.74928236389311       -0.30718402459100
C           -5.06874218905260        0.92128933252985        0.51927512086612
N           -4.88448240901544       -0.41073821469796        0.43657034645091
C           -4.65879646661333       -1.16553482133195       -0.79292704384666
C           -5.87424090284221       -1.06968426380333       -1.73688016323436
C           -7.16144153953125       -1.18002477925902       -0.97107354229365
C           -7.55363987822318       -2.39079329714422       -0.41199083604741
C           -8.71119467899235       -2.47647761246054        0.34038568045160
C           -9.49137829195920       -1.35078423846382        0.54580218302437
C           -9.11420779342708       -0.14141805908160       -0.01209248003274
C           -7.95515910112373       -0.05945814934092       -0.76415230904854
C           -3.35726981069285       -0.74822036938947       -1.53165124940269
C           -2.20469983836577       -0.60204156696084       -0.52555970487411
C           -0.85140762688172       -0.41692237022137       -1.21334101737224
N            0.10063517089208        0.07421808737230       -0.23599997458218
C            1.09747601687807        0.92041581581129       -0.55412064230208
C            2.09178886303555        1.18819126475571        0.58219260957824
N            3.42408461973512        1.28154688158427        0.01899604287687
C            4.08806011100288        0.09499399898910       -0.20149433815405
N            5.22427987546807        0.19991082308451       -0.94546948022964
C            5.80265754885427        1.47039954088504       -1.31792127820541
C            6.05070174646170       -0.98336406932514       -1.10006232029664
C            7.15272150219642       -0.99155047850717       -0.08511330734375
C            7.05437451328647       -1.49398846517297        1.17543769138337
S            8.50824500933510       -1.21908583328637        2.04931651508887
C            9.15595974269737       -0.42262550772791        0.62614999270145
C           10.53391989042072        0.14573110683081        0.61558295538447
C           11.39483215667190       -0.62163180912323       -0.39114546084500
C           10.47610261101557        1.63242929958872        0.25793863210901
N            8.34056502684089       -0.39203894584611       -0.36473610534147
O            3.70671884330830       -0.96810850379048        0.26494183592810
C            1.71191080606797        2.46622854518968        1.35433337746359
C            1.86572446822370        3.71814587696106        0.49284453183877
C            2.55683140628326        2.57703323901768        2.62132033654207
O            1.21214981505295        1.45541139688523       -1.63992715276159
C           -0.31195256502875       -1.70438528644858       -1.87411312713471
C           -0.16758138769045       -2.83144372224981       -0.89284932594490
C           -1.18517312529637       -3.76605574558983       -0.73452537822098
C           -1.07551504520444       -4.78347861793996        0.19677146607683
C            0.05706870896699       -4.88082477484066        0.98705435089605
C            1.07936383918146       -3.96033522720264        0.83214178001344
C            0.97073102784436       -2.94354746242342       -0.10097662197715
O           -3.50756877274422        0.38597330155643       -2.32710075129448
O           -5.60128130519688        1.23556728653633        1.72456380630516
C           -5.86931905167503        2.62392665712298        1.93630693226056
C           -7.11275646496518        3.04351624257297        1.22998910902330
C           -8.40144572039891        2.95993878652358        1.67100946452442
N           -9.34359128890737        3.36331027633770        0.79185719708966
C           -8.81741807366360        3.75011112389541       -0.31392254900643
S           -7.09042742530769        3.65028624006757       -0.38978764477619
H           -5.28937671601166       -0.92836071008410        1.20162690452801
H           -4.52824899434113       -2.20107150176790       -0.46491903186391
H           -5.83161794484471       -0.11421005748071       -2.26129293758963
H           -5.79410759344691       -1.86783504664066       -2.47681470381651
H           -6.94942708418059       -3.27292366493321       -0.57285838375995
H           -9.00577904291474       -3.42405091029950        0.76768708531989
H          -10.39385797047080       -1.41680345018004        1.13488282298281
H           -9.72219632541589        0.73824225324477        0.13992314434658
H           -7.66304496405717        0.88347205284789       -1.20441349345673
H           -3.12895555789961       -1.55598197699253       -2.23669743088626
H           -2.17395808063643       -1.47680238555267        0.12689784628952
H           -2.39595109670822        0.28115573649902        0.08743401549418
H           -0.93815614902965        0.35707670577162       -1.98316907429078
H            0.16258192011186       -0.45044195536385        0.62308017636150
H            2.10318084914305        0.33665927845020        1.27016380040883
H            3.47644945389247        1.96415283022233       -0.72415034725772
H            5.27144707870991        1.91058270605573       -2.16785837832384
H            6.84028548860192        1.30454577525722       -1.60010799035887
H            5.78323976137715        2.17229334171101       -0.48100509530513
H            6.47320114992946       -0.99372469265985       -2.10740611666961
H            5.40334318394084       -1.84972517359947       -0.95335484787118
H            6.21900054756228       -1.99104731365238        1.62356556371592
H           10.96146395838268        0.02997447414138        1.61687050983610
H           11.45577001849534       -1.67287042243122       -0.11902272263230
H           12.40032448843891       -0.20907899014072       -0.41388121595904
H           10.95724933438022       -0.54445286375072       -1.38281718165078
H           10.03015990327506        1.75646649170130       -0.72510586130313
H            9.87616592372980        2.17732005111647        0.98327787885985
H           11.47818595711147        2.05370245105330        0.24840454919423
H            0.65740279307921        2.36333279862154        1.63628096061063
H            2.91736886267996        3.95223754392001        0.34454764924612
H            1.39635611406544        4.56788324511887        0.98316504168205
H            1.39599231356397        3.57689384373016       -0.47711134481098
H            3.61273171324199        2.58410487147090        2.36272133946400
H            2.37220285456680        1.73540506380348        3.28471621149244
H            2.32187006463511        3.49547138308910        3.15391104293869
H            0.66093987825539       -1.46161182165600       -2.30561581873769
H           -0.98266167691946       -1.98882989339509       -2.68480819077240
H           -2.06823676842244       -3.70199554983142       -1.35563650209836
H           -1.87420631656390       -5.50384428586899        0.30365969892000
H            0.14443888006872       -5.67530823398075        1.71376167256389
H            1.97159177538249       -4.03154726395437        1.43606854999789
H            1.78704916736539       -2.24439346850860       -0.21390467808504
H           -3.82696850009105        1.11338936475808       -1.75987973730905
H           -5.01450499333412        3.21255027918236        1.58654854675083
H           -5.98647249275115        2.72686870096761        3.01679257511005
H           -8.70368733807757        2.60988862078906        2.64121387456523
H           -9.38662100615335        4.10594647310484       -1.14963450460013
