43
 energy: -70.313819052840 gnorm: 0.000236621823 xtb: 6.7.1 (edcfbbe)
C           -6.23037189916329       -0.90788486362887        1.25232637554411
C           -4.77692793061872       -0.62556601106620        1.03515346040905
C           -4.34151416274431        0.30609420245064        0.08849252104419
O           -5.26471674738111        0.99807211340730       -0.67596476189386
C           -5.62885018563210        0.32500047528374       -1.86422336014174
C           -2.97751085242745        0.56251033734377       -0.07118180009552
C           -2.49843686346358        1.58357916797585       -1.05567219779660
C           -3.79391417691456       -1.27725276621748        1.76855504953360
N           -2.50222580809091       -1.07404023975859        1.60960218206889
C           -2.09416064957646       -0.17519830239449        0.72351434091282
C           -0.61633387893809       -0.05312033542494        0.58438376233417
S           -0.05386455165008       -1.27685350775468       -0.70994407838398
C            1.67181186056800       -0.77802261003786       -0.58140624839843
N            2.44200440801127       -0.86089092667652        0.46415110680641
C            3.66039465988697       -0.38660564349285        0.04720897258252
C            3.58373212670348       -0.01655657371005       -1.31675897166173
N            2.29097601160005       -0.28695678914226       -1.68681645504983
C            4.68208512774747        0.50079512765981       -1.98734414779007
C            5.84696685180430        0.63607111280406       -1.26997589527374
C            5.93724539985775        0.27142349493527        0.08852261064591
O            7.16582256258259        0.47293525096913        0.64498716029736
C            7.34819367777149        0.13464311103004        1.99812792294452
C            4.84544867917849       -0.24319880864309        0.76406453304228
O           -0.43724494101492       -0.73013791845529       -2.02214775252341
H           -6.83170823300224       -0.06965824754230        0.90850457020203
H           -6.53041665999364       -1.80124980097168        0.70320092246575
H           -6.42706648373444       -1.08199962021477        2.30778581526494
H           -4.75797232190065        0.14802441632334       -2.50424139434769
H           -6.10967171623451       -0.63509371807343       -1.65004331578267
H           -6.33328593661700        0.97731447516150       -2.37747975007638
H           -1.89698719604652        1.10615302190116       -1.82740897997689
H           -1.88804383721725        2.33572902296229       -0.55606967832067
H           -3.34558329994149        2.08391768466248       -1.51659365136725
H           -4.06208282767629       -2.00851384730438        2.51996395812992
H           -0.11219507065542       -0.37553878425749        1.49143753987575
H           -0.29236497461210        0.93637092780058        0.27491402407923
H            1.83671978122271       -0.15553229199803       -2.57688771052024
H            4.62834475823964        0.78340763998611       -3.02709563413513
H            6.73649823575669        1.03039450972186       -1.73431997450650
H            6.69106053622615        0.71914269291818        2.65005846734163
H            8.38611308656599        0.37371854167675        2.22435104261802
H            7.17550832223228       -0.93229564350177        2.17175936613326
H            4.87472511928945       -0.53293007670819        1.80011005375754
