33
 energy: -45.171155531309 gnorm: 0.000293179694 xtb: 6.7.1 (edcfbbe)
C           -3.01542716997746        1.56663973100348       -0.58111038565033
C           -3.36372087091269        0.13008859873564       -0.20283347074941
C           -2.58000836922528       -0.33271008377288        1.04302642307321
C           -1.09305313181299       -0.35457951253300        0.83989566113229
C           -0.45553338345196       -1.49183961356662        0.35986837538803
C            0.91112657910356       -1.50629196658534        0.14792891680835
C            1.67924512882177       -0.38378707515619        0.42142687997507
C            3.17926975813273       -0.40595483691668        0.21265290970794
C            3.50779761014945        0.72133202181631       -0.74175008743810
O            3.51061671113561        0.30196894394237       -2.01460986226867
O            3.71255170606772        1.86579297833253       -0.43980832830720
C            3.92843027052112       -0.23690181716119        1.53468743733379
C            1.04902160798550        0.75481735807695        0.90723656018179
C           -0.31741060160907        0.76581249156700        1.11487388757466
C           -3.13092005984303       -0.80106388180023       -1.38898819017874
H           -1.96728355168703        1.64387153987349       -0.86096640022395
H           -3.20393414080009        2.24158297270271        0.25102723023559
H           -3.62033579905475        1.89000781355436       -1.42558110006617
H           -4.42787295281303        0.09239140683989        0.05985981126828
H           -2.82212159750305        0.33963266849234        1.86919605779102
H           -2.92266776660717       -1.33485754255805        1.31080458174020
H           -1.03330102530273       -2.38109274448708        0.15320624994130
H            1.38455204244028       -2.40193609333019       -0.22870098828192
H            3.45729078744676       -1.34770733543276       -0.26783218821987
H            3.67856359845787        1.04409426356144       -2.61698263098375
H            3.58982142067822       -0.98170247401352        2.25059040993678
H            3.74717028031017        0.75361205651939        1.94228477116012
H            4.99864245054773       -0.35495955447782        1.38103788763808
H            1.63122932261380        1.64014598347401        1.11476308165019
H           -0.78752185584820        1.65822587012883        1.50181559506147
H           -3.74741176635690       -0.49688688335401       -2.23212801793544
H           -2.08864288672016       -0.77117614923041       -1.69824625090009
H           -3.38816234488851       -1.82626913424239       -1.13164482639473
