57
 energy: -87.643856299803 gnorm: 0.000353922846 xtb: 6.7.1 (edcfbbe)
O            2.78858402090262        0.59758247832359       -1.37484572326156
C            3.28739413204382        0.31814653312740       -0.29709435572668
C            2.70827092497666       -0.54405870832926        0.70137840116026
C            1.36297485549320       -1.12222126210210        0.38498157436257
C            0.24902963835803       -0.16274269513298        0.83398472038833
N           -1.04197186961110       -0.82446288869335        0.83884413140684
C           -2.00612878130085       -0.15821218015818        1.69866929763326
C           -3.26658969432260       -1.00791577658439        1.83280042933823
C           -3.89335648947635       -1.31700883854893        0.47270292441547
C           -2.80881551270646       -1.88844434419323       -0.45364844249319
C           -1.59535953703991       -0.96668431780977       -0.49462579786432
C           -4.54536746830962       -0.13737311953804       -0.16492582837063
N           -4.35447547916016        1.09494778076054        0.19079946728441
O           -5.10471705226873        1.92287484522711       -0.60413618531009
C           -5.78203543435738        1.16607642341141       -1.48240974966938
C           -5.47273813978025       -0.18980809213590       -1.26290315419248
C           -6.06206301724679       -1.18141099370628       -2.04413608190151
C           -6.94170122754796       -0.79062146526865       -3.02649844113288
C           -7.22307319090271        0.56482887108507       -3.21875449984174
F           -8.09331802081588        0.89178381202343       -4.19281979460210
C           -6.66628425124837        1.57806409023420       -2.46937305062196
C            3.37332469070591       -0.74735778801160        1.87615987525909
N            4.57935483998240       -0.17746143839613        2.12303561673514
C            5.12326774543149        0.58743150264514        1.23207184649557
N            4.54447565193490        0.85698378301372        0.04195957434791
C            5.12299327823655        1.75007681469945       -0.95010020591250
C            6.62078036941273        1.91732916063224       -0.77121669274167
C            6.89880187814571        2.30247337343225        0.67577519963842
C            6.47694175202436        1.14455325112062        1.56943221526957
C            2.84980597940641       -1.61262657722887        2.97870893492760
H            1.22132445327724       -2.07884075731516        0.88680615435037
H            1.30586048896655       -1.26940466163383       -0.69405640992254
H            0.46199774776946        0.16156326278335        1.85646727462368
H            0.25869328155472        0.73129024823200        0.18963531818101
H           -2.28048739869516        0.83611227491899        1.31340375441132
H           -1.55734527030881       -0.03516547906573        2.68795718310013
H           -3.98513895642456       -0.48482670182047        2.46430562679090
H           -3.00163111579316       -1.95349614106368        2.30934074501851
H           -4.67678396961349       -2.07487808859105        0.60165533641244
H           -3.20065807315526       -2.02724842601478       -1.46299924463547
H           -2.49606402367036       -2.85805876904290       -0.06400359318533
H           -1.88377825081683        0.01414800212802       -0.91483069791883
H           -0.83672900636666       -1.40281964758358       -1.14593225059151
H           -5.83739931223691       -2.22328578164319       -1.87971569663768
H           -7.42948604773185       -1.51269020138726       -3.66151101714735
H           -6.90553567738442        2.61332615602270       -2.64077807911225
H            4.61889311010679        2.72047515933534       -0.86776966730580
H            4.87125965881637        1.33696779608164       -1.93156210251472
H            6.97597971646908        2.68467086284120       -1.45932588512409
H            7.13311192709716        0.98239114319932       -1.00738583921456
H            7.95726666009238        2.51845405799737        0.82536775070010
H            6.33197667826909        3.20044571185538        0.93005037636770
H            7.19259508317359        0.32258315963841        1.47118515519978
H            6.46564057800529        1.42891833596382        2.62216137095399
H            1.84959314962218       -1.30362459660324        3.27223251681034
H            2.80018998444932       -2.65006892810304        2.65162759830666
H            3.51884999357518       -1.54178022502210        3.83095811706090
