66
 energy: -102.674145430084 gnorm: 0.000349519559 xtb: 6.7.1 (edcfbbe)
C           -7.41516997448863        0.12197469269562       -3.31449933884874
C           -6.94033735232409        0.20249642267298       -1.87000640854889
C           -5.42363743116610        0.05751555446472       -1.76916939706260
C           -4.96569584712028        0.13044678638836       -0.35537583301294
N           -5.71106087720554        0.32837954129793        0.70995679766031
C           -4.89563495996516        0.32605793913242        1.79077024330306
C           -5.39256361208346        0.51606400485982        3.17452855268953
C           -3.58997384591036        0.12005859935347        1.38091724485770
N           -3.66993017603880       -0.00048145904135        0.00257351186220
N           -2.55312297292413       -0.22330248342424       -0.75210009895003
C           -1.35107934101205       -0.25439873817662       -0.11500782315162
C           -0.13983546687776       -0.44238664993227       -0.93209061553311
C           -0.05307422820813       -0.16019511239769       -2.31129018088191
C            1.16889917396408       -0.31646975533461       -2.96456098503830
C            2.28642409500604       -0.75106294032223       -2.27694311251701
C            2.19338236888922       -1.04434370398210       -0.93055997705534
S            3.66670390720000       -1.58932429074560       -0.06711223552439
O            4.53617170088732       -2.21785943583723       -1.01952668261219
N            4.32539549502659       -0.09247671976117        0.30465773060541
C            3.76310808353324        0.54217481684980        1.47950833730447
C            4.36413833753550       -0.00597215412120        2.77322289370240
N            5.81417818440866        0.12119417032106        2.74132895848862
C            6.33982015697730       -0.61718570600437        1.60539780628024
C            5.77302893326350       -0.03877854309059        0.31099759492205
C            6.43061910608010       -0.29964035644980        3.99010683813706
C            6.18777207115904        0.70213672545728        5.11340435521895
O            3.26683964974951       -2.34195451790780        1.08702157574337
C            0.99766802943011       -0.89393663043183       -0.26534950281505
O           -1.18125630053474        0.26058362343567       -2.94587663541216
C           -1.13328407346367        0.64553582322249       -4.31405640166178
C           -2.52608411359236        1.12072103719838       -4.69837170216383
N           -1.20909996940148       -0.15312719756833        1.15714541488050
C           -2.28575102316749        0.04229828189381        2.02433075082002
O           -2.10969573190642        0.14893822807337        3.21768724429488
H           -7.14652123453070       -0.83605370522706       -3.75560569735005
H           -6.96690960212742        0.91301405061226       -3.91296557742781
H           -8.49541673929896        0.22812786590781       -3.36355738722736
H           -7.23088498296042        1.15658158063910       -1.43079972989511
H           -7.40740875435100       -0.58323385737553       -1.27668743974928
H           -5.11605465108636       -0.90263466814464       -2.20004227397164
H           -4.93990062319959        0.85267322928333       -2.34928046766002
H           -4.54844937677992        0.56196706934631        3.85624596292623
H           -6.04133616705452       -0.31211889623720        3.45500459616433
H           -5.97479491926422        1.43286523919270        3.23983296885652
H           -2.63147943229865       -0.17762738536804       -1.75929181632959
H            1.25355571743297       -0.10187851828186       -4.01735392766581
H            3.23302123389140       -0.88445353507507       -2.77464205793251
H            3.97107536486000        1.61367149534911        1.40016270284442
H            2.68488831828885        0.38397492003401        1.46794307589333
H            4.05502409625603       -1.05738403020025        2.89038373986176
H            3.97565066042415        0.57303420756932        3.61131827573667
H            7.42863517676019       -0.52431871841305        1.59888478855641
H            6.07476587388935       -1.68916051503606        1.65337744876782
H            6.12182316355006       -0.61102322404410       -0.54810316614037
H            6.06830515666070        1.00909935430807        0.20707148631020
H            6.07860813394273       -1.29988973276852        4.29678341442954
H            7.50725874985240       -0.36456808479690        3.81039865522415
H            6.82455771444064        0.46083007790802        5.96078301022166
H            6.42603649871816        1.70445683089791        4.76823498888245
H            5.15537135708037        0.68433831797529        5.45059092744869
H            0.91551356757834       -1.13332928504117        0.78280365724242
H           -0.83929084031315       -0.21087067215960       -4.93320760121855
H           -0.40491019904953        1.45394485244862       -4.44787022582821
H           -3.24645420635524        0.31367473868843       -4.58894808331562
H           -2.82574360174349        1.95151594397913       -4.06440006245928
H           -2.52649744892934        1.45099520123536       -5.73262310518891
