57
 energy: -87.646953530894 gnorm: 0.000524642267 xtb: 6.7.1 (edcfbbe)
O           -2.88833028580953        1.83980251235832       -0.48962243294141
C           -3.40609417388101        0.73880784143792       -0.39235958101465
C           -2.73942229739687       -0.52287926346473       -0.59787264673697
C           -1.29286473023115       -0.45176047741519       -0.96824893217448
C           -0.41767953891773       -0.31719941924431        0.29962645837369
N            1.00114616014869       -0.17984719372074        0.07602716439498
C            1.63444803638199       -1.32768716871486       -0.53941071734932
C            3.14807727258794       -1.22147671152761       -0.37007396789500
C            3.64966658167709        0.07107448571996       -1.02256915808722
C            2.89069930843065        1.25953023258161       -0.42267955649274
C            1.38956800895493        1.04452991771775       -0.59536544286962
C            5.12048437456520        0.22398568814892       -0.85745996607608
N            5.90482745524950        0.28298122348013       -1.88992011274322
O            7.20138672819518        0.41976810043331       -1.47320771836459
C            7.21119753492907        0.44456606390355       -0.13093403361358
C            5.89198933314093        0.32279410052167        0.35124508261429
C            5.65207846172836        0.32336213435302        1.72506851777734
C            6.72877771572468        0.44244686944359        2.57221919599100
C            8.02206353920886        0.55971745894348        2.05633201615461
F            9.03956291571558        0.67217258918269        2.93097576704008
C            8.30916526963792        0.56601604712029        0.70935308825794
C           -3.43410907993632       -1.68294683712927       -0.40678017419185
N           -4.74781100134990       -1.68154924547887       -0.07018680834158
C           -5.37149590933477       -0.55852426013516        0.08528521241368
N           -4.76929218066337        0.64289064966910       -0.05665841048868
C           -5.44174342921956        1.91272216189642        0.17262086514209
C           -6.95114371947502        1.79701062446241        0.06026025300749
C           -7.42168198098660        0.64905536653646        0.94355933124967
C           -6.83815557227781       -0.64616505208436        0.39642348014406
C           -2.82910626615770       -3.04350693742392       -0.56199428025450
H           -0.99710260605598       -1.33656855398394       -1.53183086349895
H           -1.14403129705315        0.43843103821733       -1.58201176643956
H           -0.75133739901067        0.56548964637148        0.85126015601623
H           -0.56952807402654       -1.19427153511972        0.93688153164178
H            1.27208106266625       -2.23196765122215       -0.04364359055321
H            1.40083364813880       -1.40559319178257       -1.61635902433596
H            3.63399766793562       -2.08516222058560       -0.82733312822573
H            3.38483580447565       -1.21365680599320        0.69391534908921
H            3.44940298625334        0.02790683992929       -2.09848198948216
H            3.19200402772988        2.18439504843898       -0.91696073334379
H            3.11715299725812        1.34463220735038        0.64020181345560
H            0.83940277328921        1.87402010414222       -0.14683629793307
H            1.15458009457573        1.01849285633606       -1.67365646247068
H            4.65241045503907        0.23358803642433        2.11819497283464
H            6.59934379245565        0.44783263544120        3.64277736613930
H            9.31541638898844        0.65840354431120        0.33885467761584
H           -5.03110663512362        2.62273988736175       -0.55173827092122
H           -5.16076071538801        2.26889073160437        1.17115383176280
H           -7.23661151910869        1.60411378061648       -0.97590099734686
H           -7.40122458089644        2.74110026901920        0.36791251412214
H           -8.51059597517475        0.58791904285026        0.95569763593737
H           -7.08122620250650        0.81244080902687        1.96822388426621
H           -6.98310821197580       -1.47912910665819        1.08496657770443
H           -7.34530032528823       -0.91330554470295       -0.53592076813734
H           -2.51132431550179       -3.20276531844047       -1.59147222560058
H           -1.96133843671216       -3.15693704676797        0.08381139436993
H           -3.57307393562630       -3.79043100374174       -0.30215807957145
