----- Optimization -----
      -----------------------------------------------------------      
     |                   =====================                   |     
     |                           x T B                           |     
     |                   =====================                   |     
     |                         S. Grimme                         |     
     |          Mulliken Center for Theoretical Chemistry        |     
     |                    University of Bonn                     |     
      -----------------------------------------------------------      

   * xtb version 6.7.1 (edcfbbe) compiled by 'conda@3ef47c1a292c' on 2024-11-25

   xtb is free software: you can redistribute it and/or modify it under
   the terms of the GNU Lesser General Public License as published by
   the Free Software Foundation, either version 3 of the License, or
   (at your option) any later version.
   
   xtb is distributed in the hope that it will be useful,
   but WITHOUT ANY WARRANTY; without even the implied warranty of
   MERCHANTABILITY or FITNESS FOR A PARTICULAR PURPOSE.  See the
   GNU Lesser General Public License for more details.
   
   Cite this work as:
   * C. Bannwarth, E. Caldeweyher, S. Ehlert, A. Hansen, P. Pracht,
     J. Seibert, S. Spicher, S. Grimme, WIREs Comput. Mol. Sci., 2020, 11,
     e01493. DOI: 10.1002/wcms.1493
   
   for GFN2-xTB:
   * C. Bannwarth, S. Ehlert and S. Grimme., J. Chem. Theory Comput., 2019,
     15, 1652-1671. DOI: 10.1021/acs.jctc.8b01176
   for GFN1-xTB:
   * S. Grimme, C. Bannwarth, P. Shushkov, J. Chem. Theory Comput., 2017,
     13, 1989-2009. DOI: 10.1021/acs.jctc.7b00118
   for GFN0-xTB:
   * P. Pracht, E. Caldeweyher, S. Ehlert, S. Grimme, ChemRxiv, 2019, preprint.
     DOI: 10.26434/chemrxiv.8326202.v1
   for GFN-FF:
   * S. Spicher and S. Grimme, Angew. Chem. Int. Ed., 2020, 59, 15665-15673.
     DOI: 10.1002/anie.202004239
   
   for ALPB and GBSA implicit solvation:
   * S. Ehlert, M. Stahn, S. Spicher, S. Grimme, J. Chem. Theory Comput.,
     2021, 17, 4250-4261. DOI: 10.1021/acs.jctc.1c00471
   
   for ddCOSMO and CPCM-X implicit solvation:
   * M. Stahn, S. Ehlert, S. Grimme, J. Phys. Chem. A,
     2023, XX, XXXX-XXXX. DOI: 10.1021/acs.jpca.3c04382
   
   for DFT-D4:
   * E. Caldeweyher, C. Bannwarth and S. Grimme, J. Chem. Phys., 2017,
     147, 034112. DOI: 10.1063/1.4993215
   * E. Caldeweyher, S. Ehlert, A. Hansen, H. Neugebauer, S. Spicher,
     C. Bannwarth and S. Grimme, J. Chem. Phys., 2019, 150, 154122.
     DOI: 10.1063/1.5090222
   * E. Caldeweyher, J.-M. Mewes, S. Ehlert and S. Grimme, Phys. Chem. Chem. Phys.
     2020, 22, 8499-8512. DOI: 10.1039/D0CP00502A
   
   for sTDA-xTB:
   * S. Grimme and C. Bannwarth, J. Chem. Phys., 2016, 145, 054103.
     DOI: 10.1063/1.4959605
   
   in the mass-spec context:
   * V. Asgeirsson, C. Bauer and S. Grimme, Chem. Sci., 2017, 8, 4879.
     DOI: 10.1039/c7sc00601b
   * J. Koopman and S. Grimme, ACS Omega 2019, 4, 12, 15120-15133.
     DOI: 10.1021/acsomega.9b02011
   
   for metadynamics refer to:
   * S. Grimme, J. Chem. Theory Comput., 2019, 155, 2847-2862
     DOI: 10.1021/acs.jctc.9b00143
   
   for SPH calculations refer to:
   * S. Spicher and S. Grimme, J. Chem. Theory Comput., 2021, 17, 1701-1714
     DOI: 10.1021/acs.jctc.0c01306
   
   for ONIOM refer to:
   * C. Plett, A. Katbashev, S. Ehlert, S. Grimme, M. Bursch,
     Phys. Chem. Chem. Phys., 2023, 25, 17860-17868. DOI: 10.1039/D3CP02178E
   
   for DIPRO refer to:
   * J. Kohn, N. Gildemeister, S. Grimme, D. Fazzi, A. Hansen,
     J. Chem. Phys., 2023, just accepted.
   
   for PTB refer to:
   * S. Grimme, M. Mueller, A. Hansen, J. Chem. Phys., 2023, 158, 124111.
     DOI: 10.1063/5.0137838
   
   with help from (in alphabetical order)
   P. Atkinson, C. Bannwarth, F. Bohle, G. Brandenburg, E. Caldeweyher
   M. Checinski, S. Dohm, S. Ehlert, S. Ehrlich, I. Gerasimov, C. Hölzer
   A. Katbashev, J. Kohn, J. Koopman, C. Lavigne, S. Lehtola, F. März, M. Müller,
   F. Musil, H. Neugebauer, J. Pisarek, C. Plett, P. Pracht, F. Pultar,
   J. Seibert, P. Shushkov, S. Spicher, M. Stahn, M. Steiner, T. Strunk,
   J. Stückrath, T. Rose, and J. Unsleber
   
 * started run on 2025/05/15 at 16:25:38.220     
   ID    Z sym.   atoms
    1    8 O      1, 14
    2    6 C      2-5, 7-12, 15-19, 21, 22, 24, 26-30
    3    7 N      6, 13, 23, 25
    4    9 F      20
    5    1 H      31-57

           -------------------------------------------------
          |                Calculation Setup                |
           -------------------------------------------------

          program call               : xtb /rds/general/user/hgt20/home/callum/QDESCP/Risperidone_rdkit_conf_7/Risperidone_rdkit_conf_7.xyz --opt normal --acc 1 --gfn 2 --chrg 0 --uhf 0 -P 1
          hostname                   : login-c
          coordinate file            : /rds/general/user/hgt20/home/callum/QDESCP/Risperidone_rdkit_conf_7/Risperidone_rdkit_conf_7.xyz
          omp threads                :                     1


           -------------------------------------------------
          |                 G F N 2 - x T B                 |
           -------------------------------------------------

        Reference                      10.1021/acs.jctc.8b01176
      * Hamiltonian:
        H0-scaling (s, p, d)           1.850000    2.230000    2.230000
        zeta-weighting                 0.500000
      * Dispersion:
        s8                             2.700000
        a1                             0.520000
        a2                             5.000000
        s9                             5.000000
      * Repulsion:
        kExp                           1.500000    1.000000
        rExp                           1.000000
      * Coulomb:
        alpha                          2.000000
        third order                    shell-resolved
        anisotropic                    true
        a3                             3.000000
        a5                             4.000000
        cn-shift                       1.200000
        cn-exp                         4.000000
        max-rad                        5.000000


          ...................................................
          :                      SETUP                      :
          :.................................................:
          :  # basis functions                 147          :
          :  # atomic orbitals                 147          :
          :  # shells                           87          :
          :  # electrons                       158          :
          :  max. iterations                   250          :
          :  Hamiltonian                  GFN2-xTB          :
          :  restarted?                      false          :
          :  GBSA solvation                  false          :
          :  PC potential                    false          :
          :  electronic temp.          300.0000000     K    :
          :  accuracy                    1.0000000          :
          :  -> integral cutoff          0.2500000E+02      :
          :  -> integral neglect         0.1000000E-07      :
          :  -> SCF convergence          0.1000000E-05 Eh   :
          :  -> wf. convergence          0.1000000E-03 e    :
          :  Broyden damping             0.4000000          :
          :  net charge                          0          :
          :  unpaired electrons                  0          :
          ...................................................

 iter      E             dE          RMSdq      gap      omega  full diag
   1    -88.5884961 -0.885885E+02  0.383E+00    2.91       0.0  T
   2    -88.7154192 -0.126923E+00  0.235E+00    2.45       1.0  T
   3    -88.7166513 -0.123212E-02  0.124E+00    2.06       1.0  T
   4    -88.7354557 -0.188043E-01  0.427E-01    1.70       1.0  T
   5    -88.7412717 -0.581606E-02  0.116E-01    1.66       1.0  T
   6    -88.7415216 -0.249901E-03  0.610E-02    1.69       1.0  T
   7    -88.7416000 -0.783853E-04  0.253E-02    1.71       1.0  T
   8    -88.7416050 -0.493039E-05  0.996E-03    1.72       1.3  T
   9    -88.7416068 -0.180260E-05  0.434E-03    1.72       3.0  T
  10    -88.7416071 -0.323624E-06  0.154E-03    1.72       8.6  T
  11    -88.7416071 -0.538030E-07  0.879E-04    1.72      15.1  T
  12    -88.7416072 -0.138318E-07  0.358E-04    1.72      37.0  T

   *** convergence criteria satisfied after 12 iterations ***

         #    Occupation            Energy/Eh            Energy/eV
      -------------------------------------------------------------
         1        2.0000           -0.8285518             -22.5460
       ...           ...                  ...                  ...
        73        2.0000           -0.4234757             -11.5234
        74        2.0000           -0.4150272             -11.2935
        75        2.0000           -0.4078678             -11.0986
        76        2.0000           -0.3896116             -10.6019
        77        2.0000           -0.3867876             -10.5250
        78        2.0000           -0.3844026             -10.4601
        79        2.0000           -0.3467248              -9.4349 (HOMO)
        80                         -0.2836624              -7.7188 (LUMO)
        81                         -0.2534444              -6.8966
        82                         -0.2409844              -6.5575
        83                         -0.2284902              -6.2175
        84                         -0.2076506              -5.6505
       ...                                ...                  ...
       147                          0.6926792              18.8488
      -------------------------------------------------------------
                  HL-Gap            0.0630624 Eh            1.7160 eV
             Fermi-level           -0.3151936 Eh           -8.5769 eV

 SCC (total)                   0 d,  0 h,  0 min,  0.178 sec
 SCC setup                      ...        0 min,  0.001 sec (  0.335%)
 Dispersion                     ...        0 min,  0.001 sec (  0.498%)
 classical contributions        ...        0 min,  0.000 sec (  0.147%)
 integral evaluation            ...        0 min,  0.011 sec (  6.414%)
 iterations                     ...        0 min,  0.085 sec ( 47.747%)
 molecular gradient             ...        0 min,  0.079 sec ( 44.681%)
 printout                       ...        0 min,  0.000 sec (  0.173%)

         :::::::::::::::::::::::::::::::::::::::::::::::::::::
         ::                     SUMMARY                     ::
         :::::::::::::::::::::::::::::::::::::::::::::::::::::
         :: total energy             -87.631720194584 Eh    ::
         :: gradient norm              0.108704651499 Eh/a0 ::
         :: HOMO-LUMO gap              1.716015105966 eV    ::
         ::.................................................::
         :: SCC energy               -88.741756476306 Eh    ::
         :: -> isotropic ES            0.080644841738 Eh    ::
         :: -> anisotropic ES          0.008898350584 Eh    ::
         :: -> anisotropic XC          0.041046280457 Eh    ::
         :: -> dispersion             -0.061473143887 Eh    ::
         :: repulsion energy           1.110036281722 Eh    ::
         :: add. restraining           0.000000000000 Eh    ::
         :: total charge              -0.000000000000 e     ::
         :::::::::::::::::::::::::::::::::::::::::::::::::::::

      ----------------------------------------------------------- 
     |                   =====================                   |
     |                        A N C O P T                        |
     |                   =====================                   |
     |               Approximate Normal Coordinate               |
     |                Rational Function Optimizer                |
      ----------------------------------------------------------- 
      ----------------------------------------------------------- 
     |                   =====================                   |
     |                        A N C O P T                        |
     |                   =====================                   |
     |               Approximate Normal Coordinate               |
     |                Rational Function Optimizer                |
      ----------------------------------------------------------- 

          ...................................................
          :                      SETUP                      :
          :.................................................:
          :   optimization level            normal          :
          :   max. optcycles                   200          :
          :   ANC micro-cycles                  20          :
          :   degrees of freedom               165          :
          :.................................................:
          :   RF solver                   davidson          :
          :   write xtbopt.log                true          :
          :   linear?                        false          :
          :   energy convergence         0.5000000E-05 Eh   :
          :   grad. convergence          0.1000000E-02 Eh/α :
          :   maxmium RF displ.          1.0000000          :
          :   Hlow (freq-cutoff)         0.1000000E-01      :
          :   Hmax (freq-cutoff)         5.0000000          :
          :   S6 in model hess.         20.0000000          :
          ...................................................

generating ANC from exact Hessian ...
Using Lindh-Hessian (1995)
 Shifting diagonal of input Hessian by    9.8393210636508223E-003
 Lowest  eigenvalues of input Hessian
    0.000000    0.000000    0.000000    0.000000    0.000000    0.000000
    0.010000    0.010086    0.010167    0.010625    0.010898    0.011287
    0.011580    0.012036    0.012820    0.014003    0.016298    0.016817
 Highest eigenvalues
    1.922382    1.942771    2.067957    2.167775    2.175673    2.315420


........................................................................
.............................. CYCLE    1 ..............................
........................................................................

 iter      E             dE          RMSdq      gap      omega  full diag
   1    -88.7416072 -0.887416E+02  0.129E-04    1.72       0.0  T
   2    -88.7416072 -0.200814E-09  0.819E-05    1.72     161.6  T
   3    -88.7416072 -0.996039E-10  0.517E-05    1.72     256.3  T
     SCC iter.                  ...        0 min,  0.012 sec
     gradient                   ...        0 min,  0.088 sec
 * total energy  :   -87.6317202 Eh     change       -0.2089564E-08 Eh
   gradient norm :     0.1087046 Eh/α   predicted     0.0000000E+00 (-100.00%)
   displ. norm   :     0.2940148 α      lambda       -0.1519934E-01
   maximum displ.:     0.1019902 α      in ANC's #55, #46, #95, ...

........................................................................
.............................. CYCLE    2 ..............................
........................................................................

 iter      E             dE          RMSdq      gap      omega  full diag
   1    -88.7774999 -0.887775E+02  0.195E-01    1.83       0.0  T
   2    -88.7775919 -0.919628E-04  0.114E-01    1.86       1.0  T
   3    -88.7775367  0.551609E-04  0.471E-02    1.87       1.0  T
   4    -88.7776069 -0.702221E-04  0.116E-02    1.87       1.1  T
   5    -88.7776128 -0.584922E-05  0.386E-03    1.87       3.4  T
   6    -88.7776131 -0.330302E-06  0.168E-03    1.87       7.9  T
   7    -88.7776131 -0.224275E-07  0.665E-04    1.87      19.9  T
   8    -88.7776132 -0.772091E-08  0.233E-04    1.87      56.9  T
     SCC iter.                  ...        0 min,  0.029 sec
     gradient                   ...        0 min,  0.084 sec
 * total energy  :   -87.6421222 Eh     change       -0.1040198E-01 Eh
   gradient norm :     0.0474904 Eh/α   predicted    -0.8261266E-02 ( -20.58%)
   displ. norm   :     0.2692948 α      lambda       -0.4659156E-02
   maximum displ.:     0.0872907 α      in ANC's #10, #15, #18, ...

........................................................................
.............................. CYCLE    3 ..............................
........................................................................

 iter      E             dE          RMSdq      gap      omega  full diag
   1    -88.7980499 -0.887980E+02  0.118E-01    1.92       0.0  T
   2    -88.7981039 -0.539750E-04  0.698E-02    1.93       1.0  T
   3    -88.7980758  0.281476E-04  0.415E-02    1.93       1.0  T
   4    -88.7981221 -0.463732E-04  0.832E-03    1.93       1.6  T
   5    -88.7981254 -0.325550E-05  0.234E-03    1.93       5.7  T
   6    -88.7981255 -0.104815E-06  0.101E-03    1.93      13.1  T
   7    -88.7981255 -0.127209E-07  0.419E-04    1.93      31.6  T
   8    -88.7981255 -0.237570E-08  0.176E-04    1.93      75.1  T
     SCC iter.                  ...        0 min,  0.067 sec
     gradient                   ...        0 min,  0.043 sec
 * total energy  :   -87.6448867 Eh     change       -0.2764514E-02 Eh
   gradient norm :     0.0161533 Eh/α   predicted    -0.2500151E-02 (  -9.56%)
   displ. norm   :     0.1849978 α      lambda       -0.7927977E-03
   maximum displ.:     0.0880549 α      in ANC's #10, #13, #15, ...

........................................................................
.............................. CYCLE    4 ..............................
........................................................................

 iter      E             dE          RMSdq      gap      omega  full diag
   1    -88.8003716 -0.888004E+02  0.488E-02    1.92       0.0  T
   2    -88.8003779 -0.624067E-05  0.281E-02    1.93       1.0  T
   3    -88.8003723  0.558525E-05  0.186E-02    1.93       1.0  T
   4    -88.8003823 -0.100361E-04  0.266E-03    1.93       5.0  T
   5    -88.8003826 -0.268895E-06  0.989E-04    1.93      13.4  T
   6    -88.8003826 -0.136082E-07  0.499E-04    1.93      26.5  T
     SCC iter.                  ...        0 min,  0.021 sec
     gradient                   ...        0 min,  0.081 sec
 * total energy  :   -87.6454572 Eh     change       -0.5705251E-03 Eh
   gradient norm :     0.0095894 Eh/α   predicted    -0.4099693E-03 ( -28.14%)
   displ. norm   :     0.2113627 α      lambda       -0.4905760E-03
   maximum displ.:     0.1061640 α      in ANC's #10, #13, #16, ...

........................................................................
.............................. CYCLE    5 ..............................
........................................................................

 iter      E             dE          RMSdq      gap      omega  full diag
   1    -88.8005543 -0.888006E+02  0.426E-02    1.91       0.0  T
   2    -88.8005575 -0.317299E-05  0.242E-02    1.92       1.0  T
   3    -88.8005528  0.467102E-05  0.138E-02    1.92       1.0  T
   4    -88.8005591 -0.630968E-05  0.202E-03    1.92       6.6  T
   5    -88.8005592 -0.154364E-06  0.825E-04    1.92      16.1  T
   6    -88.8005593 -0.534561E-08  0.403E-04    1.92      32.8  T
     SCC iter.                  ...        0 min,  0.021 sec
     gradient                   ...        0 min,  0.076 sec
 * total energy  :   -87.6457664 Eh     change       -0.3091826E-03 Eh
   gradient norm :     0.0051617 Eh/α   predicted    -0.2563547E-03 ( -17.09%)
   displ. norm   :     0.1216237 α      lambda       -0.1285559E-03
   maximum displ.:     0.0630352 α      in ANC's #10, #13, #16, ...

........................................................................
.............................. CYCLE    6 ..............................
........................................................................

 iter      E             dE          RMSdq      gap      omega  full diag
   1    -88.8007186 -0.888007E+02  0.197E-02    1.91       0.0  T
   2    -88.8007192 -0.646931E-06  0.117E-02    1.92       1.1  T
   3    -88.8007188  0.448402E-06  0.374E-03    1.92       3.5  T
   4    -88.8007193 -0.574085E-06  0.927E-04    1.92      14.3  T
   5    -88.8007194 -0.356190E-07  0.362E-04    1.92      36.6  T
     SCC iter.                  ...        0 min,  0.018 sec
     gradient                   ...        0 min,  0.086 sec
 * total energy  :   -87.6458579 Eh     change       -0.9148642E-04 Eh
   gradient norm :     0.0042375 Eh/α   predicted    -0.6522908E-04 ( -28.70%)
   displ. norm   :     0.1268991 α      lambda       -0.9254948E-04
   maximum displ.:     0.0610010 α      in ANC's #13, #10, #2, ...

........................................................................
.............................. CYCLE    7 ..............................
........................................................................

 iter      E             dE          RMSdq      gap      omega  full diag
   1    -88.8012825 -0.888013E+02  0.187E-02    1.92       0.0  T
   2    -88.8012832 -0.747838E-06  0.115E-02    1.92       1.2  T
   3    -88.8012823  0.918005E-06  0.555E-03    1.92       2.4  T
   4    -88.8012836 -0.127599E-05  0.101E-03    1.92      13.2  T
   5    -88.8012836 -0.319845E-07  0.413E-04    1.92      32.1  T
   6    -88.8012836 -0.318187E-08  0.179E-04    1.92      74.1  T
     SCC iter.                  ...        0 min,  0.066 sec
     gradient                   ...        0 min,  0.088 sec
 * total energy  :   -87.6459230 Eh     change       -0.6508335E-04 Eh
   gradient norm :     0.0035985 Eh/α   predicted    -0.4703004E-04 ( -27.74%)
   displ. norm   :     0.1279240 α      lambda       -0.6731158E-04
   maximum displ.:     0.0645518 α      in ANC's #13, #10, #2, ...

........................................................................
.............................. CYCLE    8 ..............................
........................................................................

 iter      E             dE          RMSdq      gap      omega  full diag
   1    -88.8017802 -0.888018E+02  0.183E-02    1.92       0.0  T
   2    -88.8017807 -0.524702E-06  0.110E-02    1.92       1.2  T
   3    -88.8017798  0.860481E-06  0.525E-03    1.92       2.5  T
   4    -88.8017810 -0.111952E-05  0.853E-04    1.92      15.5  T
   5    -88.8017810 -0.225320E-07  0.365E-04    1.92      36.3  T
   6    -88.8017810 -0.271336E-08  0.167E-04    1.92      79.2  T
     SCC iter.                  ...        0 min,  0.022 sec
     gradient                   ...        0 min,  0.088 sec
 * total energy  :   -87.6459741 Eh     change       -0.5111760E-04 Eh
   gradient norm :     0.0033007 Eh/α   predicted    -0.3420738E-04 ( -33.08%)
   displ. norm   :     0.1907354 α      lambda       -0.8650445E-04
   maximum displ.:     0.0970197 α      in ANC's #13, #15, #2, ...

........................................................................
.............................. CYCLE    9 ..............................
........................................................................

 iter      E             dE          RMSdq      gap      omega  full diag
   1    -88.8021322 -0.888021E+02  0.264E-02    1.93       0.0  T
   2    -88.8021329 -0.764802E-06  0.156E-02    1.93       1.0  T
   3    -88.8021318  0.108342E-05  0.564E-03    1.93       2.3  T
   4    -88.8021332 -0.131473E-05  0.116E-03    1.93      11.4  T
   5    -88.8021332 -0.477445E-07  0.433E-04    1.93      30.6  T
   6    -88.8021332 -0.159790E-08  0.212E-04    1.93      62.5  T
     SCC iter.                  ...        0 min,  0.073 sec
     gradient                   ...        0 min,  0.042 sec
 * total energy  :   -87.6460400 Eh     change       -0.6591438E-04 Eh
   gradient norm :     0.0039572 Eh/α   predicted    -0.4482685E-04 ( -31.99%)
   displ. norm   :     0.2563124 α      lambda       -0.1075114E-03
   maximum displ.:     0.1266026 α      in ANC's #13, #15, #2, ...

........................................................................
.............................. CYCLE   10 ..............................
........................................................................

 iter      E             dE          RMSdq      gap      omega  full diag
   1    -88.8019271 -0.888019E+02  0.350E-02    1.94       0.0  T
   2    -88.8019283 -0.114844E-05  0.206E-02    1.94       1.0  T
   3    -88.8019279  0.386657E-06  0.410E-03    1.94       3.2  T
   4    -88.8019284 -0.559427E-06  0.135E-03    1.94       9.8  T
   5    -88.8019285 -0.625755E-07  0.548E-04    1.94      24.1  T
   6    -88.8019285 -0.247745E-08  0.199E-04    1.94      66.4  T
     SCC iter.                  ...        0 min,  0.021 sec
     gradient                   ...        0 min,  0.094 sec
 * total energy  :   -87.6461207 Eh     change       -0.8068356E-04 Eh
   gradient norm :     0.0055894 Eh/α   predicted    -0.5730239E-04 ( -28.98%)
   displ. norm   :     0.2680533 α      lambda       -0.1240773E-03
   maximum displ.:     0.1195769 α      in ANC's #13, #15, #2, ...

........................................................................
.............................. CYCLE   11 ..............................
........................................................................

 iter      E             dE          RMSdq      gap      omega  full diag
   1    -88.8016476 -0.888016E+02  0.363E-02    1.94       0.0  T
   2    -88.8016486 -0.105468E-05  0.215E-02    1.94       1.0  T
   3    -88.8016480  0.650667E-06  0.459E-03    1.94       2.9  T
   4    -88.8016489 -0.928082E-06  0.115E-03    1.94      11.5  T
   5    -88.8016489 -0.284176E-07  0.571E-04    1.94      23.2  T
   6    -88.8016489 -0.315016E-08  0.206E-04    1.94      64.4  T
     SCC iter.                  ...        0 min,  0.072 sec
     gradient                   ...        0 min,  0.043 sec
 * total energy  :   -87.6462142 Eh     change       -0.9351216E-04 Eh
   gradient norm :     0.0065381 Eh/α   predicted    -0.6649866E-04 ( -28.89%)
   displ. norm   :     0.2504052 α      lambda       -0.1364483E-03
   maximum displ.:     0.1164246 α      in ANC's #2, #15, #1, ...

........................................................................
.............................. CYCLE   12 ..............................
........................................................................

 iter      E             dE          RMSdq      gap      omega  full diag
   1    -88.8017042 -0.888017E+02  0.334E-02    1.93       0.0  T
   2    -88.8017052 -0.102039E-05  0.199E-02    1.93       1.0  T
   3    -88.8017032  0.201016E-05  0.744E-03    1.93       1.8  T
   4    -88.8017057 -0.250435E-05  0.129E-03    1.93      10.3  T
   5    -88.8017057 -0.359446E-07  0.648E-04    1.93      20.4  T
   6    -88.8017057 -0.703604E-08  0.255E-04    1.93      52.0  T
     SCC iter.                  ...        0 min,  0.021 sec
     gradient                   ...        0 min,  0.088 sec
 * total energy  :   -87.6463146 Eh     change       -0.1003761E-03 Eh
   gradient norm :     0.0057184 Eh/α   predicted    -0.7251960E-04 ( -27.75%)
   displ. norm   :     0.3239180 α      lambda       -0.1215254E-03
   maximum displ.:     0.1506935 α      in ANC's #2, #13, #1, ...

........................................................................
.............................. CYCLE   13 ..............................
........................................................................

 iter      E             dE          RMSdq      gap      omega  full diag
   1    -88.7997765 -0.887998E+02  0.425E-02    1.92       0.0  T
   2    -88.7997780 -0.154546E-05  0.250E-02    1.93       1.0  T
   3    -88.7997761  0.189543E-05  0.751E-03    1.93       1.8  T
   4    -88.7997784 -0.233452E-05  0.164E-03    1.93       8.1  T
   5    -88.7997785 -0.804949E-07  0.760E-04    1.93      17.4  T
   6    -88.7997785 -0.475029E-08  0.363E-04    1.93      36.5  T
     SCC iter.                  ...        0 min,  0.066 sec
     gradient                   ...        0 min,  0.041 sec
 * total energy  :   -87.6463891 Eh     change       -0.7451205E-04 Eh
   gradient norm :     0.0066752 Eh/α   predicted    -0.6713915E-04 (  -9.89%)
   displ. norm   :     0.2332385 α      lambda       -0.1902126E-03
   maximum displ.:     0.1217467 α      in ANC's #2, #1, #8, ...

........................................................................
.............................. CYCLE   14 ..............................
........................................................................

 iter      E             dE          RMSdq      gap      omega  full diag
   1    -88.8021274 -0.888021E+02  0.350E-02    1.91       0.0  T
   2    -88.8021322 -0.478218E-05  0.198E-02    1.91       1.0  T
   3    -88.8021311  0.108477E-05  0.940E-03    1.91       1.4  T
   4    -88.8021328 -0.168625E-05  0.278E-03    1.91       4.8  T
   5    -88.8021331 -0.319579E-06  0.778E-04    1.91      17.0  T
   6    -88.8021331 -0.371840E-08  0.463E-04    1.91      28.6  T
     SCC iter.                  ...        0 min,  0.022 sec
     gradient                   ...        0 min,  0.088 sec
 * total energy  :   -87.6464566 Eh     change       -0.6748327E-04 Eh
   gradient norm :     0.0060833 Eh/α   predicted    -0.1002876E-03 (  48.61%)
   displ. norm   :     0.2262104 α      lambda       -0.1042270E-03
   maximum displ.:     0.1089156 α      in ANC's #2, #13, #1, ...

........................................................................
.............................. CYCLE   15 ..............................
........................................................................

 iter      E             dE          RMSdq      gap      omega  full diag
   1    -88.7999639 -0.888000E+02  0.310E-02    1.91       0.0  T
   2    -88.7999651 -0.119091E-05  0.181E-02    1.91       1.0  T
   3    -88.7999646  0.519091E-06  0.420E-03    1.92       3.2  T
   4    -88.7999653 -0.683944E-06  0.146E-03    1.92       9.1  T
   5    -88.7999654 -0.734293E-07  0.549E-04    1.91      24.1  T
   6    -88.7999654 -0.104342E-08  0.266E-04    1.91      49.7  T
     SCC iter.                  ...        0 min,  0.022 sec
     gradient                   ...        0 min,  0.094 sec
 * total energy  :   -87.6465269 Eh     change       -0.7031789E-04 Eh
   gradient norm :     0.0056568 Eh/α   predicted    -0.5478115E-04 ( -22.10%)
   displ. norm   :     0.1432155 α      lambda       -0.9969520E-04
   maximum displ.:     0.0712011 α      in ANC's #2, #13, #1, ...

........................................................................
.............................. CYCLE   16 ..............................
........................................................................

 iter      E             dE          RMSdq      gap      omega  full diag
   1    -88.8002746 -0.888003E+02  0.220E-02    1.92       0.0  T
   2    -88.8002758 -0.116061E-05  0.133E-02    1.92       1.0  T
   3    -88.8002745  0.127046E-05  0.699E-03    1.92       1.9  T
   4    -88.8002764 -0.185771E-05  0.119E-03    1.92      11.1  T
   5    -88.8002764 -0.412352E-07  0.505E-04    1.92      26.2  T
   6    -88.8002764 -0.656884E-08  0.222E-04    1.92      59.8  T
     SCC iter.                  ...        0 min,  0.021 sec
     gradient                   ...        0 min,  0.084 sec
 * total energy  :   -87.6465975 Eh     change       -0.7058898E-04 Eh
   gradient norm :     0.0045547 Eh/α   predicted    -0.5087398E-04 ( -27.93%)
   displ. norm   :     0.1722488 α      lambda       -0.8448726E-04
   maximum displ.:     0.0924881 α      in ANC's #2, #1, #13, ...

........................................................................
.............................. CYCLE   17 ..............................
........................................................................

 iter      E             dE          RMSdq      gap      omega  full diag
   1    -88.8013439 -0.888013E+02  0.237E-02    1.93       0.0  T
   2    -88.8013446 -0.705924E-06  0.141E-02    1.93       1.0  T
   3    -88.8013436  0.105497E-05  0.522E-03    1.93       2.5  T
   4    -88.8013449 -0.129787E-05  0.925E-04    1.93      14.3  T
   5    -88.8013449 -0.216383E-07  0.418E-04    1.93      31.7  T
   6    -88.8013449 -0.290323E-08  0.210E-04    1.93      63.0  T
     SCC iter.                  ...        0 min,  0.021 sec
     gradient                   ...        0 min,  0.088 sec
 * total energy  :   -87.6466590 Eh     change       -0.6153779E-04 Eh
   gradient norm :     0.0040984 Eh/α   predicted    -0.4349823E-04 ( -29.31%)
   displ. norm   :     0.2746740 α      lambda       -0.7517367E-04
   maximum displ.:     0.1541771 α      in ANC's #2, #1, #13, ...

........................................................................
.............................. CYCLE   18 ..............................
........................................................................

 iter      E             dE          RMSdq      gap      omega  full diag
   1    -88.8010649 -0.888011E+02  0.327E-02    1.93       0.0  T
   2    -88.8010654 -0.489803E-06  0.193E-02    1.93       1.0  T
   3    -88.8010652  0.203311E-06  0.267E-03    1.93       5.0  T
   4    -88.8010656 -0.328033E-06  0.108E-03    1.93      12.2  T
   5    -88.8010656 -0.319883E-07  0.464E-04    1.93      28.5  T
   6    -88.8010656 -0.909239E-09  0.177E-04    1.93      74.9  T
     SCC iter.                  ...        0 min,  0.068 sec
     gradient                   ...        0 min,  0.086 sec
 * total energy  :   -87.6467148 Eh     change       -0.5576863E-04 Eh
   gradient norm :     0.0043132 Eh/α   predicted    -0.4042830E-04 ( -27.51%)
   displ. norm   :     0.2244706 α      lambda       -0.9331329E-04
   maximum displ.:     0.1268289 α      in ANC's #2, #1, #10, ...

........................................................................
.............................. CYCLE   19 ..............................
........................................................................

 iter      E             dE          RMSdq      gap      omega  full diag
   1    -88.8035198 -0.888035E+02  0.294E-02    1.93       0.0  T
   2    -88.8035212 -0.132451E-05  0.170E-02    1.93       1.0  T
   3    -88.8035211  0.382887E-07  0.330E-03    1.93       4.0  T
   4    -88.8035213 -0.205715E-06  0.118E-03    1.93      11.3  T
   5    -88.8035214 -0.283242E-07  0.542E-04    1.93      24.5  T
   6    -88.8035214 -0.165616E-08  0.225E-04    1.93      58.9  T
     SCC iter.                  ...        0 min,  0.022 sec
     gradient                   ...        0 min,  0.086 sec
 * total energy  :   -87.6467531 Eh     change       -0.3834922E-04 Eh
   gradient norm :     0.0035501 Eh/α   predicted    -0.4900967E-04 (  27.80%)
   displ. norm   :     0.3208443 α      lambda       -0.7882506E-04
   maximum displ.:     0.1848456 α      in ANC's #2, #1, #13, ...

........................................................................
.............................. CYCLE   20 ..............................
........................................................................

 iter      E             dE          RMSdq      gap      omega  full diag
   1    -88.8007995 -0.888008E+02  0.389E-02    1.92       0.0  T
   2    -88.8008013 -0.176516E-05  0.228E-02    1.92       1.0  T
   3    -88.8008006  0.651412E-06  0.503E-03    1.92       2.6  T
   4    -88.8008015 -0.912359E-06  0.165E-03    1.92       8.0  T
   5    -88.8008016 -0.862351E-07  0.749E-04    1.92      17.7  T
   6    -88.8008016 -0.215428E-08  0.365E-04    1.92      36.3  T
     SCC iter.                  ...        0 min,  0.021 sec
     gradient                   ...        0 min,  0.081 sec
 * total energy  :   -87.6467896 Eh     change       -0.3646406E-04 Eh
   gradient norm :     0.0031737 Eh/α   predicted    -0.4347027E-04 (  19.21%)
   displ. norm   :     0.0406964 α      lambda       -0.2813503E-04
   maximum displ.:     0.0200157 α      in ANC's #9, #8, #15, ...
 * RMSD in coord.:     0.4073169 α      energy gain  -0.1506939E-01 Eh

generating ANC from exact Hessian ...
Using Lindh-Hessian (1995)
 Shifting diagonal of input Hessian by    9.8341560479881171E-003
 Lowest  eigenvalues of input Hessian
    0.000000    0.000000    0.000000    0.000000    0.000000    0.000000
    0.010000    0.010095    0.010170    0.010655    0.010961    0.011407
    0.011780    0.012218    0.013025    0.013962    0.016838    0.017187
 Highest eigenvalues
    1.974760    1.981631    2.084460    2.207555    2.209426    2.371654


........................................................................
.............................. CYCLE   21 ..............................
........................................................................

 iter      E             dE          RMSdq      gap      omega  full diag
   1    -88.8019998 -0.888020E+02  0.874E-03    1.92       0.0  T
   2    -88.8020000 -0.141360E-06  0.504E-03    1.92       2.6  T
   3    -88.8019999  0.233186E-07  0.116E-03    1.92      11.4  T
   4    -88.8020000 -0.336958E-07  0.435E-04    1.92      30.4  T
   5    -88.8020000 -0.814816E-08  0.166E-04    1.92      79.8  T
     SCC iter.                  ...        0 min,  0.018 sec
     gradient                   ...        0 min,  0.082 sec
 * total energy  :   -87.6468110 Eh     change       -0.2142715E-04 Eh
   gradient norm :     0.0017039 Eh/α   predicted     0.0000000E+00 (-100.00%)
   displ. norm   :     0.0388044 α      lambda       -0.1475983E-04
   maximum displ.:     0.0183707 α      in ANC's #9, #8, #13, ...

........................................................................
.............................. CYCLE   22 ..............................
........................................................................

 iter      E             dE          RMSdq      gap      omega  full diag
   1    -88.8026088 -0.888026E+02  0.739E-03    1.92       0.0  T
   2    -88.8026089 -0.112152E-06  0.431E-03    1.92       3.1  T
   3    -88.8026088  0.557071E-07  0.141E-03    1.92       9.4  T
   4    -88.8026089 -0.705074E-07  0.407E-04    1.92      32.5  T
   5    -88.8026089 -0.664468E-08  0.146E-04    1.92      90.7  T
     SCC iter.                  ...        0 min,  0.018 sec
     gradient                   ...        0 min,  0.082 sec
 * total energy  :   -87.6468286 Eh     change       -0.1757919E-04 Eh
   gradient norm :     0.0006071 Eh/α   predicted    -0.7401134E-05 ( -57.90%)
   displ. norm   :     0.1275146 α      lambda       -0.3054311E-04
   maximum displ.:     0.0613283 α      in ANC's #8, #9, #13, ...

........................................................................
.............................. CYCLE   23 ..............................
........................................................................

 iter      E             dE          RMSdq      gap      omega  full diag
   1    -88.8030192 -0.888030E+02  0.202E-02    1.92       0.0  T
   2    -88.8030194 -0.208725E-06  0.119E-02    1.92       1.1  T
   3    -88.8030191  0.355531E-06  0.286E-03    1.92       4.6  T
   4    -88.8030195 -0.435073E-06  0.595E-04    1.92      22.3  T
   5    -88.8030195 -0.849832E-08  0.292E-04    1.92      45.4  T
     SCC iter.                  ...        0 min,  0.063 sec
     gradient                   ...        0 min,  0.042 sec
 * total energy  :   -87.6468612 Eh     change       -0.3257243E-04 Eh
   gradient norm :     0.0017106 Eh/α   predicted    -0.1538658E-04 ( -52.76%)
   displ. norm   :     0.1522314 α      lambda       -0.2284431E-04
   maximum displ.:     0.0719956 α      in ANC's #8, #9, #13, ...

........................................................................
.............................. CYCLE   24 ..............................
........................................................................

 iter      E             dE          RMSdq      gap      omega  full diag
   1    -88.8028665 -0.888029E+02  0.226E-02    1.92       0.0  T
   2    -88.8028666 -0.136317E-06  0.134E-02    1.92       1.0  T
   3    -88.8028665  0.122399E-06  0.191E-03    1.92       6.9  T
   4    -88.8028666 -0.174533E-06  0.560E-04    1.92      23.7  T
   5    -88.8028666 -0.549312E-08  0.240E-04    1.92      55.1  T
     SCC iter.                  ...        0 min,  0.018 sec
     gradient                   ...        0 min,  0.088 sec
 * total energy  :   -87.6468857 Eh     change       -0.2454640E-04 Eh
   gradient norm :     0.0016293 Eh/α   predicted    -0.1154234E-04 ( -52.98%)
   displ. norm   :     0.1589804 α      lambda       -0.1852608E-04
   maximum displ.:     0.0717827 α      in ANC's #8, #9, #10, ...

........................................................................
.............................. CYCLE   25 ..............................
........................................................................

 iter      E             dE          RMSdq      gap      omega  full diag
   1    -88.8026366 -0.888026E+02  0.229E-02    1.93       0.0  T
   2    -88.8026368 -0.218904E-06  0.135E-02    1.93       1.0  T
   3    -88.8026368  0.514326E-07  0.153E-03    1.93       8.7  T
   4    -88.8026369 -0.988295E-07  0.520E-04    1.93      25.5  T
   5    -88.8026369 -0.602900E-08  0.245E-04    1.93      54.1  T
     SCC iter.                  ...        0 min,  0.018 sec
     gradient                   ...        0 min,  0.087 sec
 * total energy  :   -87.6469048 Eh     change       -0.1904897E-04 Eh
   gradient norm :     0.0011273 Eh/α   predicted    -0.9369221E-05 ( -50.82%)
   displ. norm   :     0.1202488 α      lambda       -0.1425936E-04
   maximum displ.:     0.0540470 α      in ANC's #10, #8, #1, ...

........................................................................
.............................. CYCLE   26 ..............................
........................................................................

 iter      E             dE          RMSdq      gap      omega  full diag
   1    -88.8025879 -0.888026E+02  0.177E-02    1.93       0.0  T
   2    -88.8025881 -0.160909E-06  0.105E-02    1.93       1.3  T
   3    -88.8025880  0.111311E-06  0.169E-03    1.93       7.8  T
   4    -88.8025881 -0.148901E-06  0.501E-04    1.93      26.4  T
   5    -88.8025882 -0.737707E-08  0.241E-04    1.93      55.1  T
     SCC iter.                  ...        0 min,  0.063 sec
     gradient                   ...        0 min,  0.043 sec
 * total energy  :   -87.6469203 Eh     change       -0.1558649E-04 Eh
   gradient norm :     0.0012433 Eh/α   predicted    -0.7178785E-05 ( -53.94%)
   displ. norm   :     0.1107831 α      lambda       -0.1449995E-04
   maximum displ.:     0.0615975 α      in ANC's #10, #1, #8, ...

........................................................................
.............................. CYCLE   27 ..............................
........................................................................

 iter      E             dE          RMSdq      gap      omega  full diag
   1    -88.8027963 -0.888028E+02  0.175E-02    1.93       0.0  T
   2    -88.8027965 -0.123367E-06  0.104E-02    1.93       1.3  T
   3    -88.8027964  0.108017E-06  0.162E-03    1.93       8.2  T
   4    -88.8027965 -0.147932E-06  0.515E-04    1.93      25.7  T
   5    -88.8027965 -0.636760E-08  0.250E-04    1.93      53.0  T
     SCC iter.                  ...        0 min,  0.057 sec
     gradient                   ...        0 min,  0.043 sec
 * total energy  :   -87.6469349 Eh     change       -0.1451326E-04 Eh
   gradient norm :     0.0013663 Eh/α   predicted    -0.7290033E-05 ( -49.77%)
   displ. norm   :     0.0875388 α      lambda       -0.7566438E-05
   maximum displ.:     0.0503059 α      in ANC's #10, #1, #2, ...

........................................................................
.............................. CYCLE   28 ..............................
........................................................................

 iter      E             dE          RMSdq      gap      omega  full diag
   1    -88.8027057 -0.888027E+02  0.134E-02    1.93       0.0  T
   2    -88.8027057 -0.472415E-07  0.793E-03    1.93       1.7  T
   3    -88.8027057 -0.260442E-09  0.640E-04    1.93      20.7  T
   4    -88.8027057 -0.153585E-07  0.289E-04    1.93      45.8  T
     SCC iter.                  ...        0 min,  0.014 sec
     gradient                   ...        0 min,  0.076 sec
 * total energy  :   -87.6469428 Eh     change       -0.7899106E-05 Eh
   gradient norm :     0.0010040 Eh/α   predicted    -0.3797982E-05 ( -51.92%)
   displ. norm   :     0.0771529 α      lambda       -0.5865372E-05
   maximum displ.:     0.0412811 α      in ANC's #10, #1, #2, ...

........................................................................
.............................. CYCLE   29 ..............................
........................................................................

 iter      E             dE          RMSdq      gap      omega  full diag
   1    -88.8028570 -0.888029E+02  0.109E-02    1.93       0.0  T
   2    -88.8028571 -0.679199E-07  0.642E-03    1.93       2.1  T
   3    -88.8028570  0.494027E-07  0.109E-03    1.93      12.1  T
   4    -88.8028571 -0.649567E-07  0.311E-04    1.93      42.6  T
   5    -88.8028571 -0.304703E-08  0.151E-04    1.93      87.5  T
     SCC iter.                  ...        0 min,  0.018 sec
     gradient                   ...        0 min,  0.073 sec
 * total energy  :   -87.6469489 Eh     change       -0.6171709E-05 Eh
   gradient norm :     0.0003511 Eh/α   predicted    -0.2945174E-05 ( -52.28%)
   displ. norm   :     0.0754600 α      lambda       -0.4234595E-05
   maximum displ.:     0.0370899 α      in ANC's #1, #10, #2, ...

........................................................................
.............................. CYCLE   30 ..............................
........................................................................

 iter      E             dE          RMSdq      gap      omega  full diag
   1    -88.8027782 -0.888028E+02  0.103E-02    1.92       0.0  T
   2    -88.8027783 -0.571875E-07  0.608E-03    1.92       2.2  T
   3    -88.8027783  0.336541E-07  0.969E-04    1.92      13.7  T
   4    -88.8027783 -0.474390E-07  0.302E-04    1.92      43.9  T
     SCC iter.                  ...        0 min,  0.014 sec
     gradient                   ...        0 min,  0.083 sec
 * total energy  :   -87.6469535 Eh     change       -0.4594492E-05 Eh
   gradient norm :     0.0005259 Eh/α   predicted    -0.2123730E-05 ( -53.78%)
   displ. norm   :     0.0564776 α      lambda       -0.3376965E-05
   maximum displ.:     0.0318209 α      in ANC's #1, #3, #9, ...

   *** GEOMETRY OPTIMIZATION CONVERGED AFTER 30 ITERATIONS ***

------------------------------------------------------------------------
 total energy gain   :        -0.0152333 Eh       -9.5591 kcal/mol
 total RMSD          :         0.4522665 a0        0.2393 Å
 total power (kW/mol):        -1.3331704 (step)   -9.7770 (real)
------------------------------------------------------------------------

 ANCopt (total)                0 d,  0 h,  0 min,  4.091 sec
 optimizer setup                ...        0 min,  0.000 sec (  0.003%)
 model hessian                  ...        0 min,  0.094 sec (  2.300%)
 ANC generation                 ...        0 min,  0.051 sec (  1.237%)
 coordinate transformation      ...        0 min,  0.000 sec (  0.011%)
 single point calculation       ...        0 min,  3.935 sec ( 96.199%)
 optimization log               ...        0 min,  0.006 sec (  0.145%)
 hessian update                 ...        0 min,  0.001 sec (  0.015%)
 rational function              ...        0 min,  0.003 sec (  0.064%)

================
 final structure:
================
57
 xtb: 6.7.1 (edcfbbe)
O           -2.88833028580953        1.83980251235832       -0.48962243294141
C           -3.40609417388101        0.73880784143792       -0.39235958101465
C           -2.73942229739687       -0.52287926346473       -0.59787264673697
C           -1.29286473023115       -0.45176047741519       -0.96824893217448
C           -0.41767953891773       -0.31719941924431        0.29962645837369
N            1.00114616014869       -0.17984719372074        0.07602716439498
C            1.63444803638199       -1.32768716871486       -0.53941071734932
C            3.14807727258794       -1.22147671152761       -0.37007396789500
C            3.64966658167709        0.07107448571996       -1.02256915808722
C            2.89069930843065        1.25953023258161       -0.42267955649274
C            1.38956800895493        1.04452991771775       -0.59536544286962
C            5.12048437456520        0.22398568814892       -0.85745996607608
N            5.90482745524950        0.28298122348013       -1.88992011274322
O            7.20138672819518        0.41976810043331       -1.47320771836459
C            7.21119753492907        0.44456606390355       -0.13093403361358
C            5.89198933314093        0.32279410052167        0.35124508261429
C            5.65207846172836        0.32336213435302        1.72506851777734
C            6.72877771572468        0.44244686944359        2.57221919599100
C            8.02206353920886        0.55971745894348        2.05633201615461
F            9.03956291571558        0.67217258918269        2.93097576704008
C            8.30916526963792        0.56601604712029        0.70935308825794
C           -3.43410907993632       -1.68294683712927       -0.40678017419185
N           -4.74781100134990       -1.68154924547887       -0.07018680834158
C           -5.37149590933477       -0.55852426013516        0.08528521241368
N           -4.76929218066337        0.64289064966910       -0.05665841048868
C           -5.44174342921956        1.91272216189642        0.17262086514209
C           -6.95114371947502        1.79701062446241        0.06026025300749
C           -7.42168198098660        0.64905536653646        0.94355933124967
C           -6.83815557227781       -0.64616505208436        0.39642348014406
C           -2.82910626615770       -3.04350693742392       -0.56199428025450
H           -0.99710260605598       -1.33656855398394       -1.53183086349895
H           -1.14403129705315        0.43843103821733       -1.58201176643956
H           -0.75133739901067        0.56548964637148        0.85126015601623
H           -0.56952807402654       -1.19427153511972        0.93688153164178
H            1.27208106266625       -2.23196765122215       -0.04364359055321
H            1.40083364813880       -1.40559319178257       -1.61635902433596
H            3.63399766793562       -2.08516222058560       -0.82733312822573
H            3.38483580447565       -1.21365680599320        0.69391534908921
H            3.44940298625334        0.02790683992929       -2.09848198948216
H            3.19200402772988        2.18439504843898       -0.91696073334379
H            3.11715299725812        1.34463220735038        0.64020181345560
H            0.83940277328921        1.87402010414222       -0.14683629793307
H            1.15458009457573        1.01849285633606       -1.67365646247068
H            4.65241045503907        0.23358803642433        2.11819497283464
H            6.59934379245565        0.44783263544120        3.64277736613930
H            9.31541638898844        0.65840354431120        0.33885467761584
H           -5.03110663512362        2.62273988736175       -0.55173827092122
H           -5.16076071538801        2.26889073160437        1.17115383176280
H           -7.23661151910869        1.60411378061648       -0.97590099734686
H           -7.40122458089644        2.74110026901920        0.36791251412214
H           -8.51059597517475        0.58791904285026        0.95569763593737
H           -7.08122620250650        0.81244080902687        1.96822388426621
H           -6.98310821197580       -1.47912910665819        1.08496657770443
H           -7.34530032528823       -0.91330554470295       -0.53592076813734
H           -2.51132431550179       -3.20276531844047       -1.59147222560058
H           -1.96133843671216       -3.15693704676797        0.08381139436993
H           -3.57307393562630       -3.79043100374174       -0.30215807957145

 Bond Distances (Angstroems)
 ---------------------------
O1-C2=1.2205         C2-O1=1.2205         C2-C3=1.4417         C2-N25=1.4072        C3-C2=1.4417         C3-C4=1.4949         
C3-C22=1.3656        C4-C3=1.4949         C4-C5=1.5465         C4-H31=1.0899        C4-H32=1.0915        C5-C4=1.5465         
C5-N6=1.4429         C5-H33=1.0931        C5-H34=1.0947        N6-C5=1.4429         N6-C7=1.4482         N6-C11=1.4494        
C7-N6=1.4482         C7-C8=1.5268         C7-H35=1.0931        C7-H36=1.1047        C8-C7=1.5268         C8-C9=1.5323         
C8-H37=1.0914        C8-H38=1.0900        C9-C8=1.5323         C9-C10=1.5324        C9-C12=1.4879        C9-H39=1.0952        
C10-C9=1.5324        C10-C11=1.5263       C10-H40=1.0911       C10-H41=1.0901       C11-N6=1.4494        C11-C10=1.5263       
C11-H42=1.0917       C11-H43=1.1039       C12-C9=1.4879        C12-N13=1.2979       C12-C16=1.4373       N13-C12=1.2979       
N13-O14=1.3687       O14-N13=1.3687       O14-C15=1.3425       C15-O14=1.3425       C15-C16=1.4098       C15-C21=1.3879       
C16-C12=1.4373       C16-C15=1.4098       C16-C17=1.3946       C17-C16=1.3946       C17-C18=1.3752       C17-H44=1.0779       
C18-C17=1.3752       C18-C19=1.3973       C18-H45=1.0784       C19-C18=1.3973       C19-F20=1.3465       C19-C21=1.3773       
F20-C19=1.3465       C21-C15=1.3879       C21-C19=1.3773       C21-H46=1.0763       C22-C3=1.3656        C22-N23=1.3561       
C22-C30=1.4971       N23-C22=1.3561       N23-C24=1.2940       C24-N23=1.2940       C24-N25=1.3514       C24-C29=1.5019       
N25-C2=1.4072        N25-C24=1.3514       N25-C26=1.4551       C26-N25=1.4551       C26-C27=1.5180       C26-H47=1.0943       
C26-H48=1.0968       C27-C26=1.5180       C27-C28=1.5230       C27-H49=1.0919       C27-H50=1.0902       C28-C27=1.5230       
C28-C29=1.5223       C28-H51=1.0907       C28-H52=1.0920       C29-C24=1.5019       C29-C28=1.5223       C29-H53=1.0904       
C29-H54=1.0945       C30-C22=1.4971       C30-H55=1.0891       C30-H56=1.0876       C30-H57=1.0858       H31-C4=1.0899        
H32-C4=1.0915        H33-C5=1.0931        H34-C5=1.0947        H35-C7=1.0931        H36-C7=1.1047        H37-C8=1.0914        
H38-C8=1.0900        H39-C9=1.0952        H40-C10=1.0911       H41-C10=1.0901       H42-C11=1.0917       H43-C11=1.1039       
H44-C17=1.0779       H45-C18=1.0784       H46-C21=1.0763       H47-C26=1.0943       H48-C26=1.0968       H49-C27=1.0919       
H50-C27=1.0902       H51-C28=1.0907       H52-C28=1.0920       H53-C29=1.0904       H54-C29=1.0945       H55-C30=1.0891       
H56-C30=1.0876       H57-C30=1.0858       
 C  H  Rav=1.0910 sigma=0.0062  Rmin=1.0763  Rmax=1.1047    27
 C  C  Rav=1.4665 sigma=0.0625  Rmin=1.3656  Rmax=1.5465    21
 N  C  Rav=1.3891 sigma=0.0620  Rmin=1.2940  Rmax=1.4551     9
 O  C  Rav=1.2815 sigma=0.0610  Rmin=1.2205  Rmax=1.3425     2
 O  N  Rav=1.3687 sigma=0.0000  Rmin=1.3687  Rmax=1.3687     1
 F  C  Rav=1.3465 sigma=0.0000  Rmin=1.3465  Rmax=1.3465     1

 selected bond angles (degree)
 --------------------
C3-C2-O1=125.58                N25-C2-O1=119.44               N25-C2-C3=114.98               C4-C3-C2=116.18                
C22-C3-C2=119.22               C22-C3-C4=124.56               C5-C4-C3=110.40                H31-C4-C3=110.61               
H31-C4-C5=109.94               H32-C4-C3=108.06               H32-C4-C5=108.23               H32-C4-H31=109.53              
N6-C5-C4=115.96                H33-C5-C4=108.14               H33-C5-N6=107.55               H34-C5-C4=109.21               
H34-C5-N6=107.63               H34-C5-H33=108.11              C7-N6-C5=114.86                C11-N6-C5=114.56               
C11-N6-C7=110.82               C8-C7-N6=109.35                H35-C7-N6=108.54               H35-C7-C8=109.63               
H36-C7-N6=112.19               H36-C7-C8=108.82               H36-C7-H35=108.28              C9-C8-C7=109.63                
H37-C8-C7=109.87               H37-C8-C9=110.08               H38-C8-C7=108.91               H38-C8-C9=109.79               
H38-C8-H37=108.54              C10-C9-C8=108.99               C12-C9-C8=111.29               C12-C9-C10=111.50              
H39-C9-C8=108.98               H39-C9-C10=108.94              H39-C9-C12=107.09              C11-C10-C9=109.49              
H40-C10-C9=110.08              H40-C10-C11=109.86             H41-C10-C9=109.84              H41-C10-C11=109.00             
H41-C10-H40=108.55             

 selected dihedral angles (degree)
 ---------------------------------
C4-C3-C2-O1=359.64            C4-C3-C2-N25=179.45           C22-C3-C2-O1=177.62           C22-C3-C2-N25=357.43          
C5-C4-C3-C2= 84.19            C5-C4-C3-C22=266.34           H31-C4-C3-C2=206.10           H31-C4-C3-C22= 28.25          
H32-C4-C3-C2=326.00           H32-C4-C3-C22=148.14          N6-C5-C4-C3=182.60            N6-C5-C4-H31= 60.29           
N6-C5-C4-H32=300.69           H33-C5-C4-C3=303.42           H33-C5-C4-H31=181.11          H33-C5-C4-H32= 61.51          
H34-C5-C4-C3= 60.84           H34-C5-C4-H31=298.53          H34-C5-C4-H32=178.93          C7-N6-C5-C4=295.71            
C7-N6-C5-H33=174.58           C7-N6-C5-H34= 58.31           C11-N6-C5-C4= 65.69           C11-N6-C5-H33=304.56          
C11-N6-C5-H34=188.29          C8-C7-N6-C5=195.49            C8-C7-N6-C11= 63.69           H35-C7-N6-C5=315.04           
H35-C7-N6-C11=183.25          H36-C7-N6-C5= 74.65           H36-C7-N6-C11=302.86          C9-C8-C7-N6=300.85            
C9-C8-C7-H35=181.97           C9-C8-C7-H36= 63.71           H37-C8-C7-N6=179.75           H37-C8-C7-H35= 60.87          
H37-C8-C7-H36=302.61          H38-C8-C7-N6= 60.99           H38-C8-C7-H35=302.11          H38-C8-C7-H36=183.85          
C10-C9-C8-C7= 55.62           C10-C9-C8-H37=176.59          C10-C9-C8-H38=296.01          C12-C9-C8-C7=178.98           
C12-C9-C8-H37=299.95          C12-C9-C8-H38= 59.38          H39-C9-C8-C7=296.85           H39-C9-C8-H37= 57.82          
H39-C9-C8-H38=177.24          C11-C10-C9-C8=304.21          C11-C10-C9-C12=180.97         C11-C10-C9-H39= 63.00         
H40-C10-C9-C8=183.34          H40-C10-C9-C12= 60.10         H40-C10-C9-H39=302.13         H41-C10-C9-C8= 63.87          
H41-C10-C9-C12=300.63         H41-C10-C9-H39=182.66         
           -------------------------------------------------
          |                Final Singlepoint                |
           -------------------------------------------------

          ...................................................
          :                      SETUP                      :
          :.................................................:
          :  # basis functions                 147          :
          :  # atomic orbitals                 147          :
          :  # shells                           87          :
          :  # electrons                       158          :
          :  max. iterations                   250          :
          :  Hamiltonian                  GFN2-xTB          :
          :  restarted?                      false          :
          :  GBSA solvation                  false          :
          :  PC potential                    false          :
          :  electronic temp.          300.0000000     K    :
          :  accuracy                    1.0000000          :
          :  -> integral cutoff          0.2500000E+02      :
          :  -> integral neglect         0.1000000E-07      :
          :  -> SCF convergence          0.1000000E-05 Eh   :
          :  -> wf. convergence          0.1000000E-03 e    :
          :  Broyden damping             0.4000000          :
          :  net charge                          0          :
          :  unpaired electrons                  0          :
          ...................................................

 iter      E             dE          RMSdq      gap      omega  full diag
   1    -88.8027783 -0.888028E+02  0.149E-04    1.92       0.0  T
   2    -88.8027783 -0.110091E-09  0.932E-05    1.92     142.0  T
   3    -88.8027783 -0.121304E-09  0.590E-05    1.92     224.3  T

   *** convergence criteria satisfied after 3 iterations ***

         #    Occupation            Energy/Eh            Energy/eV
      -------------------------------------------------------------
         1        2.0000           -0.8252661             -22.4566
       ...           ...                  ...                  ...
        73        2.0000           -0.4207739             -11.4498
        74        2.0000           -0.4109924             -11.1837
        75        2.0000           -0.4099697             -11.1558
        76        2.0000           -0.3905456             -10.6273
        77        2.0000           -0.3850326             -10.4773
        78        2.0000           -0.3825067             -10.4085
        79        2.0000           -0.3461194              -9.4184 (HOMO)
        80                         -0.2753827              -7.4935 (LUMO)
        81                         -0.2542941              -6.9197
        82                         -0.2385525              -6.4913
        83                         -0.2231513              -6.0723
        84                         -0.2014690              -5.4823
       ...                                ...                  ...
       147                          0.6844509              18.6249
      -------------------------------------------------------------
                  HL-Gap            0.0707366 Eh            1.9248 eV
             Fermi-level           -0.3107510 Eh           -8.4560 eV

 SCC (total)                   0 d,  0 h,  0 min,  0.111 sec
 SCC setup                      ...        0 min,  0.001 sec (  0.451%)
 Dispersion                     ...        0 min,  0.001 sec (  0.482%)
 classical contributions        ...        0 min,  0.000 sec (  0.226%)
 integral evaluation            ...        0 min,  0.011 sec (  9.742%)
 iterations                     ...        0 min,  0.011 sec (  9.722%)
 molecular gradient             ...        0 min,  0.088 sec ( 79.141%)
 printout                       ...        0 min,  0.000 sec (  0.231%)

         :::::::::::::::::::::::::::::::::::::::::::::::::::::
         ::                     SUMMARY                     ::
         :::::::::::::::::::::::::::::::::::::::::::::::::::::
         :: total energy             -87.646953530894 Eh    ::
         :: gradient norm              0.000524642267 Eh/a0 ::
         :: HOMO-LUMO gap              1.924841744611 eV    ::
         ::.................................................::
         :: SCC energy               -88.802922138883 Eh    ::
         :: -> isotropic ES            0.080639227933 Eh    ::
         :: -> anisotropic ES          0.007101613799 Eh    ::
         :: -> anisotropic XC          0.040634140602 Eh    ::
         :: -> dispersion             -0.062141087364 Eh    ::
         :: repulsion energy           1.155968607989 Eh    ::
         :: add. restraining           0.000000000000 Eh    ::
         :: total charge              -0.000000000000 e     ::
         :::::::::::::::::::::::::::::::::::::::::::::::::::::

           -------------------------------------------------
          |                Property Printout                |
           -------------------------------------------------

    * Orbital Energies and Occupations

         #    Occupation            Energy/Eh            Energy/eV
      -------------------------------------------------------------
         1        2.0000           -0.8252661             -22.4566
       ...           ...                  ...                  ...
        67        2.0000           -0.4456201             -12.1259
        68        2.0000           -0.4359684             -11.8633
        69        2.0000           -0.4334804             -11.7956
        70        2.0000           -0.4298038             -11.6956
        71        2.0000           -0.4294823             -11.6868
        72        2.0000           -0.4256001             -11.5812
        73        2.0000           -0.4207739             -11.4498
        74        2.0000           -0.4109924             -11.1837
        75        2.0000           -0.4099697             -11.1558
        76        2.0000           -0.3905456             -10.6273
        77        2.0000           -0.3850326             -10.4773
        78        2.0000           -0.3825067             -10.4085
        79        2.0000           -0.3461194              -9.4184 (HOMO)
        80                         -0.2753827              -7.4935 (LUMO)
        81                         -0.2542941              -6.9197
        82                         -0.2385525              -6.4913
        83                         -0.2231513              -6.0723
        84                         -0.2014690              -5.4823
        85                         -0.1215760              -3.3083
        86                         -0.1070087              -2.9119
        87                         -0.0389400              -1.0596
        88                         -0.0108370              -0.2949
        89                          0.0261300               0.7110
        90                          0.0438990               1.1946
       ...                                ...                  ...
       147                          0.6844509              18.6249
      -------------------------------------------------------------
                  HL-Gap            0.0707366 Eh            1.9248 eV
             Fermi-level           -0.3107510 Eh           -8.4560 eV

     #   Z          covCN         q      C6AA      α(0)
     1   8 O        0.858    -0.464    23.005     6.431
     2   6 C        2.790     0.256    22.697     7.804
     3   6 C        2.959    -0.059    29.471     8.904
     4   6 C        3.806    -0.062    21.690     6.630
     5   6 C        3.754     0.007    20.509     6.458
     6   7 N        2.731    -0.172    24.730     7.386
     7   6 C        3.763     0.014    20.387     6.436
     8   6 C        3.811    -0.061    21.665     6.625
     9   6 C        3.863    -0.021    20.906     6.502
    10   6 C        3.811    -0.061    21.673     6.627
    11   6 C        3.764     0.011    20.436     6.444
    12   6 C        3.013     0.080    26.205     8.397
    13   7 N        1.959    -0.131    24.591     7.354
    14   8 O        1.801    -0.137    16.354     5.461
    15   6 C        3.056     0.135    24.998     8.200
    16   6 C        3.027    -0.031    28.754     8.796
    17   6 C        2.914    -0.029    28.729     8.789
    18   6 C        2.920    -0.055    29.377     8.888
    19   6 C        2.797     0.172    24.284     8.073
    20   9 F        0.788    -0.215    11.394     3.987
    21   6 C        2.905    -0.072    29.793     8.950
    22   6 C        2.941     0.092    25.960     8.356
    23   7 N        1.851    -0.285    28.232     7.875
    24   6 C        2.880     0.159    24.560     8.125
    25   7 N        2.745    -0.074    22.675     7.072
    26   6 C        3.756     0.005    20.543     6.462
    27   6 C        3.808    -0.064    21.729     6.636
    28   6 C        3.808    -0.059    21.623     6.619
    29   6 C        3.817    -0.074    21.893     6.659
    30   6 C        3.760    -0.116    22.763     6.802
    31   1 H        0.925     0.033     2.538     2.491
    32   1 H        0.924     0.055     2.259     2.351
    33   1 H        0.924     0.046     2.375     2.410
    34   1 H        0.924     0.028     2.611     2.527
    35   1 H        0.924     0.033     2.544     2.494
    36   1 H        0.922     0.012     2.865     2.647
    37   1 H        0.924     0.036     2.506     2.476
    38   1 H        0.925     0.047     2.356     2.400
    39   1 H        0.924     0.056     2.249     2.345
    40   1 H        0.924     0.038     2.479     2.462
    41   1 H        0.925     0.047     2.355     2.400
    42   1 H        0.924     0.045     2.379     2.412
    43   1 H        0.923     0.015     2.818     2.625
    44   1 H        0.926     0.056     2.247     2.344
    45   1 H        0.926     0.066     2.132     2.283
    46   1 H        0.926     0.077     2.013     2.219
    47   1 H        0.924     0.079     1.988     2.205
    48   1 H        0.924     0.056     2.250     2.346
    49   1 H        0.924     0.046     2.368     2.407
    50   1 H        0.925     0.047     2.352     2.398
    51   1 H        0.924     0.043     2.407     2.426
    52   1 H        0.924     0.043     2.412     2.429
    53   1 H        0.924     0.071     2.079     2.255
    54   1 H        0.924     0.066     2.129     2.282
    55   1 H        0.925     0.054     2.274     2.358
    56   1 H        0.925     0.052     2.292     2.368
    57   1 H        0.925     0.066     2.131     2.283

 Mol. C6AA /au·bohr⁶  :      34380.927562
 Mol. C8AA /au·bohr⁸  :     798027.027763
 Mol. α(0) /au        :        282.388636


Wiberg/Mayer (AO) data.
largest (>0.10) Wiberg bond orders for each atom

 ---------------------------------------------------------------------------
     #   Z sym  total        # sym  WBO       # sym  WBO       # sym  WBO
 ---------------------------------------------------------------------------
     1   8 O    1.982 --     2 C    1.631    25 N    0.138
     2   6 C    3.950 --     1 O    1.631     3 C    1.133    25 N    1.067
     3   6 C    3.983 --    22 C    1.541     2 C    1.133     4 C    1.019
     4   6 C    3.995 --     3 C    1.019    31 H    0.971    32 H    0.966
                             5 C    0.962
     5   6 C    3.984 --     6 N    1.013    34 H    0.971    33 H    0.971
                             4 C    0.962
     6   7 N    3.150 --     5 C    1.013     7 C    1.007    11 C    1.005
     7   6 C    3.988 --     6 N    1.007     8 C    1.001    35 H    0.972
                            36 H    0.962
     8   6 C    3.996 --     7 C    1.001     9 C    0.980    37 H    0.977
                            38 H    0.974
     9   6 C    3.993 --    12 C    1.006     8 C    0.980    10 C    0.979
                            39 H    0.962
    10   6 C    3.995 --    11 C    1.002     9 C    0.979    40 H    0.977
                            41 H    0.974
    11   6 C    3.986 --     6 N    1.005    10 C    1.002    42 H    0.971
                            43 H    0.962
    12   6 C    3.974 --    13 N    1.641    16 C    1.167     9 C    1.006
    13   7 N    2.953 --    12 C    1.641    14 O    1.057
    14   8 O    2.412 --    15 C    1.127    13 N    1.057
    15   6 C    3.937 --    21 C    1.330    16 C    1.278    14 O    1.127
    16   6 C    3.983 --    17 C    1.328    15 C    1.278    12 C    1.167
    17   6 C    3.990 --    18 C    1.511    16 C    1.328    44 H    0.964
                            21 C    0.115
    18   6 C    3.987 --    17 C    1.511    19 C    1.332    45 H    0.966
    19   6 C    3.889 --    21 C    1.449    18 C    1.332    20 F    0.968
    20   9 F    1.097 --    19 C    0.968
    21   6 C    3.984 --    19 C    1.449    15 C    1.330    46 H    0.962
                            17 C    0.115
    22   6 C    3.977 --     3 C    1.541    23 N    1.238    30 C    1.023
    23   7 N    3.048 --    24 C    1.531    22 C    1.238
    24   6 C    3.959 --    23 N    1.531    25 N    1.245    29 C    1.004
    25   7 N    3.611 --    24 C    1.245     2 C    1.067    26 C    0.972
                             1 O    0.138
    26   6 C    3.962 --    27 C    1.009    25 N    0.972    48 H    0.961
                            47 H    0.960
    27   6 C    3.996 --    26 C    1.009    28 C    1.008    49 H    0.976
                            50 H    0.974
    28   6 C    3.996 --    27 C    1.008    29 C    1.008    52 H    0.977
                            51 H    0.977
    29   6 C    3.993 --    28 C    1.008    24 C    1.004    53 H    0.962
                            54 H    0.950
    30   6 C    3.994 --    22 C    1.023    57 H    0.983    56 H    0.970
                            55 H    0.965
    31   1 H    0.998 --     4 C    0.971
    32   1 H    0.997 --     4 C    0.966
    33   1 H    0.998 --     5 C    0.971
    34   1 H    0.999 --     5 C    0.971
    35   1 H    0.998 --     7 C    0.972
    36   1 H    0.999 --     7 C    0.962
    37   1 H    0.998 --     8 C    0.977
    38   1 H    0.998 --     8 C    0.974
    39   1 H    0.996 --     9 C    0.962
    40   1 H    0.998 --    10 C    0.977
    41   1 H    0.998 --    10 C    0.974
    42   1 H    0.997 --    11 C    0.971
    43   1 H    0.999 --    11 C    0.962
    44   1 H    0.997 --    17 C    0.964
    45   1 H    0.995 --    18 C    0.966
    46   1 H    0.994 --    21 C    0.962
    47   1 H    0.994 --    26 C    0.960
    48   1 H    0.996 --    26 C    0.961
    49   1 H    0.998 --    27 C    0.976
    50   1 H    0.997 --    27 C    0.974
    51   1 H    0.998 --    28 C    0.977
    52   1 H    0.998 --    28 C    0.977
    53   1 H    0.994 --    29 C    0.962
    54   1 H    0.995 --    29 C    0.950
    55   1 H    0.997 --    30 C    0.965
    56   1 H    0.997 --    30 C    0.970
    57   1 H    0.995 --    30 C    0.983
 ---------------------------------------------------------------------------

Topologies differ in total number of bonds
Writing topology from bond orders to xtbtopo.mol

molecular dipole:
                 x           y           z       tot (Debye)
 q only:       -2.421      -0.675       0.526
   full:       -2.427      -0.536       0.584       6.490
molecular quadrupole (traceless):
                xx          xy          yy          xz          yz          zz
 q only:        2.744      -5.255       1.903      -4.994       2.214      -4.647
  q+dip:        1.317      -8.557      -0.059      -1.073       3.007      -1.258
   full:        1.062      -9.242       1.625      -0.278       2.985      -2.687

           -------------------------------------------------
          |                Geometry Summary                 |
           -------------------------------------------------

      molecular mass/u    :      410.4853518
   center of mass at/Å    :        0.8329973       0.0979973       0.0673872
  moments of inertia/u·Å² :        0.1042279E+04   0.1179633E+05   0.1195373E+05
rotational constants/cm⁻¹ :        0.1617381E-01   0.1429057E-02   0.1410241E-02

 * 55 selected distances

     #   Z          #   Z                                           value/Å
     1   8 O        2   6 C                                       1.2205446
     5   6 C        6   7 N                                       1.4428891
     6   7 N        7   6 C                                       1.4482307
     7   6 C        8   6 C                                       1.5267709
     8   6 C        9   6 C                                       1.5323286
     9   6 C       10   6 C                                       1.5324250 (max)
     6   7 N       11   6 C                                       1.4493927
    10   6 C       11   6 C                                       1.5262507
     9   6 C       12   6 C                                       1.4879342
    12   6 C       13   7 N                                       1.2979402
    13   7 N       14   8 O                                       1.3687316
    14   8 O       15   6 C                                       1.3425387
    12   6 C       16   6 C                                       1.4373417
    15   6 C       16   6 C                                       1.4098354
    16   6 C       17   6 C                                       1.3946142
    17   6 C       18   6 C                                       1.3751826
    18   6 C       19   6 C                                       1.3973119
    15   6 C       21   6 C                                       1.3879359
    19   6 C       21   6 C                                       1.3772508
     3   6 C       22   6 C                                       1.3655999
    22   6 C       23   7 N                                       1.3561379
    23   7 N       24   6 C                                       1.2939628
     2   6 C       25   7 N                                       1.4071974
    24   6 C       25   7 N                                       1.3513680
    25   7 N       26   6 C                                       1.4550712
    26   6 C       27   6 C                                       1.5179933
    27   6 C       28   6 C                                       1.5229659
    28   6 C       29   6 C                                       1.5223196
     4   6 C       31   1 H                                       1.0899474
     4   6 C       32   1 H                                       1.0914657
     5   6 C       33   1 H                                       1.0930542
     5   6 C       34   1 H                                       1.0947181
     7   6 C       35   1 H                                       1.0930774
     7   6 C       36   1 H                                       1.1047456
     8   6 C       37   1 H                                       1.0914016
     8   6 C       38   1 H                                       1.0900409
     9   6 C       39   1 H                                       1.0952432
    10   6 C       40   1 H                                       1.0910882
    10   6 C       41   1 H                                       1.0900645
    11   6 C       42   1 H                                       1.0917483
    11   6 C       43   1 H                                       1.1039062
    17   6 C       44   1 H                                       1.0779351
    18   6 C       45   1 H                                       1.0783678
    21   6 C       46   1 H                                       1.0762649 (min)
    26   6 C       47   1 H                                       1.0942779
    26   6 C       48   1 H                                       1.0967569
    27   6 C       49   1 H                                       1.0919393
    27   6 C       50   1 H                                       1.0901964
    28   6 C       51   1 H                                       1.0906965
    28   6 C       52   1 H                                       1.0920360
    29   6 C       53   1 H                                       1.0903817
    29   6 C       54   1 H                                       1.0944523
    30   6 C       55   1 H                                       1.0891160
    30   6 C       56   1 H                                       1.0876362
    30   6 C       57   1 H                                       1.0857709

 * 5 distinct bonds (by element types)

   Z      Z             #   av. dist./Å        max./Å        min./Å
   1 H    6 C          27     1.0909752     1.1047456     1.0762649
   6 C    6 C          16     1.4571288     1.5324250     1.3655999
   6 C    7 N           9     1.3891322     1.4550712     1.2939628
   6 C    8 O           2     1.2815416     1.3425387     1.2205446
   7 N    8 O           1     1.3687316     1.3687316     1.3687316


optimized geometry written to: xtbopt.xyz


           -------------------------------------------------
          | TOTAL ENERGY              -87.646953530894 Eh   |
          | GRADIENT NORM               0.000524642267 Eh/α |
          | HOMO-LUMO GAP               1.924841744611 eV   |
           -------------------------------------------------

------------------------------------------------------------------------
 * finished run on 2025/05/15 at 16:25:42.619     
[...]
   ID    Z sym.   atoms
    1    8 O      1, 14
    2    6 C      2-5, 7-12, 15-19, 21, 22, 24, 26-30
    3    7 N      6, 13, 23, 25
    4    9 F      20
    5    1 H      31-57

           -------------------------------------------------
          |                Calculation Setup                |
           -------------------------------------------------

          program call               : xtb /rds/general/user/hgt20/home/callum/QDESCP/Risperidone_rdkit_conf_7/Risperidone_rdkit_conf_7.xyz --acc 1 --gfn 2 --chrg 0 --uhf 2 --etemp 300 --input /rds/general/user/hgt20/home/callum/QDESCP/Risperidone_rdkit_conf_7/Risperidone_rdkit_conf_7_xtb.inp -P 1
          hostname                   : login-c
          coordinate file            : /rds/general/user/hgt20/home/callum/QDESCP/Risperidone_rdkit_conf_7/Risperidone_rdkit_conf_7.xyz
          omp threads                :                     1


           -------------------------------------------------
          |                 G F N 2 - x T B                 |
           -------------------------------------------------

        Reference                      10.1021/acs.jctc.8b01176
      * Hamiltonian:
        H0-scaling (s, p, d)           1.850000    2.230000    2.230000
        zeta-weighting                 0.500000
      * Dispersion:
        s8                             2.700000
        a1                             0.520000
        a2                             5.000000
        s9                             5.000000
      * Repulsion:
        kExp                           1.500000    1.000000
        rExp                           1.000000
      * Coulomb:
        alpha                          2.000000
        third order                    shell-resolved
        anisotropic                    true
        a3                             3.000000
        a5                             4.000000
        cn-shift                       1.200000
        cn-exp                         4.000000
        max-rad                        5.000000


          ...................................................
          :                      SETUP                      :
          :.................................................:
          :  # basis functions                 147          :
          :  # atomic orbitals                 147          :
          :  # shells                           87          :
          :  # electrons                       158          :
          :  max. iterations                   250          :
          :  Hamiltonian                  GFN2-xTB          :
          :  restarted?                      false          :
          :  GBSA solvation                  false          :
          :  PC potential                    false          :
          :  electronic temp.          300.0000000     K    :
          :  accuracy                    1.0000000          :
          :  -> integral cutoff          0.2500000E+02      :
          :  -> integral neglect         0.1000000E-07      :
          :  -> SCF convergence          0.1000000E-05 Eh   :
          :  -> wf. convergence          0.1000000E-03 e    :
          :  Broyden damping             0.4000000          :
          :  net charge                          0          :
          :  unpaired electrons                  2          :
          ...................................................

 iter      E             dE          RMSdq      gap      omega  full diag
   1    -88.3831200 -0.883831E+02  0.362E+00    0.16       0.0  T
   2    -88.2819984  0.101122E+00  0.313E+00    0.97       1.0  T
   3    -88.4141391 -0.132141E+00  0.216E+00    1.06       1.0  T
   4    -88.4578388 -0.436997E-01  0.170E+00    0.92       1.0  T
   5    -88.4497335  0.810535E-02  0.132E+00    0.20       1.0  T
   6    -88.5640105 -0.114277E+00  0.100E+00    0.74       1.0  T
   7    -88.5708232 -0.681266E-02  0.902E-01    0.29       1.0  T
   8    -88.5200442  0.507790E-01  0.106E+00    0.37       1.0  T
   9    -88.6494684 -0.129424E+00  0.622E-01    0.22       1.0  T
  10    -88.6733697 -0.239012E-01  0.435E-01    0.12       1.0  T
  11    -88.6674593  0.591038E-02  0.456E-01    0.13       1.0  T
  12    -88.6841331 -0.166738E-01  0.176E-01    0.03       1.0  T
  13    -88.6831401  0.993022E-03  0.218E-01    0.01       1.0  T
  14    -88.6590423  0.240977E-01  0.410E-01    0.08       1.0  T
  15    -88.6559989  0.304345E-02  0.472E-01    0.02       1.0  T
  16    -88.6792613 -0.232624E-01  0.233E-01    0.01       1.0  T
  17    -88.6868306 -0.756927E-02  0.434E-02    0.04       1.0  T
  18    -88.6865146  0.315929E-03  0.630E-02    0.03       1.0  T
  19    -88.6869563 -0.441626E-03  0.129E-02    0.04       1.0  T
  20    -88.6869696 -0.133480E-04  0.104E-02    0.04       1.3  T
  21    -88.6869757 -0.609962E-05  0.575E-03    0.04       2.3  T
  22    -88.6869769 -0.119766E-05  0.362E-03    0.04       3.7  T
  23    -88.6869774 -0.475659E-06  0.229E-03    0.04       5.8  T
  24    -88.6869775 -0.146860E-06  0.151E-03    0.04       8.8  T
  25    -88.6869776 -0.756433E-07  0.101E-03    0.04      13.1  T
  26    -88.6869777 -0.798961E-07  0.172E-04    0.04      77.1  T
  27    -88.6869777 -0.185581E-08  0.647E-05    0.04     204.8  T

   *** convergence criteria satisfied after 27 iterations ***

         #    Occupation            Energy/Eh            Energy/eV
      -------------------------------------------------------------
         1        2.0000           -0.8039409             -21.8763
       ...           ...                  ...                  ...
        74        2.0000           -0.4043610             -11.0032
        75        2.0000           -0.3982479             -10.8369
        76        1.9841           -0.3909456             -10.6382
        77        1.9579           -0.3899929             -10.6122
        78        1.9487           -0.3897950             -10.6069
        79        1.1093           -0.3850310             -10.4772
        80        0.6943           -0.2539454              -6.9102 (HOMO)
        81        0.3057           -0.2523864              -6.8678 (LUMO)
        82                         -0.2291493              -6.2355
        83                         -0.2151765              -5.8553
        84                         -0.1803612              -4.9079
        85                         -0.1274123              -3.4671
       ...                                ...                  ...
       147                          0.7020352              19.1033
      -------------------------------------------------------------
                  HL-Gap            0.0015590 Eh            0.0424 eV
             Fermi-level           -0.3200950 Eh           -8.7102 eV

 transition dipole moment (au) for excitation:          79          80
     X       Y       Z   
  -1.2559  -0.5822   0.1961  total (au/Debye):    1.398   3.554
 dE (eV)             :    3.567
 oscillator strength :  0.24156E+00

 SCC (total)                   0 d,  0 h,  0 min,  0.249 sec
 SCC setup                      ...        0 min,  0.001 sec (  0.225%)
 Dispersion                     ...        0 min,  0.001 sec (  0.320%)
 classical contributions        ...        0 min,  0.000 sec (  0.103%)
 integral evaluation            ...        0 min,  0.011 sec (  4.564%)
 iterations                     ...        0 min,  0.148 sec ( 59.471%)
 molecular gradient             ...        0 min,  0.040 sec ( 15.875%)
 printout                       ...        0 min,  0.048 sec ( 19.439%)

         :::::::::::::::::::::::::::::::::::::::::::::::::::::
         ::                     SUMMARY                     ::
         :::::::::::::::::::::::::::::::::::::::::::::::::::::
         :: total energy             -87.531152884678 Eh    ::
         :: gradient norm              0.125082227199 Eh/a0 ::
         :: HOMO-LUMO gap              0.042421830129 eV    ::
         ::.................................................::
         :: SCC energy               -88.687121492667 Eh    ::
         :: -> isotropic ES            0.076740939854 Eh    ::
         :: -> anisotropic ES          0.005405905100 Eh    ::
         :: -> anisotropic XC          0.036276971396 Eh    ::
         :: -> dispersion             -0.061815896448 Eh    ::
         :: repulsion energy           1.155968607989 Eh    ::
         :: add. restraining           0.000000000000 Eh    ::
         :: total charge              -0.000000000005 e     ::
         :::::::::::::::::::::::::::::::::::::::::::::::::::::

           -------------------------------------------------
          |                Property Printout                |
           -------------------------------------------------

    * Orbital Energies and Occupations

         #    Occupation            Energy/Eh            Energy/eV
      -------------------------------------------------------------
         1        2.0000           -0.8039409             -21.8763
       ...           ...                  ...                  ...
        68        2.0000           -0.4461393             -12.1401
        69        2.0000           -0.4432693             -12.0620
        70        2.0000           -0.4307024             -11.7200
        71        2.0000           -0.4284268             -11.6581
        72        2.0000           -0.4266697             -11.6103
        73        2.0000           -0.4058578             -11.0440
        74        2.0000           -0.4043610             -11.0032
        75        2.0000           -0.3982479             -10.8369
        76        1.9841           -0.3909456             -10.6382
        77        1.9579           -0.3899929             -10.6122
        78        1.9487           -0.3897950             -10.6069
        79        1.1093           -0.3850310             -10.4772
        80        0.6943           -0.2539454              -6.9102 (HOMO)
        81        0.3057           -0.2523864              -6.8678 (LUMO)
        82                         -0.2291493              -6.2355
        83                         -0.2151765              -5.8553
        84                         -0.1803612              -4.9079
        85                         -0.1274123              -3.4671
        86                         -0.0837664              -2.2794
        87                         -0.0212229              -0.5775
        88                         -0.0156278              -0.4253
        89                         -0.0050388              -0.1371
        90                          0.0457388               1.2446
        91                          0.0461947               1.2570
       ...                                ...                  ...
       147                          0.7020352              19.1033
      -------------------------------------------------------------
                  HL-Gap            0.0015590 Eh            0.0424 eV
             Fermi-level           -0.3200950 Eh           -8.7102 eV

     #   Z          covCN         q      C6AA      α(0)
     1   8 O        0.858    -0.441    22.507     6.361
     2   6 C        2.790     0.251    22.785     7.819
     3   6 C        2.959    -0.056    29.378     8.890
     4   6 C        3.806    -0.055    21.563     6.610
     5   6 C        3.754     0.000    20.630     6.477
     6   7 N        2.731    -0.086    22.924     7.111
     7   6 C        3.763     0.001    20.598     6.469
     8   6 C        3.811    -0.064    21.716     6.633
     9   6 C        3.863    -0.022    20.926     6.505
    10   6 C        3.811    -0.064    21.720     6.634
    11   6 C        3.764    -0.001    20.645     6.476
    12   6 C        3.013     0.062    26.595     8.459
    13   7 N        1.959    -0.158    25.194     7.443
    14   8 O        1.801    -0.148    16.524     5.489
    15   6 C        3.056     0.132    25.061     8.210
    16   6 C        3.027    -0.042    29.021     8.836
    17   6 C        2.914    -0.048    29.195     8.860
    18   6 C        2.920    -0.060    29.500     8.907
    19   6 C        2.797     0.160    24.530     8.113
    20   9 F        0.788    -0.228    11.527     4.011
    21   6 C        2.905    -0.084    30.095     8.995
    22   6 C        2.941     0.063    26.593     8.458
    23   7 N        1.851    -0.256    27.502     7.772
    24   6 C        2.880     0.135    25.040     8.203
    25   7 N        2.745    -0.095    23.095     7.137
    26   6 C        3.756     0.007    20.512     6.458
    27   6 C        3.808    -0.064    21.713     6.633
    28   6 C        3.808    -0.058    21.613     6.618
    29   6 C        3.817    -0.072    21.856     6.654
    30   6 C        3.760    -0.114    22.731     6.797
    31   1 H        0.925     0.047     2.353     2.399
    32   1 H        0.924     0.065     2.143     2.289
    33   1 H        0.924     0.066     2.133     2.284
    34   1 H        0.924     0.051     2.305     2.374
    35   1 H        0.924     0.046     2.366     2.405
    36   1 H        0.922     0.041     2.437     2.441
    37   1 H        0.924     0.047     2.357     2.401
    38   1 H        0.925     0.055     2.264     2.353
    39   1 H        0.924     0.052     2.295     2.369
    40   1 H        0.924     0.049     2.332     2.388
    41   1 H        0.925     0.055     2.261     2.351
    42   1 H        0.924     0.058     2.225     2.333
    43   1 H        0.923     0.045     2.389     2.417
    44   1 H        0.926     0.031     2.569     2.506
    45   1 H        0.926     0.051     2.304     2.374
    46   1 H        0.926     0.063     2.163     2.300
    47   1 H        0.924     0.072     2.061     2.245
    48   1 H        0.924     0.049     2.327     2.386
    49   1 H        0.924     0.045     2.377     2.411
    50   1 H        0.925     0.045     2.379     2.412
    51   1 H        0.924     0.042     2.429     2.437
    52   1 H        0.924     0.042     2.422     2.434
    53   1 H        0.924     0.066     2.134     2.284
    54   1 H        0.924     0.062     2.173     2.305
    55   1 H        0.925     0.048     2.342     2.393
    56   1 H        0.925     0.044     2.395     2.420
    57   1 H        0.925     0.065     2.140     2.288

 Mol. C6AA /au·bohr⁶  :      34292.356475
 Mol. C8AA /au·bohr⁸  :     797309.736429
 Mol. α(0) /au        :        282.041182


Wiberg/Mayer (AO) data.
largest (>0.10) Wiberg bond orders for each atom

 ---------------------------------------------------------------------------
     #   Z sym  total        # sym  WBO       # sym  WBO       # sym  WBO
 ---------------------------------------------------------------------------
     1   8 O    1.940 --     2 C    1.607
     2   6 C    3.923 --     1 O    1.607     3 C    1.177    25 N    1.029
     3   6 C    3.780 --    22 C    1.222     2 C    1.177     4 C    1.057
     4   6 C    3.978 --     3 C    1.057    31 H    0.965    32 H    0.961
                             5 C    0.911
     5   6 C    3.961 --     6 N    1.038    34 H    0.966    33 H    0.966
                             4 C    0.911
     6   7 N    3.285 --     5 C    1.038     7 C    1.006    11 C    1.005
     7   6 C    3.973 --     6 N    1.006     8 C    0.996    35 H    0.971
                            36 H    0.948
     8   6 C    3.983 --     7 C    0.996     9 C    0.984    37 H    0.975
                            38 H    0.973
     9   6 C    3.993 --    12 C    1.002     8 C    0.984    10 C    0.984
                            39 H    0.963
    10   6 C    3.983 --    11 C    0.996     9 C    0.984    40 H    0.975
                            41 H    0.973
    11   6 C    3.971 --     6 N    1.005    10 C    0.996    42 H    0.970
                            43 H    0.946
    12   6 C    3.901 --    13 N    1.557    16 C    1.197     9 C    1.002
    13   7 N    2.821 --    12 C    1.557    14 O    1.048
    14   8 O    2.375 --    15 C    1.118    13 N    1.048
    15   6 C    3.932 --    21 C    1.341    16 C    1.273    14 O    1.118
    16   6 C    3.953 --    17 C    1.286    15 C    1.273    12 C    1.197
    17   6 C    3.875 --    18 C    1.480    16 C    1.286    44 H    0.966
    18   6 C    3.978 --    17 C    1.480    19 C    1.353    45 H    0.968
    19   6 C    3.814 --    21 C    1.387    18 C    1.353    20 F    0.956
    20   9 F    1.074 --    19 C    0.956
    21   6 C    3.897 --    19 C    1.387    15 C    1.341    46 H    0.964
    22   6 C    3.773 --    23 N    1.327     3 C    1.222    30 C    1.026
    23   7 N    2.996 --    24 C    1.429    22 C    1.327
    24   6 C    3.804 --    23 N    1.429    25 N    1.187    29 C    1.006
    25   7 N    3.458 --    24 C    1.187     2 C    1.029    26 C    0.976
    26   6 C    3.964 --    27 C    1.008    25 N    0.976    47 H    0.962
                            48 H    0.961
    27   6 C    3.995 --    26 C    1.008    28 C    1.008    49 H    0.976
                            50 H    0.975
    28   6 C    3.996 --    29 C    1.008    27 C    1.008    51 H    0.977
                            52 H    0.976
    29   6 C    3.989 --    28 C    1.008    24 C    1.006    53 H    0.962
                            54 H    0.947
    30   6 C    3.991 --    22 C    1.026    57 H    0.983    56 H    0.967
                            55 H    0.964
    31   1 H    0.996 --     4 C    0.965
    32   1 H    0.993 --     4 C    0.961
    33   1 H    0.995 --     5 C    0.966
    34   1 H    0.996 --     5 C    0.966
    35   1 H    0.997 --     7 C    0.971
    36   1 H    0.985 --     7 C    0.948
    37   1 H    0.997 --     8 C    0.975
    38   1 H    0.996 --     8 C    0.973
    39   1 H    0.997 --     9 C    0.963
    40   1 H    0.997 --    10 C    0.975
    41   1 H    0.996 --    10 C    0.973
    42   1 H    0.995 --    11 C    0.970
    43   1 H    0.987 --    11 C    0.946
    44   1 H    0.999 --    17 C    0.966
    45   1 H    0.997 --    18 C    0.968
    46   1 H    0.996 --    21 C    0.964
    47   1 H    0.992 --    26 C    0.962
    48   1 H    0.991 --    26 C    0.961
    49   1 H    0.998 --    27 C    0.976
    50   1 H    0.997 --    27 C    0.975
    51   1 H    0.997 --    28 C    0.977
    52   1 H    0.997 --    28 C    0.976
    53   1 H    0.991 --    29 C    0.962
    54   1 H    0.987 --    29 C    0.947
    55   1 H    0.990 --    30 C    0.964
    56   1 H    0.992 --    30 C    0.967
    57   1 H    0.995 --    30 C    0.983
 ---------------------------------------------------------------------------

Topologies differ in total number of bonds
Writing topology from bond orders to xtbtopo.mol

molecular dipole:
                 x           y           z       tot (Debye)
 q only:       -3.808      -0.823       0.082
   full:       -3.846      -0.688       0.217       9.945
molecular quadrupole (traceless):
                xx          xy          yy          xz          yz          zz
 q only:      -30.492      -8.276      20.188     -10.653       1.582      10.304
  q+dip:      -33.249     -11.767      18.769      -6.325       2.339      14.479
   full:      -33.492     -12.307      20.347      -5.495       2.305      13.145


           -------------------------------------------------
          | TOTAL ENERGY              -87.531152884678 Eh   |
          | GRADIENT NORM               0.125082227199 Eh/α |
          | HOMO-LUMO GAP               0.042421830129 eV   |
           -------------------------------------------------

------------------------------------------------------------------------
 * finished run on 2025/05/15 at 16:25:46.799     
------------------------------------------------------------------------
 total:
 * wall-time:     0 d,  0 h,  0 min,  0.266 sec
 *  cpu-time:     0 d,  0 h,  0 min,  0.175 sec
 * ratio c/w:     0.658 speedup
 SCF:
 * wall-time:     0 d,  0 h,  0 min,  0.250 sec
 *  cpu-time:     0 d,  0 h,  0 min,  0.160 sec
 * ratio c/w:     0.640 speedup


