57
 energy: -90.574425385453 gnorm: 0.000212135466 xtb: 6.7.1 (edcfbbe)
C            3.37315710946908        1.32390177293655       -2.13671105791584
N            3.69382336593272        0.67172919183941       -0.88450647377139
C            4.95747421938675        0.22240378300110       -0.70505818174070
N            5.87204441799395        0.55061317658349       -1.58643592582021
C            7.12888081957699        0.11640125702452       -1.38109688923266
C            7.52576575142391       -0.63405172194229       -0.32105850681068
C            6.55790087906444       -1.03101881614383        0.65734143875335
N            5.26326820109816       -0.55254551069924        0.37026505243187
O            6.71681637396250       -1.70977507239555        1.65171967429175
C            2.62295848739960        0.41937218012296        0.06365701642271
C            1.61094941803372        1.56650386456990        0.12506435052832
C            0.55358287309355        1.24297838501525        1.17823140508617
C            1.87468620140485       -0.88652432898697       -0.24675752080308
C            0.78484236827588       -1.11284380060416        0.79779897192181
N           -0.12936657033308        0.02083925945420        0.78454091092874
C           -1.35247049681776       -0.16640414820593        1.40954355015891
N           -1.72344514563163        0.40515807323529        2.51840314030931
C           -3.02043239386923        0.00318826394390        2.72514129797256
C           -3.42087585203664       -0.84737603635313        1.67029942965323
N           -2.32499432599232       -0.95453787913167        0.83946346241989
C           -2.35644533302547       -1.49362932906379       -0.49779775213015
C           -3.11044852208225       -0.56288728658177       -1.41860043445492
C           -4.26657941074732       -0.96612135915597       -2.07034208116610
C           -4.95751385497618       -0.08886887020600       -2.88789062169381
C           -4.47642075815888        1.19820179392771       -3.03695129586800
F           -5.14368808679540        2.05931689329327       -3.83099194621602
C           -3.32729892839577        1.62797721709980       -2.39686203078909
C           -2.64820136229134        0.73772521153480       -1.58771153723131
C           -4.68860964835966       -1.39850943886575        1.61998436162864
C           -5.55201685088773       -1.08359307328626        2.65220594414394
C           -5.16330682483085       -0.25057663652969        3.70057349909551
C           -3.90071116484573        0.30434261395568        3.75541063627891
H            4.24434179333815        1.24239759310259       -2.78109790929555
H            2.52074310156814        0.83604587877027       -2.61082000453000
H            3.14783267972044        2.37953163383629       -1.98143899353176
H            7.82811530659051        0.42524382801739       -2.14689165652947
H            8.54405599228498       -0.95554778955400       -0.18838917621087
H            4.56184112809541       -0.84145378992794        1.03922951521343
H            3.06333531669478        0.34446610879358        1.06545301934970
H            1.11525781070438        1.68721200895030       -0.83758996697028
H            2.11412581076975        2.49837286003491        0.38338836220255
H           -0.18807564492394        2.03991585536228        1.23785670044171
H            1.01478704056288        1.14031325042834        2.17068180698836
H            2.56532783626910       -1.73156370792489       -0.25042493749942
H            1.41910804771409       -0.81403126546267       -1.23575007692997
H            1.24555787543677       -1.22286051731909        1.79344393900739
H            0.23545455544060       -2.03170429930379        0.58619700202189
H           -2.83240274007263       -2.47854803925643       -0.47300155434515
H           -1.33018207490967       -1.60300430186155       -0.85436886406555
H           -4.63290128906598       -1.97446577318512       -1.94601520951988
H           -5.85740655717926       -0.38856321869186       -3.40081700948459
H           -2.98240575458481        2.64025384010503       -2.53593225845115
H           -1.75203678187179        1.05144222242513       -1.07323063323864
H           -4.99706349904473       -2.04308277844113        0.81090565437441
H           -6.55186130894041       -1.49154325930600        2.64687699421113
H           -5.87206166720372       -0.03609338093561        4.48669023192394
H           -3.59651193342675        0.94817741191938        4.56467313845083
