42
 energy: -71.307600015653 gnorm: 0.000495570368 xtb: 6.7.1 (edcfbbe)
O            5.99831743132295       -1.48243019757174       -0.31109562154529
C            5.03698056115488       -2.03489806982643       -0.80360310631535
O            5.15216175533967       -3.13954343706478       -1.53397116185891
C            3.65385073207643       -1.55383447754894       -0.63325951113847
C            3.48365969694593       -0.51695925618498        0.23394166172574
N            2.30358777368481        0.05526877484890        0.52621202617666
C            1.13987921041983       -0.46524450763002       -0.01999838639631
C           -0.10949443137432        0.02489696961067        0.35635535330540
C           -1.29953384540845       -0.46870986080783       -0.18105589659238
N           -2.52644435196017        0.05554896619826        0.14928262623166
C           -2.62899224871213        1.33332777782669        0.82042520431474
C           -3.95051584324476        2.00903696232904        0.40946631902138
N           -5.11642533274819        1.18846692987280        0.65428090800230
C           -4.95706156613604       -0.10094309208060        0.00975911330010
C           -3.66244935428449       -0.80214343215550        0.43685412495824
C           -1.16520941883210       -1.49467304400948       -1.14258936485070
F           -2.26561832342011       -1.98320015154878       -1.76767171719019
C            0.04951009839317       -2.01007317577402       -1.49946477970860
C            1.23263708980507       -1.51589432703801       -0.94440200797582
C            2.51399131717564       -2.12043316101399       -1.35354501807986
O            2.57386641409118       -2.99180710213179       -2.20170201946479
C            2.26342204985643        1.17352840725492        1.42197770135259
C            3.26695285494409        2.27479735931608        1.25734755052207
C            1.83446645681730        2.51468115655772        0.89700011004693
H            6.08554738586672       -3.39044292578579       -1.61316964047414
H            4.35404339920318       -0.11629064881981        0.73659429236051
H           -0.15808948492450        0.79419511168038        1.10675578697507
H           -1.80239838285300        1.97473621354520        0.51396986311674
H           -2.60248052425154        1.21067133684711        1.91642231259696
H           -4.06099708281498        2.95369123700676        0.94577952148169
H           -3.91886307001404        2.21763614885930       -0.66363764162916
H           -5.24173739464167        1.05617534116504        1.65497711734436
H           -4.93487589817104        0.06720717623156       -1.06994046130516
H           -5.81751558267999       -0.72758646109692        0.24915976418518
H           -3.56911062377353       -1.75442982423829       -0.07594545457286
H           -3.70065593251631       -0.99969740734495        1.52240672702966
H            0.11632604091630       -2.79792236197313       -2.23373570546072
H            1.96725068467420        0.90509592667178        2.43225258436054
H            3.97974518778475        2.19722698738719        0.45143563574804
H            3.66433386371870        2.73341988657143        2.14920129547909
H            1.23214243956658        3.14618601633375        1.53218492903861
H            1.58589624900632        2.58136223553547       -0.15115503411745
