----- Optimization -----
      -----------------------------------------------------------      
     |                   =====================                   |     
     |                           x T B                           |     
     |                   =====================                   |     
     |                         S. Grimme                         |     
     |          Mulliken Center for Theoretical Chemistry        |     
     |                    University of Bonn                     |     
      -----------------------------------------------------------      

   * xtb version 6.7.1 (edcfbbe) compiled by 'conda@3ef47c1a292c' on 2024-11-25

   xtb is free software: you can redistribute it and/or modify it under
   the terms of the GNU Lesser General Public License as published by
   the Free Software Foundation, either version 3 of the License, or
   (at your option) any later version.
   
   xtb is distributed in the hope that it will be useful,
   but WITHOUT ANY WARRANTY; without even the implied warranty of
   MERCHANTABILITY or FITNESS FOR A PARTICULAR PURPOSE.  See the
   GNU Lesser General Public License for more details.
   
   Cite this work as:
   * C. Bannwarth, E. Caldeweyher, S. Ehlert, A. Hansen, P. Pracht,
     J. Seibert, S. Spicher, S. Grimme, WIREs Comput. Mol. Sci., 2020, 11,
     e01493. DOI: 10.1002/wcms.1493
   
   for GFN2-xTB:
   * C. Bannwarth, S. Ehlert and S. Grimme., J. Chem. Theory Comput., 2019,
     15, 1652-1671. DOI: 10.1021/acs.jctc.8b01176
   for GFN1-xTB:
   * S. Grimme, C. Bannwarth, P. Shushkov, J. Chem. Theory Comput., 2017,
     13, 1989-2009. DOI: 10.1021/acs.jctc.7b00118
   for GFN0-xTB:
   * P. Pracht, E. Caldeweyher, S. Ehlert, S. Grimme, ChemRxiv, 2019, preprint.
     DOI: 10.26434/chemrxiv.8326202.v1
   for GFN-FF:
   * S. Spicher and S. Grimme, Angew. Chem. Int. Ed., 2020, 59, 15665-15673.
     DOI: 10.1002/anie.202004239
   
   for ALPB and GBSA implicit solvation:
   * S. Ehlert, M. Stahn, S. Spicher, S. Grimme, J. Chem. Theory Comput.,
     2021, 17, 4250-4261. DOI: 10.1021/acs.jctc.1c00471
   
   for ddCOSMO and CPCM-X implicit solvation:
   * M. Stahn, S. Ehlert, S. Grimme, J. Phys. Chem. A,
     2023, XX, XXXX-XXXX. DOI: 10.1021/acs.jpca.3c04382
   
   for DFT-D4:
   * E. Caldeweyher, C. Bannwarth and S. Grimme, J. Chem. Phys., 2017,
     147, 034112. DOI: 10.1063/1.4993215
   * E. Caldeweyher, S. Ehlert, A. Hansen, H. Neugebauer, S. Spicher,
     C. Bannwarth and S. Grimme, J. Chem. Phys., 2019, 150, 154122.
     DOI: 10.1063/1.5090222
   * E. Caldeweyher, J.-M. Mewes, S. Ehlert and S. Grimme, Phys. Chem. Chem. Phys.
     2020, 22, 8499-8512. DOI: 10.1039/D0CP00502A
   
   for sTDA-xTB:
   * S. Grimme and C. Bannwarth, J. Chem. Phys., 2016, 145, 054103.
     DOI: 10.1063/1.4959605
   
   in the mass-spec context:
   * V. Asgeirsson, C. Bauer and S. Grimme, Chem. Sci., 2017, 8, 4879.
     DOI: 10.1039/c7sc00601b
   * J. Koopman and S. Grimme, ACS Omega 2019, 4, 12, 15120-15133.
     DOI: 10.1021/acsomega.9b02011
   
   for metadynamics refer to:
   * S. Grimme, J. Chem. Theory Comput., 2019, 155, 2847-2862
     DOI: 10.1021/acs.jctc.9b00143
   
   for SPH calculations refer to:
   * S. Spicher and S. Grimme, J. Chem. Theory Comput., 2021, 17, 1701-1714
     DOI: 10.1021/acs.jctc.0c01306
   
   for ONIOM refer to:
   * C. Plett, A. Katbashev, S. Ehlert, S. Grimme, M. Bursch,
     Phys. Chem. Chem. Phys., 2023, 25, 17860-17868. DOI: 10.1039/D3CP02178E
   
   for DIPRO refer to:
   * J. Kohn, N. Gildemeister, S. Grimme, D. Fazzi, A. Hansen,
     J. Chem. Phys., 2023, just accepted.
   
   for PTB refer to:
   * S. Grimme, M. Mueller, A. Hansen, J. Chem. Phys., 2023, 158, 124111.
     DOI: 10.1063/5.0137838
   
   with help from (in alphabetical order)
   P. Atkinson, C. Bannwarth, F. Bohle, G. Brandenburg, E. Caldeweyher
   M. Checinski, S. Dohm, S. Ehlert, S. Ehrlich, I. Gerasimov, C. Hölzer
   A. Katbashev, J. Kohn, J. Koopman, C. Lavigne, S. Lehtola, F. März, M. Müller,
   F. Musil, H. Neugebauer, J. Pisarek, C. Plett, P. Pracht, F. Pultar,
   J. Seibert, P. Shushkov, S. Spicher, M. Stahn, M. Steiner, T. Strunk,
   J. Stückrath, T. Rose, and J. Unsleber
   
 * started run on 2025/05/15 at 16:12:11.741     
   ID    Z sym.   atoms
    1    8 O      1, 3, 21
    2    6 C      2, 4, 5, 7-9, 11, 12, 14-16, 18-20, 22-24
    3    7 N      6, 10, 13
    4    9 F      17
    5    1 H      25-42

           -------------------------------------------------
          |                Calculation Setup                |
           -------------------------------------------------

          program call               : xtb /rds/general/user/hgt20/home/callum/QDESCP/Ciprofloxacin_rdkit_conf_14/Ciprofloxacin_rdkit_conf_14.xyz --opt normal --acc 1 --gfn 2 --chrg 0 --uhf 0 -P 1
          hostname                   : login-c
          coordinate file            : /rds/general/user/hgt20/home/callum/QDESCP/Ciprofloxacin_rdkit_conf_14/Ciprofloxacin_rdkit_conf_14.xyz
          omp threads                :                     1


           -------------------------------------------------
          |                 G F N 2 - x T B                 |
           -------------------------------------------------

        Reference                      10.1021/acs.jctc.8b01176
      * Hamiltonian:
        H0-scaling (s, p, d)           1.850000    2.230000    2.230000
        zeta-weighting                 0.500000
      * Dispersion:
        s8                             2.700000
        a1                             0.520000
        a2                             5.000000
        s9                             5.000000
      * Repulsion:
        kExp                           1.500000    1.000000
        rExp                           1.000000
      * Coulomb:
        alpha                          2.000000
        third order                    shell-resolved
        anisotropic                    true
        a3                             3.000000
        a5                             4.000000
        cn-shift                       1.200000
        cn-exp                         4.000000
        max-rad                        5.000000


          ...................................................
          :                      SETUP                      :
          :.................................................:
          :  # basis functions                 114          :
          :  # atomic orbitals                 114          :
          :  # shells                           66          :
          :  # electrons                       126          :
          :  max. iterations                   250          :
          :  Hamiltonian                  GFN2-xTB          :
          :  restarted?                      false          :
          :  GBSA solvation                  false          :
          :  PC potential                    false          :
          :  electronic temp.          300.0000000     K    :
          :  accuracy                    1.0000000          :
          :  -> integral cutoff          0.2500000E+02      :
          :  -> integral neglect         0.1000000E-07      :
          :  -> SCF convergence          0.1000000E-05 Eh   :
          :  -> wf. convergence          0.1000000E-03 e    :
          :  Broyden damping             0.4000000          :
          :  net charge                          0          :
          :  unpaired electrons                  0          :
          ...................................................

 iter      E             dE          RMSdq      gap      omega  full diag
   1    -71.9793063 -0.719793E+02  0.401E+00    2.48       0.0  T
   2    -72.0975494 -0.118243E+00  0.240E+00    2.34       1.0  T
   3    -72.1080181 -0.104686E-01  0.138E+00    2.58       1.0  T
   4    -72.1247622 -0.167441E-01  0.463E-01    2.52       1.0  T
   5    -72.1316948 -0.693261E-02  0.107E-01    2.50       1.0  T
   6    -72.1319083 -0.213538E-03  0.511E-02    2.50       1.0  T
   7    -72.1319389 -0.305644E-04  0.224E-02    2.51       1.0  T
   8    -72.1319412 -0.225378E-05  0.887E-03    2.51       1.7  T
   9    -72.1319429 -0.177836E-05  0.403E-03    2.51       3.8  T
  10    -72.1319431 -0.139451E-06  0.154E-03    2.51      10.0  T
  11    -72.1319431 -0.514924E-07  0.672E-04    2.51      23.0  T
  12    -72.1319431 -0.629655E-08  0.271E-04    2.51      57.0  T

   *** convergence criteria satisfied after 12 iterations ***

         #    Occupation            Energy/Eh            Energy/eV
      -------------------------------------------------------------
         1        2.0000           -0.8222341             -22.3741
       ...           ...                  ...                  ...
        57        2.0000           -0.4360119             -11.8645
        58        2.0000           -0.4264349             -11.6039
        59        2.0000           -0.4190335             -11.4025
        60        2.0000           -0.3909861             -10.6393
        61        2.0000           -0.3820472             -10.3960
        62        2.0000           -0.3796574             -10.3310
        63        2.0000           -0.3703170             -10.0768 (HOMO)
        64                         -0.2780808              -7.5670 (LUMO)
        65                         -0.2662059              -7.2438
        66                         -0.2347783              -6.3886
        67                         -0.2137837              -5.8173
        68                         -0.1504609              -4.0943
       ...                                ...                  ...
       114                          0.6925111              18.8442
      -------------------------------------------------------------
                  HL-Gap            0.0922362 Eh            2.5099 eV
             Fermi-level           -0.3241989 Eh           -8.8219 eV

 SCC (total)                   0 d,  0 h,  0 min,  0.134 sec
 SCC setup                      ...        0 min,  0.000 sec (  0.278%)
 Dispersion                     ...        0 min,  0.000 sec (  0.349%)
 classical contributions        ...        0 min,  0.000 sec (  0.119%)
 integral evaluation            ...        0 min,  0.037 sec ( 27.626%)
 iterations                     ...        0 min,  0.027 sec ( 20.264%)
 molecular gradient             ...        0 min,  0.069 sec ( 51.203%)
 printout                       ...        0 min,  0.000 sec (  0.156%)

         :::::::::::::::::::::::::::::::::::::::::::::::::::::
         ::                     SUMMARY                     ::
         :::::::::::::::::::::::::::::::::::::::::::::::::::::
         :: total energy             -71.291141938316 Eh    ::
         :: gradient norm              0.081135400241 Eh/a0 ::
         :: HOMO-LUMO gap              2.509873834172 eV    ::
         ::.................................................::
         :: SCC energy               -72.131864495123 Eh    ::
         :: -> isotropic ES            0.106667637359 Eh    ::
         :: -> anisotropic ES          0.008188448416 Eh    ::
         :: -> anisotropic XC          0.020857943403 Eh    ::
         :: -> dispersion             -0.045193770547 Eh    ::
         :: repulsion energy           0.840722556807 Eh    ::
         :: add. restraining           0.000000000000 Eh    ::
         :: total charge               0.000000000000 e     ::
         :::::::::::::::::::::::::::::::::::::::::::::::::::::

      ----------------------------------------------------------- 
     |                   =====================                   |
     |                        A N C O P T                        |
     |                   =====================                   |
     |               Approximate Normal Coordinate               |
     |                Rational Function Optimizer                |
      ----------------------------------------------------------- 
      ----------------------------------------------------------- 
     |                   =====================                   |
     |                        A N C O P T                        |
     |                   =====================                   |
     |               Approximate Normal Coordinate               |
     |                Rational Function Optimizer                |
      ----------------------------------------------------------- 

          ...................................................
          :                      SETUP                      :
          :.................................................:
          :   optimization level            normal          :
          :   max. optcycles                   200          :
          :   ANC micro-cycles                  20          :
          :   degrees of freedom               120          :
          :.................................................:
          :   RF solver                   davidson          :
          :   write xtbopt.log                true          :
          :   linear?                        false          :
          :   energy convergence         0.5000000E-05 Eh   :
          :   grad. convergence          0.1000000E-02 Eh/α :
          :   maxmium RF displ.          1.0000000          :
          :   Hlow (freq-cutoff)         0.1000000E-01      :
          :   Hmax (freq-cutoff)         5.0000000          :
          :   S6 in model hess.         20.0000000          :
          ...................................................

generating ANC from exact Hessian ...
Using Lindh-Hessian (1995)
 Shifting diagonal of input Hessian by    9.6135449204154174E-003
 Lowest  eigenvalues of input Hessian
    0.000000    0.000000    0.000000    0.000000    0.000000    0.000000
    0.010000    0.010281    0.010696    0.011540    0.011899    0.012409
    0.012981    0.014252    0.016165    0.016653    0.019005    0.020083
 Highest eigenvalues
    1.866548    1.975417    2.024999    2.090235    2.211821    2.340888


........................................................................
.............................. CYCLE    1 ..............................
........................................................................

 iter      E             dE          RMSdq      gap      omega  full diag
   1    -72.1319431 -0.721319E+02  0.122E-04    2.51       0.0  T
   2    -72.1319431 -0.123535E-09  0.796E-05    2.51     193.8  T
   3    -72.1319431 -0.980975E-10  0.469E-05    2.51     328.7  T
     SCC iter.                  ...        0 min,  0.007 sec
     gradient                   ...        0 min,  0.023 sec
 * total energy  :   -71.2911419 Eh     change       -0.9991936E-09 Eh
   gradient norm :     0.0811371 Eh/α   predicted     0.0000000E+00 (-100.00%)
   displ. norm   :     0.3645408 α      lambda       -0.1484800E-01
   maximum displ.:     0.1328754 α      in ANC's #15, #12, #29, ...

........................................................................
.............................. CYCLE    2 ..............................
........................................................................

 iter      E             dE          RMSdq      gap      omega  full diag
   1    -72.1693915 -0.721694E+02  0.232E-01    2.50       0.0  T
   2    -72.1697474 -0.355958E-03  0.159E-01    2.52       1.0  T
   3    -72.1698786 -0.131198E-03  0.894E-02    2.52       1.0  T
   4    -72.1699651 -0.864662E-04  0.259E-02    2.51       1.0  T
   5    -72.1699868 -0.216839E-04  0.520E-03    2.52       3.0  T
   6    -72.1699872 -0.419517E-06  0.262E-03    2.52       5.9  T
   7    -72.1699873 -0.554101E-07  0.964E-04    2.52      16.0  T
   8    -72.1699873 -0.693667E-08  0.374E-04    2.52      41.3  T
     SCC iter.                  ...        0 min,  0.017 sec
     gradient                   ...        0 min,  0.023 sec
 * total energy  :   -71.3016170 Eh     change       -0.1047506E-01 Eh
   gradient norm :     0.0343087 Eh/α   predicted    -0.8415947E-02 ( -19.66%)
   displ. norm   :     0.3625155 α      lambda       -0.5354333E-02
   maximum displ.:     0.1648392 α      in ANC's #12, #15, #29, ...

........................................................................
.............................. CYCLE    3 ..............................
........................................................................

 iter      E             dE          RMSdq      gap      omega  full diag
   1    -72.1937171 -0.721937E+02  0.160E-01    2.50       0.0  T
   2    -72.1939402 -0.223139E-03  0.111E-01    2.53       1.0  T
   3    -72.1940364 -0.961865E-04  0.625E-02    2.53       1.0  T
   4    -72.1940624 -0.260134E-04  0.204E-02    2.52       1.0  T
   5    -72.1940750 -0.125775E-04  0.397E-03    2.53       3.9  T
   6    -72.1940753 -0.322856E-06  0.179E-03    2.53       8.6  T
   7    -72.1940753 -0.240167E-07  0.692E-04    2.53      22.3  T
   8    -72.1940753 -0.351585E-08  0.271E-04    2.53      57.0  T
     SCC iter.                  ...        0 min,  0.062 sec
     gradient                   ...        0 min,  0.023 sec
 * total energy  :   -71.3047626 Eh     change       -0.3145553E-02 Eh
   gradient norm :     0.0094696 Eh/α   predicted    -0.3030373E-02 (  -3.66%)
   displ. norm   :     0.2308462 α      lambda       -0.8852778E-03
   maximum displ.:     0.0906828 α      in ANC's #10, #15, #12, ...

........................................................................
.............................. CYCLE    4 ..............................
........................................................................

 iter      E             dE          RMSdq      gap      omega  full diag
   1    -72.1981701 -0.721982E+02  0.584E-02    2.51       0.0  T
   2    -72.1981821 -0.120536E-04  0.355E-02    2.52       1.0  T
   3    -72.1981781  0.407400E-05  0.192E-02    2.52       1.0  T
   4    -72.1981864 -0.838744E-05  0.436E-03    2.52       3.5  T
   5    -72.1981871 -0.650693E-06  0.130E-03    2.52      11.9  T
   6    -72.1981871 -0.262825E-07  0.685E-04    2.52      22.5  T
   7    -72.1981871 -0.375833E-08  0.201E-04    2.52      76.9  T
     SCC iter.                  ...        0 min,  0.060 sec
     gradient                   ...        0 min,  0.023 sec
 * total energy  :   -71.3054233 Eh     change       -0.6607712E-03 Eh
   gradient norm :     0.0072994 Eh/α   predicted    -0.4662352E-03 ( -29.44%)
   displ. norm   :     0.3358521 α      lambda       -0.8007797E-03
   maximum displ.:     0.1478497 α      in ANC's #5, #6, #10, ...

........................................................................
.............................. CYCLE    5 ..............................
........................................................................

 iter      E             dE          RMSdq      gap      omega  full diag
   1    -72.1993966 -0.721994E+02  0.824E-02    2.50       0.0  T
   2    -72.1994060 -0.935894E-05  0.483E-02    2.51       1.0  T
   3    -72.1993980  0.797943E-05  0.176E-02    2.50       1.0  T
   4    -72.1994083 -0.102604E-04  0.352E-03    2.51       4.4  T
   5    -72.1994087 -0.367398E-06  0.147E-03    2.51      10.5  T
   6    -72.1994087 -0.153110E-07  0.785E-04    2.51      19.7  T
   7    -72.1994087 -0.108328E-07  0.261E-04    2.51      59.0  T
     SCC iter.                  ...        0 min,  0.015 sec
     gradient                   ...        0 min,  0.069 sec
 * total energy  :   -71.3059530 Eh     change       -0.5296722E-03 Eh
   gradient norm :     0.0055160 Eh/α   predicted    -0.4455575E-03 ( -15.88%)
   displ. norm   :     0.2597908 α      lambda       -0.3436334E-03
   maximum displ.:     0.1366109 α      in ANC's #5, #6, #2, ...

........................................................................
.............................. CYCLE    6 ..............................
........................................................................

 iter      E             dE          RMSdq      gap      omega  full diag
   1    -72.1991049 -0.721991E+02  0.599E-02    2.49       0.0  T
   2    -72.1991067 -0.172899E-05  0.349E-02    2.50       1.0  T
   3    -72.1991055  0.116768E-05  0.629E-03    2.50       2.5  T
   4    -72.1991072 -0.164772E-05  0.176E-03    2.50       8.8  T
   5    -72.1991072 -0.511702E-07  0.899E-04    2.50      17.2  T
   6    -72.1991072 -0.547115E-08  0.325E-04    2.50      47.5  T
     SCC iter.                  ...        0 min,  0.013 sec
     gradient                   ...        0 min,  0.069 sec
 * total energy  :   -71.3062032 Eh     change       -0.2501572E-03 Eh
   gradient norm :     0.0049441 Eh/α   predicted    -0.1834132E-03 ( -26.68%)
   displ. norm   :     0.2905745 α      lambda       -0.3123315E-03
   maximum displ.:     0.1550584 α      in ANC's #5, #2, #6, ...

........................................................................
.............................. CYCLE    7 ..............................
........................................................................

 iter      E             dE          RMSdq      gap      omega  full diag
   1    -72.1987934 -0.721988E+02  0.661E-02    2.49       0.0  T
   2    -72.1987950 -0.165573E-05  0.386E-02    2.49       1.0  T
   3    -72.1987940  0.998643E-06  0.659E-03    2.49       2.3  T
   4    -72.1987955 -0.147631E-05  0.196E-03    2.49       7.9  T
   5    -72.1987956 -0.571001E-07  0.102E-03    2.49      15.2  T
   6    -72.1987956 -0.588497E-08  0.414E-04    2.49      37.3  T
   7    -72.1987956 -0.420872E-08  0.137E-04    2.49     112.7  T
     SCC iter.                  ...        0 min,  0.015 sec
     gradient                   ...        0 min,  0.024 sec
 * total energy  :   -71.3064409 Eh     change       -0.2377324E-03 Eh
   gradient norm :     0.0044316 Eh/α   predicted    -0.1693523E-03 ( -28.76%)
   displ. norm   :     0.3207783 α      lambda       -0.3015073E-03
   maximum displ.:     0.1626255 α      in ANC's #2, #5, #6, ...

........................................................................
.............................. CYCLE    8 ..............................
........................................................................

 iter      E             dE          RMSdq      gap      omega  full diag
   1    -72.1986970 -0.721987E+02  0.689E-02    2.47       0.0  T
   2    -72.1986986 -0.165530E-05  0.403E-02    2.47       1.0  T
   3    -72.1986958  0.285030E-05  0.948E-03    2.48       1.6  T
   4    -72.1986994 -0.361309E-05  0.212E-03    2.48       7.3  T
   5    -72.1986994 -0.554585E-07  0.110E-03    2.48      14.0  T
   6    -72.1986994 -0.771021E-08  0.410E-04    2.48      37.7  T
   7    -72.1986995 -0.388663E-08  0.146E-04    2.48     105.4  T
     SCC iter.                  ...        0 min,  0.015 sec
     gradient                   ...        0 min,  0.024 sec
 * total energy  :   -71.3066688 Eh     change       -0.2279629E-03 Eh
   gradient norm :     0.0043266 Eh/α   predicted    -0.1662688E-03 ( -27.06%)
   displ. norm   :     0.3270420 α      lambda       -0.2501079E-03
   maximum displ.:     0.1817821 α      in ANC's #2, #5, #1, ...

........................................................................
.............................. CYCLE    9 ..............................
........................................................................

 iter      E             dE          RMSdq      gap      omega  full diag
   1    -72.1988494 -0.721988E+02  0.688E-02    2.46       0.0  T
   2    -72.1988522 -0.279419E-05  0.401E-02    2.46       1.0  T
   3    -72.1988483  0.384932E-05  0.110E-02    2.46       1.4  T
   4    -72.1988530 -0.469918E-05  0.255E-03    2.46       6.0  T
   5    -72.1988532 -0.149445E-06  0.114E-03    2.46      13.6  T
   6    -72.1988532  0.548027E-09  0.459E-04    2.46      33.6  T
   7    -72.1988532 -0.608289E-08  0.158E-04    2.46      97.9  T
     SCC iter.                  ...        0 min,  0.050 sec
     gradient                   ...        0 min,  0.024 sec
 * total energy  :   -71.3068580 Eh     change       -0.1891271E-03 Eh
   gradient norm :     0.0037984 Eh/α   predicted    -0.1384312E-03 ( -26.81%)
   displ. norm   :     0.3018016 α      lambda       -0.1962604E-03
   maximum displ.:     0.1801354 α      in ANC's #2, #1, #3, ...

........................................................................
.............................. CYCLE   10 ..............................
........................................................................

 iter      E             dE          RMSdq      gap      omega  full diag
   1    -72.1997234 -0.721997E+02  0.602E-02    2.45       0.0  T
   2    -72.1997259 -0.247583E-05  0.349E-02    2.45       1.0  T
   3    -72.1997224  0.347639E-05  0.108E-02    2.46       1.4  T
   4    -72.1997267 -0.435452E-05  0.226E-03    2.46       6.8  T
   5    -72.1997268 -0.101954E-06  0.112E-03    2.46      13.8  T
   6    -72.1997268 -0.287046E-08  0.551E-04    2.46      28.0  T
   7    -72.1997269 -0.602866E-08  0.156E-04    2.45      98.8  T
     SCC iter.                  ...        0 min,  0.015 sec
     gradient                   ...        0 min,  0.060 sec
 * total energy  :   -71.3070109 Eh     change       -0.1528794E-03 Eh
   gradient norm :     0.0036443 Eh/α   predicted    -0.1070713E-03 ( -29.96%)
   displ. norm   :     0.3012041 α      lambda       -0.1713607E-03
   maximum displ.:     0.1869783 α      in ANC's #2, #3, #1, ...

........................................................................
.............................. CYCLE   11 ..............................
........................................................................

 iter      E             dE          RMSdq      gap      omega  full diag
   1    -72.2003637 -0.722004E+02  0.603E-02    2.44       0.0  T
   2    -72.2003684 -0.464298E-05  0.347E-02    2.45       1.0  T
   3    -72.2003646  0.377970E-05  0.127E-02    2.45       1.2  T
   4    -72.2003695 -0.493542E-05  0.263E-03    2.45       5.9  T
   5    -72.2003697 -0.187169E-06  0.119E-03    2.45      13.0  T
   6    -72.2003697 -0.683688E-08  0.666E-04    2.45      23.2  T
   7    -72.2003697 -0.770774E-08  0.177E-04    2.45      87.4  T
     SCC iter.                  ...        0 min,  0.015 sec
     gradient                   ...        0 min,  0.024 sec
 * total energy  :   -71.3071472 Eh     change       -0.1363498E-03 Eh
   gradient norm :     0.0036844 Eh/α   predicted    -0.9345616E-04 ( -31.46%)
   displ. norm   :     0.3226353 α      lambda       -0.1661999E-03
   maximum displ.:     0.2042185 α      in ANC's #2, #1, #3, ...

........................................................................
.............................. CYCLE   12 ..............................
........................................................................

 iter      E             dE          RMSdq      gap      omega  full diag
   1    -72.2014232 -0.722014E+02  0.619E-02    2.43       0.0  T
   2    -72.2014279 -0.477158E-05  0.357E-02    2.44       1.0  T
   3    -72.2014231  0.479171E-05  0.143E-02    2.44       1.1  T
   4    -72.2014296 -0.650990E-05  0.234E-03    2.44       6.6  T
   5    -72.2014298 -0.108218E-06  0.119E-03    2.44      12.9  T
   6    -72.2014298 -0.378731E-08  0.603E-04    2.44      25.6  T
   7    -72.2014298 -0.946528E-08  0.174E-04    2.44      88.5  T
     SCC iter.                  ...        0 min,  0.015 sec
     gradient                   ...        0 min,  0.024 sec
 * total energy  :   -71.3072740 Eh     change       -0.1267550E-03 Eh
   gradient norm :     0.0034007 Eh/α   predicted    -0.9175839E-04 ( -27.61%)
   displ. norm   :     0.3483717 α      lambda       -0.1344189E-03
   maximum displ.:     0.2188548 α      in ANC's #2, #1, #3, ...

........................................................................
.............................. CYCLE   13 ..............................
........................................................................

 iter      E             dE          RMSdq      gap      omega  full diag
   1    -72.2003795 -0.722004E+02  0.680E-02    2.42       0.0  T
   2    -72.2003856 -0.607888E-05  0.393E-02    2.44       1.0  T
   3    -72.2003796  0.591712E-05  0.159E-02    2.44       1.0  T
   4    -72.2003877 -0.805422E-05  0.266E-03    2.44       5.8  T
   5    -72.2003878 -0.138232E-06  0.135E-03    2.44      11.4  T
   6    -72.2003878 -0.728768E-08  0.683E-04    2.44      22.6  T
   7    -72.2003878 -0.100070E-07  0.204E-04    2.44      75.6  T
     SCC iter.                  ...        0 min,  0.048 sec
     gradient                   ...        0 min,  0.024 sec
 * total energy  :   -71.3073664 Eh     change       -0.9244549E-04 Eh
   gradient norm :     0.0046532 Eh/α   predicted    -0.7536758E-04 ( -18.47%)
   displ. norm   :     0.2893418 α      lambda       -0.1285671E-03
   maximum displ.:     0.1808761 α      in ANC's #2, #1, #3, ...

........................................................................
.............................. CYCLE   14 ..............................
........................................................................

 iter      E             dE          RMSdq      gap      omega  full diag
   1    -72.2029891 -0.722030E+02  0.553E-02    2.43       0.0  T
   2    -72.2029961 -0.699401E-05  0.324E-02    2.44       1.0  T
   3    -72.2029919  0.423520E-05  0.156E-02    2.44       1.0  T
   4    -72.2029985 -0.660111E-05  0.298E-03    2.45       5.2  T
   5    -72.2029987 -0.239358E-06  0.119E-03    2.44      13.0  T
   6    -72.2029988 -0.132404E-07  0.560E-04    2.44      27.5  T
   7    -72.2029988 -0.474984E-08  0.220E-04    2.44      70.2  T
     SCC iter.                  ...        0 min,  0.015 sec
     gradient                   ...        0 min,  0.024 sec
 * total energy  :   -71.3074221 Eh     change       -0.5574385E-04 Eh
   gradient norm :     0.0038988 Eh/α   predicted    -0.6966583E-04 (  24.97%)
   displ. norm   :     0.2176374 α      lambda       -0.7491252E-04
   maximum displ.:     0.1307680 α      in ANC's #2, #1, #3, ...

........................................................................
.............................. CYCLE   15 ..............................
........................................................................

 iter      E             dE          RMSdq      gap      omega  full diag
   1    -72.2008346 -0.722008E+02  0.433E-02    2.43       0.0  T
   2    -72.2008378 -0.324625E-05  0.251E-02    2.44       1.0  T
   3    -72.2008360  0.182318E-05  0.987E-03    2.44       1.6  T
   4    -72.2008386 -0.264833E-05  0.230E-03    2.44       6.7  T
   5    -72.2008388 -0.153382E-06  0.938E-04    2.44      16.5  T
   6    -72.2008388 -0.513050E-08  0.454E-04    2.44      34.0  T
     SCC iter.                  ...        0 min,  0.028 sec
     gradient                   ...        0 min,  0.023 sec
 * total energy  :   -71.3074638 Eh     change       -0.4160628E-04 Eh
   gradient norm :     0.0032300 Eh/α   predicted    -0.3923198E-04 (  -5.71%)
   displ. norm   :     0.0577495 α      lambda       -0.4301584E-04
   maximum displ.:     0.0294128 α      in ANC's #1, #10, #9, ...

........................................................................
.............................. CYCLE   16 ..............................
........................................................................

 iter      E             dE          RMSdq      gap      omega  full diag
   1    -72.2011663 -0.722012E+02  0.191E-02    2.44       0.0  T
   2    -72.2011671 -0.806525E-06  0.112E-02    2.44       1.4  T
   3    -72.2011670  0.905801E-07  0.288E-03    2.44       5.4  T
   4    -72.2011671 -0.804018E-07  0.120E-03    2.44      12.9  T
   5    -72.2011672 -0.645152E-07  0.290E-04    2.44      53.2  T
   6    -72.2011672 -0.424222E-09  0.152E-04    2.44     101.8  T
     SCC iter.                  ...        0 min,  0.013 sec
     gradient                   ...        0 min,  0.045 sec
 * total energy  :   -71.3074939 Eh     change       -0.3016005E-04 Eh
   gradient norm :     0.0025860 Eh/α   predicted    -0.2158108E-04 ( -28.44%)
   displ. norm   :     0.1413146 α      lambda       -0.4920392E-04
   maximum displ.:     0.0886974 α      in ANC's #1, #2, #10, ...

........................................................................
.............................. CYCLE   17 ..............................
........................................................................

 iter      E             dE          RMSdq      gap      omega  full diag
   1    -72.2011689 -0.722012E+02  0.335E-02    2.44       0.0  T
   2    -72.2011699 -0.941612E-06  0.196E-02    2.44       1.0  T
   3    -72.2011689  0.958964E-06  0.590E-03    2.44       2.6  T
   4    -72.2011701 -0.120278E-05  0.135E-03    2.44      11.4  T
   5    -72.2011701 -0.526138E-07  0.558E-04    2.44      27.7  T
   6    -72.2011701 -0.225448E-08  0.225E-04    2.44      68.5  T
     SCC iter.                  ...        0 min,  0.014 sec
     gradient                   ...        0 min,  0.023 sec
 * total energy  :   -71.3075229 Eh     change       -0.2898733E-04 Eh
   gradient norm :     0.0021486 Eh/α   predicted    -0.2509456E-04 ( -13.43%)
   displ. norm   :     0.1232609 α      lambda       -0.2907978E-04
   maximum displ.:     0.0816750 α      in ANC's #1, #2, #10, ...

........................................................................
.............................. CYCLE   18 ..............................
........................................................................

 iter      E             dE          RMSdq      gap      omega  full diag
   1    -72.2017444 -0.722017E+02  0.273E-02    2.43       0.0  T
   2    -72.2017448 -0.357550E-06  0.159E-02    2.43       1.0  T
   3    -72.2017444  0.441405E-06  0.401E-03    2.43       3.9  T
   4    -72.2017449 -0.575275E-06  0.820E-04    2.43      18.8  T
   5    -72.2017449 -0.968716E-08  0.446E-04    2.43      34.6  T
     SCC iter.                  ...        0 min,  0.011 sec
     gradient                   ...        0 min,  0.037 sec
 * total energy  :   -71.3075415 Eh     change       -0.1856930E-04 Eh
   gradient norm :     0.0018750 Eh/α   predicted    -0.1476333E-04 ( -20.50%)
   displ. norm   :     0.2998563 α      lambda       -0.3410634E-04
   maximum displ.:     0.1964924 α      in ANC's #1, #2, #4, ...

........................................................................
.............................. CYCLE   19 ..............................
........................................................................

 iter      E             dE          RMSdq      gap      omega  full diag
   1    -72.2010870 -0.722011E+02  0.624E-02    2.42       0.0  T
   2    -72.2010907 -0.367308E-05  0.362E-02    2.43       1.0  T
   3    -72.2010878  0.284825E-05  0.111E-02    2.43       1.4  T
   4    -72.2010916 -0.373274E-05  0.217E-03    2.43       7.1  T
   5    -72.2010917 -0.108496E-06  0.994E-04    2.43      15.5  T
   6    -72.2010917 -0.282319E-08  0.527E-04    2.43      29.3  T
     SCC iter.                  ...        0 min,  0.013 sec
     gradient                   ...        0 min,  0.023 sec
 * total energy  :   -71.3075719 Eh     change       -0.3043532E-04 Eh
   gradient norm :     0.0026155 Eh/α   predicted    -0.1773658E-04 ( -41.72%)
   displ. norm   :     0.0650855 α      lambda       -0.2045697E-04
   maximum displ.:     0.0426493 α      in ANC's #1, #4, #2, ...

........................................................................
.............................. CYCLE   20 ..............................
........................................................................

 iter      E             dE          RMSdq      gap      omega  full diag
   1    -72.2020274 -0.722020E+02  0.177E-02    2.43       0.0  T
   2    -72.2020277 -0.264336E-06  0.103E-02    2.43       1.5  T
   3    -72.2020272  0.492933E-06  0.413E-03    2.43       3.7  T
   4    -72.2020278 -0.598476E-06  0.662E-04    2.43      23.3  T
   5    -72.2020278 -0.130960E-07  0.264E-04    2.43      58.3  T
     SCC iter.                  ...        0 min,  0.011 sec
     gradient                   ...        0 min,  0.044 sec
 * total energy  :   -71.3075860 Eh     change       -0.1409222E-04 Eh
   gradient norm :     0.0016281 Eh/α   predicted    -0.1027254E-04 ( -27.10%)
   displ. norm   :     0.1324735 α      lambda       -0.1368334E-04
   maximum displ.:     0.0934177 α      in ANC's #1, #2, #4, ...
 * RMSD in coord.:     0.6087393 α      energy gain  -0.1644406E-01 Eh

generating ANC from exact Hessian ...
Using Lindh-Hessian (1995)
 Shifting diagonal of input Hessian by    9.5400955406967740E-003
 Lowest  eigenvalues of input Hessian
    0.000000    0.000000    0.000000    0.000000    0.000000    0.000000
    0.010000    0.010235    0.010847    0.011636    0.012186    0.012644
    0.013549    0.015029    0.016530    0.017022    0.019955    0.020908
 Highest eigenvalues
    1.971679    2.070058    2.113690    2.200947    2.298369    2.398775


........................................................................
.............................. CYCLE   21 ..............................
........................................................................

 iter      E             dE          RMSdq      gap      omega  full diag
   1    -72.2019675 -0.722020E+02  0.311E-02    2.43       0.0  T
   2    -72.2019682 -0.762312E-06  0.181E-02    2.43       1.0  T
   3    -72.2019666  0.162227E-05  0.728E-03    2.43       2.1  T
   4    -72.2019686 -0.198824E-05  0.112E-03    2.43      13.8  T
   5    -72.2019686 -0.299211E-07  0.497E-04    2.43      31.1  T
   6    -72.2019686 -0.648512E-09  0.250E-04    2.43      61.8  T
     SCC iter.                  ...        0 min,  0.013 sec
     gradient                   ...        0 min,  0.023 sec
 * total energy  :   -71.3075959 Eh     change       -0.9854772E-05 Eh
   gradient norm :     0.0010913 Eh/α   predicted     0.0000000E+00 (-100.00%)
   displ. norm   :     0.0191675 α      lambda       -0.4341746E-05
   maximum displ.:     0.0126610 α      in ANC's #1, #2, #3, ...

........................................................................
.............................. CYCLE   22 ..............................
........................................................................

 iter      E             dE          RMSdq      gap      omega  full diag
   1    -72.2019480 -0.722019E+02  0.625E-03    2.43       0.0  T
   2    -72.2019480 -0.555119E-07  0.370E-03    2.43       4.2  T
   3    -72.2019480  0.643483E-07  0.159E-03    2.43       9.7  T
   4    -72.2019480 -0.807848E-07  0.317E-04    2.43      48.7  T
   5    -72.2019480 -0.320495E-08  0.104E-04    2.43     147.9  T
     SCC iter.                  ...        0 min,  0.011 sec
     gradient                   ...        0 min,  0.024 sec
 * total energy  :   -71.3076000 Eh     change       -0.4161913E-05 Eh
   gradient norm :     0.0004948 Eh/α   predicted    -0.2180331E-05 ( -47.61%)
   displ. norm   :     0.0300988 α      lambda       -0.3368376E-05
   maximum displ.:     0.0215172 α      in ANC's #1, #2, #3, ...

   *** GEOMETRY OPTIMIZATION CONVERGED AFTER 22 ITERATIONS ***

------------------------------------------------------------------------
 total energy gain   :        -0.0164581 Eh      -10.3276 kcal/mol
 total RMSD          :         0.6087517 a0        0.3221 Å
 total power (kW/mol):        -1.9641216 (step)  -28.1609 (real)
------------------------------------------------------------------------

 ANCopt (total)                0 d,  0 h,  0 min,  1.534 sec
 optimizer setup                ...        0 min,  0.000 sec (  0.005%)
 model hessian                  ...        0 min,  0.028 sec (  1.846%)
 ANC generation                 ...        0 min,  0.003 sec (  0.193%)
 coordinate transformation      ...        0 min,  0.000 sec (  0.010%)
 single point calculation       ...        0 min,  1.497 sec ( 97.538%)
 optimization log               ...        0 min,  0.004 sec (  0.233%)
 hessian update                 ...        0 min,  0.000 sec (  0.017%)
 rational function              ...        0 min,  0.002 sec (  0.112%)

================
 final structure:
================
42
 xtb: 6.7.1 (edcfbbe)
O            5.99831743132295       -1.48243019757174       -0.31109562154529
C            5.03698056115488       -2.03489806982643       -0.80360310631535
O            5.15216175533967       -3.13954343706478       -1.53397116185891
C            3.65385073207643       -1.55383447754894       -0.63325951113847
C            3.48365969694593       -0.51695925618498        0.23394166172574
N            2.30358777368481        0.05526877484890        0.52621202617666
C            1.13987921041983       -0.46524450763002       -0.01999838639631
C           -0.10949443137432        0.02489696961067        0.35635535330540
C           -1.29953384540845       -0.46870986080783       -0.18105589659238
N           -2.52644435196017        0.05554896619826        0.14928262623166
C           -2.62899224871213        1.33332777782669        0.82042520431474
C           -3.95051584324476        2.00903696232904        0.40946631902138
N           -5.11642533274819        1.18846692987280        0.65428090800230
C           -4.95706156613604       -0.10094309208060        0.00975911330010
C           -3.66244935428449       -0.80214343215550        0.43685412495824
C           -1.16520941883210       -1.49467304400948       -1.14258936485070
F           -2.26561832342011       -1.98320015154878       -1.76767171719019
C            0.04951009839317       -2.01007317577402       -1.49946477970860
C            1.23263708980507       -1.51589432703801       -0.94440200797582
C            2.51399131717564       -2.12043316101399       -1.35354501807986
O            2.57386641409118       -2.99180710213179       -2.20170201946479
C            2.26342204985643        1.17352840725492        1.42197770135259
C            3.26695285494409        2.27479735931608        1.25734755052207
C            1.83446645681730        2.51468115655772        0.89700011004693
H            6.08554738586672       -3.39044292578579       -1.61316964047414
H            4.35404339920318       -0.11629064881981        0.73659429236051
H           -0.15808948492450        0.79419511168038        1.10675578697507
H           -1.80239838285300        1.97473621354520        0.51396986311674
H           -2.60248052425154        1.21067133684711        1.91642231259696
H           -4.06099708281498        2.95369123700676        0.94577952148169
H           -3.91886307001404        2.21763614885930       -0.66363764162916
H           -5.24173739464167        1.05617534116504        1.65497711734436
H           -4.93487589817104        0.06720717623156       -1.06994046130516
H           -5.81751558267999       -0.72758646109692        0.24915976418518
H           -3.56911062377353       -1.75442982423829       -0.07594545457286
H           -3.70065593251631       -0.99969740734495        1.52240672702966
H            0.11632604091630       -2.79792236197313       -2.23373570546072
H            1.96725068467420        0.90509592667178        2.43225258436054
H            3.97974518778475        2.19722698738719        0.45143563574804
H            3.66433386371870        2.73341988657143        2.14920129547909
H            1.23214243956658        3.14618601633375        1.53218492903861
H            1.58589624900632        2.58136223553547       -0.15115503411745

 Bond Distances (Angstroems)
 ---------------------------
O1-C2=1.2132         C2-O1=1.2132         C2-O3=1.3293         C2-C4=1.4743         O3-C2=1.3293         O3-H25=0.9698        
C4-C2=1.4743         C4-C5=1.3624         C4-C20=1.4626        C5-C4=1.3624         C5-N6=1.3437         C5-H26=1.0820        
N6-C5=1.3437         N6-C7=1.3869         N6-C22=1.4334        C7-N6=1.3869         C7-C8=1.3938         C7-C19=1.4025        
C8-C7=1.3938         C8-C9=1.3959         C8-H27=1.0758        C9-C8=1.3959         C9-N10=1.3745        C9-C16=1.4125        
N10-C9=1.3745        N10-C11=1.4470       N10-C15=1.4522       C11-N10=1.4470       C11-C12=1.5401       C11-H28=1.0902       
C11-H29=1.1032       C12-C11=1.5401       C12-N13=1.4466       C12-H30=1.0919       C12-H31=1.0936       N13-C12=1.4466       
N13-C14=1.4503       N13-H32=1.0172       C14-N13=1.4503       C14-C15=1.5330       C14-H33=1.0929       C14-H34=1.0910       
C15-N10=1.4522       C15-C14=1.5330       C15-H35=1.0856       C15-H36=1.1040       C16-C9=1.4125        C16-F17=1.3566       
C16-C18=1.3669       F17-C16=1.3566       C18-C16=1.3669       C18-C19=1.3972       C18-H37=1.0790       C19-C7=1.4025        
C19-C18=1.3972       C19-C20=1.4747       C20-C4=1.4626        C20-C19=1.4747       C20-O21=1.2175       O21-C20=1.2175       
C22-N6=1.4334        C22-C23=1.4990       C22-C24=1.5028       C22-H38=1.0865       C23-C22=1.4990       C23-C24=1.4965       
C23-H39=1.0787       C23-H40=1.0787       C24-C22=1.5028       C24-C23=1.4965       C24-H41=1.0794       C24-H42=1.0793       
H25-O3=0.9698        H26-C5=1.0820        H27-C8=1.0758        H28-C11=1.0902       H29-C11=1.1032       H30-C12=1.0919       
H31-C12=1.0936       H32-N13=1.0172       H33-C14=1.0929       H34-C14=1.0910       H35-C15=1.0856       H36-C15=1.1040       
H37-C18=1.0790       H38-C22=1.0865       H39-C23=1.0787       H40-C23=1.0787       H41-C24=1.0794       H42-C24=1.0793       
 C  H  Rav=1.0870 sigma=0.0085  Rmin=1.0758  Rmax=1.1040    16
 C  C  Rav=1.4476 sigma=0.0582  Rmin=1.3624  Rmax=1.5401    15
 N  H  Rav=1.0172 sigma=0.0000  Rmin=1.0172  Rmax=1.0172     1
 N  C  Rav=1.4168 sigma=0.0395  Rmin=1.3437  Rmax=1.4522     8
 O  H  Rav=0.9698 sigma=0.0000  Rmin=0.9698  Rmax=0.9698     1
 O  C  Rav=1.2533 sigma=0.0537  Rmin=1.2132  Rmax=1.3293     3
 F  C  Rav=1.3566 sigma=0.0000  Rmin=1.3566  Rmax=1.3566     1

 selected bond angles (degree)
 --------------------
O3-C2-O1=122.20                C4-C2-O1=123.22                C4-C2-O3=114.58                H25-O3-C2=110.08               
C5-C4-C2=116.05                C20-C4-C2=123.22               C20-C4-C5=120.73               N6-C5-C4=124.91                
H26-C5-C4=118.49               H26-C5-N6=116.60               C7-N6-C5=119.43                C22-N6-C5=119.52               
C22-N6-C7=121.03               C8-C7-N6=120.92                C19-C7-N6=119.03               C19-C7-C8=120.04               
C9-C8-C7=122.40                H27-C8-C7=118.71               H27-C8-C9=118.87               N10-C9-C8=122.25               
C16-C9-C8=115.97               C16-C9-N10=121.70              C11-N10-C9=120.77              C15-N10-C9=121.37              
C15-N10-C11=111.98             

 selected dihedral angles (degree)
 ---------------------------------
H25-O3-C2-O1=358.62           H25-O3-C2-C4=179.28           C5-C4-C2-O1=353.36            C5-C4-C2-O3=172.69            
C20-C4-C2-O1=172.41           C20-C4-C2-O3=351.74           N6-C5-C4-C2=180.27            N6-C5-C4-C20=  1.19           
H26-C5-C4-C2=359.95           H26-C5-C4-C20=180.88          C7-N6-C5-C4=  3.68            C7-N6-C5-H26=183.99           
C22-N6-C5-C4=182.21           C22-N6-C5-H26=  2.52          C8-C7-N6-C5=174.10            C8-C7-N6-C22=355.59           
C19-C7-N6-C5=355.28           C19-C7-N6-C22=176.78          C9-C8-C7-N6=179.49            C9-C8-C7-C19=358.29           
H27-C8-C7-N6=357.89           H27-C8-C7-C19=176.69          N10-C9-C8-C7=182.86           N10-C9-C8-H27=  4.45          
C16-C9-C8-C7=359.56           C16-C9-C8-H27=181.16          C11-N10-C9-C8= 14.57          C11-N10-C9-C16=198.05         
C15-N10-C9-C8=223.74          C15-N10-C9-C16= 47.22         
           -------------------------------------------------
          |                Final Singlepoint                |
           -------------------------------------------------

          ...................................................
          :                      SETUP                      :
          :.................................................:
          :  # basis functions                 114          :
          :  # atomic orbitals                 114          :
          :  # shells                           66          :
          :  # electrons                       126          :
          :  max. iterations                   250          :
          :  Hamiltonian                  GFN2-xTB          :
          :  restarted?                      false          :
          :  GBSA solvation                  false          :
          :  PC potential                    false          :
          :  electronic temp.          300.0000000     K    :
          :  accuracy                    1.0000000          :
          :  -> integral cutoff          0.2500000E+02      :
          :  -> integral neglect         0.1000000E-07      :
          :  -> SCF convergence          0.1000000E-05 Eh   :
          :  -> wf. convergence          0.1000000E-03 e    :
          :  Broyden damping             0.4000000          :
          :  net charge                          0          :
          :  unpaired electrons                  0          :
          ...................................................

 iter      E             dE          RMSdq      gap      omega  full diag
   1    -72.2019480 -0.722019E+02  0.546E-05    2.43       0.0  T
   2    -72.2019480 -0.187583E-10  0.353E-05    2.43     437.3  T
   3    -72.2019480 -0.122924E-10  0.227E-05    2.43     679.4  T

   *** convergence criteria satisfied after 3 iterations ***

         #    Occupation            Energy/Eh            Energy/eV
      -------------------------------------------------------------
         1        2.0000           -0.8174420             -22.2437
       ...           ...                  ...                  ...
        57        2.0000           -0.4381660             -11.9231
        58        2.0000           -0.4248623             -11.5611
        59        2.0000           -0.4123666             -11.2211
        60        2.0000           -0.3896581             -10.6031
        61        2.0000           -0.3829294             -10.4200
        62        2.0000           -0.3727809             -10.1439
        63        2.0000           -0.3625712              -9.8661 (HOMO)
        64                         -0.2733000              -7.4369 (LUMO)
        65                         -0.2609592              -7.1011
        66                         -0.2252820              -6.1302
        67                         -0.2033232              -5.5327
        68                         -0.1373332              -3.7370
       ...                                ...                  ...
       114                          0.7142467              19.4356
      -------------------------------------------------------------
                  HL-Gap            0.0892713 Eh            2.4292 eV
             Fermi-level           -0.3179356 Eh           -8.6515 eV

 SCC (total)                   0 d,  0 h,  0 min,  0.039 sec
 SCC setup                      ...        0 min,  0.000 sec (  0.781%)
 Dispersion                     ...        0 min,  0.000 sec (  0.765%)
 classical contributions        ...        0 min,  0.000 sec (  0.363%)
 integral evaluation            ...        0 min,  0.008 sec ( 19.937%)
 iterations                     ...        0 min,  0.006 sec ( 16.792%)
 molecular gradient             ...        0 min,  0.023 sec ( 60.962%)
 printout                       ...        0 min,  0.000 sec (  0.382%)

         :::::::::::::::::::::::::::::::::::::::::::::::::::::
         ::                     SUMMARY                     ::
         :::::::::::::::::::::::::::::::::::::::::::::::::::::
         :: total energy             -71.307600015653 Eh    ::
         :: gradient norm              0.000495570368 Eh/a0 ::
         :: HOMO-LUMO gap              2.429194764579 eV    ::
         ::.................................................::
         :: SCC energy               -72.201865325796 Eh    ::
         :: -> isotropic ES            0.107730110296 Eh    ::
         :: -> anisotropic ES          0.007961233406 Eh    ::
         :: -> anisotropic XC          0.018900263660 Eh    ::
         :: -> dispersion             -0.046212965708 Eh    ::
         :: repulsion energy           0.894265310143 Eh    ::
         :: add. restraining           0.000000000000 Eh    ::
         :: total charge               0.000000000000 e     ::
         :::::::::::::::::::::::::::::::::::::::::::::::::::::

           -------------------------------------------------
          |                Property Printout                |
           -------------------------------------------------

    * Orbital Energies and Occupations

         #    Occupation            Energy/Eh            Energy/eV
      -------------------------------------------------------------
         1        2.0000           -0.8174420             -22.2437
       ...           ...                  ...                  ...
        51        2.0000           -0.4637196             -12.6185
        52        2.0000           -0.4606968             -12.5362
        53        2.0000           -0.4588854             -12.4869
        54        2.0000           -0.4575135             -12.4496
        55        2.0000           -0.4551061             -12.3841
        56        2.0000           -0.4467572             -12.1569
        57        2.0000           -0.4381660             -11.9231
        58        2.0000           -0.4248623             -11.5611
        59        2.0000           -0.4123666             -11.2211
        60        2.0000           -0.3896581             -10.6031
        61        2.0000           -0.3829294             -10.4200
        62        2.0000           -0.3727809             -10.1439
        63        2.0000           -0.3625712              -9.8661 (HOMO)
        64                         -0.2733000              -7.4369 (LUMO)
        65                         -0.2609592              -7.1011
        66                         -0.2252820              -6.1302
        67                         -0.2033232              -5.5327
        68                         -0.1373332              -3.7370
        69                         -0.0972332              -2.6459
        70                         -0.0777721              -2.1163
        71                         -0.0303027              -0.8246
        72                         -0.0189907              -0.5168
        73                          0.0361947               0.9849
        74                          0.0432813               1.1777
       ...                                ...                  ...
       114                          0.7142467              19.4356
      -------------------------------------------------------------
                  HL-Gap            0.0892713 Eh            2.4292 eV
             Fermi-level           -0.3179356 Eh           -8.6515 eV

     #   Z          covCN         q      C6AA      α(0)
     1   8 O        0.857    -0.453    22.779     6.399
     2   6 C        2.704     0.360    20.899     7.483
     3   8 O        1.660    -0.349    19.880     6.019
     4   6 C        2.956    -0.079    29.966     8.979
     5   6 C        2.884     0.030    27.339     8.572
     6   7 N        2.746    -0.006    21.374     6.866
     7   6 C        2.934     0.051    26.861     8.500
     8   6 C        2.929    -0.091    30.280     9.024
     9   6 C        2.904     0.054    26.791     8.487
    10   7 N        2.739    -0.095    23.092     7.137
    11   6 C        3.754    -0.003    20.694     6.487
    12   6 C        3.757     0.005    20.553     6.464
    13   7 N        2.678    -0.252    26.545     7.652
    14   6 C        3.757     0.003    20.584     6.468
    15   6 C        3.754    -0.002    20.671     6.483
    16   6 C        2.784     0.141    24.922     8.177
    17   9 F        0.787    -0.230    11.550     4.014
    18   6 C        2.922    -0.041    29.023     8.834
    19   6 C        2.983    -0.041    29.015     8.836
    20   6 C        2.830     0.223    23.313     7.912
    21   8 O        0.857    -0.395    21.589     6.230
    22   6 C        3.811     0.028    20.091     6.380
    23   6 C        3.806    -0.070    21.835     6.652
    24   6 C        3.806    -0.068    21.795     6.646
    25   1 H        0.805     0.327     0.645     1.261
    26   1 H        0.925     0.083     1.946     2.181
    27   1 H        0.926     0.045     2.380     2.413
    28   1 H        0.924     0.043     2.411     2.428
    29   1 H        0.923     0.021     2.726     2.582
    30   1 H        0.924     0.040     2.454     2.450
    31   1 H        0.924     0.050     2.318     2.381
    32   1 H        0.860     0.136     1.498     1.918
    33   1 H        0.924     0.055     2.260     2.351
    34   1 H        0.924     0.043     2.415     2.430
    35   1 H        0.925     0.066     2.134     2.285
    36   1 H        0.923     0.020     2.741     2.589
    37   1 H        0.926     0.093     1.854     2.129
    38   1 H        0.925     0.047     2.355     2.400
    39   1 H        0.926     0.060     2.198     2.319
    40   1 H        0.926     0.054     2.266     2.354
    41   1 H        0.926     0.047     2.355     2.400
    42   1 H        0.926     0.053     2.277     2.360

 Mol. C6AA /au·bohr⁶  :      20035.602813
 Mol. C8AA /au·bohr⁸  :     469252.677788
 Mol. α(0) /au        :        215.932805


Wiberg/Mayer (AO) data.
largest (>0.10) Wiberg bond orders for each atom

 ---------------------------------------------------------------------------
     #   Z sym  total        # sym  WBO       # sym  WBO       # sym  WBO
 ---------------------------------------------------------------------------
     1   8 O    1.984 --     2 C    1.684     3 O    0.169
     2   6 C    3.920 --     1 O    1.684     3 O    1.151     4 C    1.029
     3   8 O    2.227 --     2 C    1.151    25 H    0.868     1 O    0.169
     4   6 C    3.971 --     5 C    1.546    20 C    1.080     2 C    1.029
     5   6 C    3.961 --     4 C    1.546     6 N    1.264    26 H    0.951
     6   7 N    3.620 --     5 C    1.264     7 C    1.102    22 C    0.982
     7   6 C    3.962 --     8 C    1.361    19 C    1.304     6 N    1.102
     8   6 C    3.971 --     9 C    1.367     7 C    1.361    27 H    0.959
     9   6 C    3.978 --     8 C    1.367    16 C    1.253    10 N    1.166
    10   7 N    3.380 --     9 C    1.166    11 C    0.998    15 C    0.985
    11   6 C    3.981 --    10 N    0.998    12 C    0.982    28 H    0.970
                            29 H    0.964
    12   6 C    3.986 --    13 N    1.024    11 C    0.982    30 H    0.973
                            31 H    0.972
    13   7 N    3.079 --    12 C    1.024    14 C    1.018    32 H    0.956
    14   6 C    3.985 --    13 N    1.018    15 C    0.990    34 H    0.973
                            33 H    0.971
    15   6 C    3.974 --    14 C    0.990    10 N    0.985    35 H    0.969
                            36 H    0.963
    16   6 C    3.876 --    18 C    1.481     9 C    1.253    17 F    0.947
    17   9 F    1.077 --    16 C    0.947
    18   6 C    3.983 --    16 C    1.481    19 C    1.337    37 H    0.957
    19   6 C    3.978 --    18 C    1.337     7 C    1.304    20 C    1.052
    20   6 C    3.954 --    21 O    1.717     4 C    1.080    19 C    1.052
    21   8 O    2.026 --    20 C    1.717
    22   6 C    3.919 --     6 N    0.982    23 C    0.973    24 C    0.963
                            38 H    0.959
    23   6 C    3.943 --    24 C    0.985    40 H    0.979    39 H    0.976
                            22 C    0.973
    24   6 C    3.941 --    23 C    0.985    41 H    0.979    42 H    0.979
                            22 C    0.963
    25   1 H    0.892 --     3 O    0.868
    26   1 H    0.992 --     5 C    0.951
    27   1 H    0.997 --     8 C    0.959
    28   1 H    0.998 --    11 C    0.970
    29   1 H    0.997 --    11 C    0.964
    30   1 H    0.998 --    12 C    0.973
    31   1 H    0.997 --    12 C    0.972
    32   1 H    0.981 --    13 N    0.956
    33   1 H    0.997 --    14 C    0.971
    34   1 H    0.998 --    14 C    0.973
    35   1 H    0.996 --    15 C    0.969
    36   1 H    0.997 --    15 C    0.963
    37   1 H    0.990 --    18 C    0.957
    38   1 H    0.995 --    22 C    0.959
    39   1 H    0.996 --    23 C    0.976
    40   1 H    0.997 --    23 C    0.979
    41   1 H    0.997 --    24 C    0.979
    42   1 H    0.997 --    24 C    0.979
 ---------------------------------------------------------------------------

Topologies differ in total number of bonds
Writing topology from bond orders to xtbtopo.mol

molecular dipole:
                 x           y           z       tot (Debye)
 q only:       -1.572       2.239       1.873
   full:       -1.143       2.158       2.398       8.701
molecular quadrupole (traceless):
                xx          xy          yy          xz          yz          zz
 q only:       -6.351       9.542       3.280       2.056      -6.266       3.071
  q+dip:      -10.874      10.912       1.698      -2.424      -6.593       9.177
   full:      -12.043      11.598       3.017      -2.519      -9.306       9.026

           -------------------------------------------------
          |                Geometry Summary                 |
           -------------------------------------------------

      molecular mass/u    :      331.3421713
   center of mass at/Å    :        0.5110316      -0.5258333      -0.2385758
  moments of inertia/u·Å² :        0.1068464E+04   0.3845371E+04   0.4804537E+04
rotational constants/cm⁻¹ :        0.1577745E-01   0.4383877E-02   0.3508690E-02

 * 41 selected distances

     #   Z          #   Z                                           value/Å
     1   8 O        2   6 C                                       1.2132408
     2   6 C        3   8 O                                       1.3292652
     4   6 C        5   6 C                                       1.3623925
     5   6 C        6   7 N                                       1.3436655
     6   7 N        7   6 C                                       1.3869023
     7   6 C        8   6 C                                       1.3938492
     8   6 C        9   6 C                                       1.3959415
     9   6 C       10   7 N                                       1.3745110
    10   7 N       11   6 C                                       1.4469511
    11   6 C       12   6 C                                       1.5400958 (max)
    12   6 C       13   7 N                                       1.4465873
    13   7 N       14   6 C                                       1.4503047
    10   7 N       15   6 C                                       1.4521850
    14   6 C       15   6 C                                       1.5330079
     9   6 C       16   6 C                                       1.4125121
    16   6 C       18   6 C                                       1.3669459
     7   6 C       19   6 C                                       1.4024947
    18   6 C       19   6 C                                       1.3971747
    20   6 C       21   8 O                                       1.2174761
     6   7 N       22   6 C                                       1.4333577
    22   6 C       23   6 C                                       1.4989900
    22   6 C       24   6 C                                       1.5027626
    23   6 C       24   6 C                                       1.4964666
     3   8 O       25   1 H                                       0.9697587 (min)
     5   6 C       26   1 H                                       1.0820180
     8   6 C       27   1 H                                       1.0757705
    11   6 C       28   1 H                                       1.0902189
    11   6 C       29   1 H                                       1.1031579
    12   6 C       30   1 H                                       1.0918836
    12   6 C       31   1 H                                       1.0936489
    13   7 N       32   1 H                                       1.0171515
    14   6 C       33   1 H                                       1.0929401
    14   6 C       34   1 H                                       1.0910435
    15   6 C       35   1 H                                       1.0855990
    15   6 C       36   1 H                                       1.1040435
    18   6 C       37   1 H                                       1.0790388
    22   6 C       38   1 H                                       1.0864755
    23   6 C       39   1 H                                       1.0786956
    23   6 C       40   1 H                                       1.0787259
    24   6 C       41   1 H                                       1.0793760
    24   6 C       42   1 H                                       1.0792882

 * 6 distinct bonds (by element types)

   Z      Z             #   av. dist./Å        max./Å        min./Å
   1 H    6 C          16     1.0869952     1.1040435     1.0757705
   6 C    6 C          12     1.4418861     1.5400958     1.3623925
   1 H    7 N           1     1.0171515     1.0171515     1.0171515
   6 C    7 N           8     1.4168081     1.4521850     1.3436655
   1 H    8 O           1     0.9697587     0.9697587     0.9697587
   6 C    8 O           3     1.2533274     1.3292652     1.2132408


optimized geometry written to: xtbopt.xyz


           -------------------------------------------------
          | TOTAL ENERGY              -71.307600015653 Eh   |
          | GRADIENT NORM               0.000495570368 Eh/α |
          | HOMO-LUMO GAP               2.429194764579 eV   |
           -------------------------------------------------

------------------------------------------------------------------------
 * finished run on 2025/05/15 at 16:12:13.488     
------------------------------------------------------------------------
 total:
 * wall-time:     0 d,  0 h,  0 min,  1.747 sec
 *  cpu-time:     0 d,  0 h,  0 min,  1.147 sec
 * ratio c/w:     0.657 speedup
 SCF:
 * wall-time:     0 d,  0 h,  0 min,  0.134 sec
 *  cpu-time:     0 d,  0 h,  0 min,  0.060 sec
 * ratio c/w:     0.446 speedup
 ANC optimizer:
 * wall-time:     0 d,  0 h,  0 min,  1.576 sec
 *  cpu-time:     0 d,  0 h,  0 min,  1.075 sec
 * ratio c/w:     0.683 speedup



----- Single-point -----
      -----------------------------------------------------------      
     |                   =====================                   |     
     |                           x T B                           |     
     |                   =====================                   |     
     |                         S. Grimme                         |     
     |          Mulliken Center for Theoretical Chemistry        |     
     |                    University of Bonn                     |     
      -----------------------------------------------------------      

   * xtb version 6.7.1 (edcfbbe) compiled by 'conda@3ef47c1a292c' on 2024-11-25

   xtb is free software: you can redistribute it and/or modify it under
   the terms of the GNU Lesser General Public License as published by
   the Free Software Foundation, either version 3 of the License, or
   (at your option) any later version.
   
   xtb is distributed in the hope that it will be useful,
   but WITHOUT ANY WARRANTY; without even the implied warranty of
   MERCHANTABILITY or FITNESS FOR A PARTICULAR PURPOSE.  See the
   GNU Lesser General Public License for more details.
   
   Cite this work as:
   * C. Bannwarth, E. Caldeweyher, S. Ehlert, A. Hansen, P. Pracht,
     J. Seibert, S. Spicher, S. Grimme, WIREs Comput. Mol. Sci., 2020, 11,
     e01493. DOI: 10.1002/wcms.1493
   
   for GFN2-xTB:
   * C. Bannwarth, S. Ehlert and S. Grimme., J. Chem. Theory Comput., 2019,
     15, 1652-1671. DOI: 10.1021/acs.jctc.8b01176
   for GFN1-xTB:
   * S. Grimme, C. Bannwarth, P. Shushkov, J. Chem. Theory Comput., 2017,
     13, 1989-2009. DOI: 10.1021/acs.jctc.7b00118
   for GFN0-xTB:
   * P. Pracht, E. Caldeweyher, S. Ehlert, S. Grimme, ChemRxiv, 2019, preprint.
     DOI: 10.26434/chemrxiv.8326202.v1
   for GFN-FF:
   * S. Spicher and S. Grimme, Angew. Chem. Int. Ed., 2020, 59, 15665-15673.
     DOI: 10.1002/anie.202004239
   
   for ALPB and GBSA implicit solvation:
   * S. Ehlert, M. Stahn, S. Spicher, S. Grimme, J. Chem. Theory Comput.,
     2021, 17, 4250-4261. DOI: 10.1021/acs.jctc.1c00471
   
   for ddCOSMO and CPCM-X implicit solvation:
   * M. Stahn, S. Ehlert, S. Grimme, J. Phys. Chem. A,
     2023, XX, XXXX-XXXX. DOI: 10.1021/acs.jpca.3c04382
   
   for DFT-D4:
   * E. Caldeweyher, C. Bannwarth and S. Grimme, J. Chem. Phys., 2017,
     147, 034112. DOI: 10.1063/1.4993215
   * E. Caldeweyher, S. Ehlert, A. Hansen, H. Neugebauer, S. Spicher,
     C. Bannwarth and S. Grimme, J. Chem. Phys., 2019, 150, 154122.
     DOI: 10.1063/1.5090222
   * E. Caldeweyher, J.-M. Mewes, S. Ehlert and S. Grimme, Phys. Chem. Chem. Phys.
     2020, 22, 8499-8512. DOI: 10.1039/D0CP00502A
   
   for sTDA-xTB:
   * S. Grimme and C. Bannwarth, J. Chem. Phys., 2016, 145, 054103.
     DOI: 10.1063/1.4959605
   
   in the mass-spec context:
   * V. Asgeirsson, C. Bauer and S. Grimme, Chem. Sci., 2017, 8, 4879.
     DOI: 10.1039/c7sc00601b
   * J. Koopman and S. Grimme, ACS Omega 2019, 4, 12, 15120-15133.
     DOI: 10.1021/acsomega.9b02011
   
   for metadynamics refer to:
   * S. Grimme, J. Chem. Theory Comput., 2019, 155, 2847-2862
     DOI: 10.1021/acs.jctc.9b00143
   
   for SPH calculations refer to:
   * S. Spicher and S. Grimme, J. Chem. Theory Comput., 2021, 17, 1701-1714
     DOI: 10.1021/acs.jctc.0c01306
   
   for ONIOM refer to:
   * C. Plett, A. Katbashev, S. Ehlert, S. Grimme, M. Bursch,
     Phys. Chem. Chem. Phys., 2023, 25, 17860-17868. DOI: 10.1039/D3CP02178E
   
   for DIPRO refer to:
   * J. Kohn, N. Gildemeister, S. Grimme, D. Fazzi, A. Hansen,
     J. Chem. Phys., 2023, just accepted.
   
   for PTB refer to:
   * S. Grimme, M. Mueller, A. Hansen, J. Chem. Phys., 2023, 158, 124111.
     DOI: 10.1063/5.0137838
   
   with help from (in alphabetical order)
   P. Atkinson, C. Bannwarth, F. Bohle, G. Brandenburg, E. Caldeweyher
   M. Checinski, S. Dohm, S. Ehlert, S. Ehrlich, I. Gerasimov, C. Hölzer
   A. Katbashev, J. Kohn, J. Koopman, C. Lavigne, S. Lehtola, F. März, M. Müller,
   F. Musil, H. Neugebauer, J. Pisarek, C. Plett, P. Pracht, F. Pultar,
   J. Seibert, P. Shushkov, S. Spicher, M. Stahn, M. Steiner, T. Strunk,
   J. Stückrath, T. Rose, and J. Unsleber
   
 * started run on 2025/05/15 at 16:12:13.518     
   ID    Z sym.   atoms
    1    8 O      1, 3, 21
    2    6 C      2, 4, 5, 7-9, 11, 12, 14-16, 18-20, 22-24
    3    7 N      6, 10, 13
    4    9 F      17
    5    1 H      25-42

           -------------------------------------------------
          |                Calculation Setup                |
           -------------------------------------------------

          program call               : xtb /rds/general/user/hgt20/home/callum/QDESCP/Ciprofloxacin_rdkit_conf_14/Ciprofloxacin_rdkit_conf_14.xyz --acc 1 --gfn 2 --chrg 0 --uhf 0 --etemp 300 --input /rds/general/user/hgt20/home/callum/QDESCP/Ciprofloxacin_rdkit_conf_14/Ciprofloxacin_rdkit_conf_14_xtb.inp -P 1
          hostname                   : login-c
          coordinate file            : /rds/general/user/hgt20/home/callum/QDESCP/Ciprofloxacin_rdkit_conf_14/Ciprofloxacin_rdkit_conf_14.xyz
          omp threads                :                     1


           -------------------------------------------------
          |                 G F N 2 - x T B                 |
           -------------------------------------------------

        Reference                      10.1021/acs.jctc.8b01176
      * Hamiltonian:
        H0-scaling (s, p, d)           1.850000    2.230000    2.230000
        zeta-weighting                 0.500000
      * Dispersion:
        s8                             2.700000
        a1                             0.520000
        a2                             5.000000
        s9                             5.000000
      * Repulsion:
        kExp                           1.500000    1.000000
        rExp                           1.000000
      * Coulomb:
        alpha                          2.000000
        third order                    shell-resolved
        anisotropic                    true
        a3                             3.000000
        a5                             4.000000
        cn-shift                       1.200000
        cn-exp                         4.000000
        max-rad                        5.000000

q/qsh data taken from xtbrestart
CAMM data taken from xtbrestart

          ...................................................
          :                      SETUP                      :
          :.................................................:
          :  # basis functions                 114          :
          :  # atomic orbitals                 114          :
          :  # shells                           66          :
          :  # electrons                       126          :
          :  max. iterations                   250          :
          :  Hamiltonian                  GFN2-xTB          :
          :  restarted?                       true          :
          :  GBSA solvation                  false          :
          :  PC potential                    false          :
          :  electronic temp.          300.0000000     K    :
          :  accuracy                    1.0000000          :
          :  -> integral cutoff          0.2500000E+02      :
          :  -> integral neglect         0.1000000E-07      :
          :  -> SCF convergence          0.1000000E-05 Eh   :
          :  -> wf. convergence          0.1000000E-03 e    :
          :  Broyden damping             0.4000000          :
          :  net charge                          0          :
          :  unpaired electrons                  0          :
          ...................................................

 iter      E             dE          RMSdq      gap      omega  full diag
   1    -72.2019480 -0.722019E+02  0.541E-06    2.43       0.0  T
   2    -72.2019480 -0.653699E-12  0.374E-06    2.43    4130.2  T
   3    -72.2019480 -0.852651E-13  0.180E-06    2.43    8552.2  T

   *** convergence criteria satisfied after 3 iterations ***

         #    Occupation            Energy/Eh            Energy/eV
      -------------------------------------------------------------
         1        2.0000           -0.8174420             -22.2437
       ...           ...                  ...                  ...
        57        2.0000           -0.4381660             -11.9231
        58        2.0000           -0.4248623             -11.5611
        59        2.0000           -0.4123664             -11.2211
        60        2.0000           -0.3896582             -10.6031
        61        2.0000           -0.3829294             -10.4200
        62        2.0000           -0.3727808             -10.1439
        63        2.0000           -0.3625712              -9.8661 (HOMO)
        64                         -0.2733000              -7.4369 (LUMO)
        65                         -0.2609591              -7.1011
        66                         -0.2252821              -6.1302
        67                         -0.2033231              -5.5327
        68                         -0.1373332              -3.7370
       ...                                ...                  ...
       114                          0.7142468              19.4356
      -------------------------------------------------------------
                  HL-Gap            0.0892712 Eh            2.4292 eV
             Fermi-level           -0.3179356 Eh           -8.6515 eV

 SCC (total)                   0 d,  0 h,  0 min,  0.064 sec
 SCC setup                      ...        0 min,  0.000 sec (  0.563%)
 Dispersion                     ...        0 min,  0.000 sec (  0.698%)
 classical contributions        ...        0 min,  0.000 sec (  0.228%)
 integral evaluation            ...        0 min,  0.008 sec ( 12.628%)
 iterations                     ...        0 min,  0.008 sec ( 12.472%)
 molecular gradient             ...        0 min,  0.047 sec ( 73.040%)
 printout                       ...        0 min,  0.000 sec (  0.362%)

         :::::::::::::::::::::::::::::::::::::::::::::::::::::
         ::                     SUMMARY                     ::
         :::::::::::::::::::::::::::::::::::::::::::::::::::::
         :: total energy             -71.307600015660 Eh    ::
         :: gradient norm              0.000495782131 Eh/a0 ::
         :: HOMO-LUMO gap              2.429194019123 eV    ::
         ::.................................................::
         :: SCC energy               -72.201865325802 Eh    ::
         :: -> isotropic ES            0.107730006937 Eh    ::
         :: -> anisotropic ES          0.007961260914 Eh    ::
         :: -> anisotropic XC          0.018900264465 Eh    ::
         :: -> dispersion             -0.046212966233 Eh    ::
         :: repulsion energy           0.894265310143 Eh    ::
         :: add. restraining           0.000000000000 Eh    ::
         :: total charge               0.000000000000 e     ::
         :::::::::::::::::::::::::::::::::::::::::::::::::::::

           -------------------------------------------------
          |                Property Printout                |
           -------------------------------------------------

    * Orbital Energies and Occupations

         #    Occupation            Energy/Eh            Energy/eV
      -------------------------------------------------------------
         1        2.0000           -0.8174420             -22.2437
       ...           ...                  ...                  ...
        51        2.0000           -0.4637196             -12.6185
        52        2.0000           -0.4606967             -12.5362
        53        2.0000           -0.4588855             -12.4869
        54        2.0000           -0.4575134             -12.4496
        55        2.0000           -0.4551061             -12.3841
        56        2.0000           -0.4467572             -12.1569
        57        2.0000           -0.4381660             -11.9231
        58        2.0000           -0.4248623             -11.5611
        59        2.0000           -0.4123664             -11.2211
        60        2.0000           -0.3896582             -10.6031
        61        2.0000           -0.3829294             -10.4200
        62        2.0000           -0.3727808             -10.1439
        63        2.0000           -0.3625712              -9.8661 (HOMO)
        64                         -0.2733000              -7.4369 (LUMO)
        65                         -0.2609591              -7.1011
        66                         -0.2252821              -6.1302
        67                         -0.2033231              -5.5327
        68                         -0.1373332              -3.7370
        69                         -0.0972333              -2.6459
        70                         -0.0777720              -2.1163
        71                         -0.0303028              -0.8246
        72                         -0.0189907              -0.5168
        73                          0.0361947               0.9849
        74                          0.0432813               1.1777
[...]
   * S. Ehlert, M. Stahn, S. Spicher, S. Grimme, J. Chem. Theory Comput.,
     2021, 17, 4250-4261. DOI: 10.1021/acs.jctc.1c00471
   
   for ddCOSMO and CPCM-X implicit solvation:
   * M. Stahn, S. Ehlert, S. Grimme, J. Phys. Chem. A,
     2023, XX, XXXX-XXXX. DOI: 10.1021/acs.jpca.3c04382
   
   for DFT-D4:
   * E. Caldeweyher, C. Bannwarth and S. Grimme, J. Chem. Phys., 2017,
     147, 034112. DOI: 10.1063/1.4993215
   * E. Caldeweyher, S. Ehlert, A. Hansen, H. Neugebauer, S. Spicher,
     C. Bannwarth and S. Grimme, J. Chem. Phys., 2019, 150, 154122.
     DOI: 10.1063/1.5090222
   * E. Caldeweyher, J.-M. Mewes, S. Ehlert and S. Grimme, Phys. Chem. Chem. Phys.
     2020, 22, 8499-8512. DOI: 10.1039/D0CP00502A
   
   for sTDA-xTB:
   * S. Grimme and C. Bannwarth, J. Chem. Phys., 2016, 145, 054103.
     DOI: 10.1063/1.4959605
   
   in the mass-spec context:
   * V. Asgeirsson, C. Bauer and S. Grimme, Chem. Sci., 2017, 8, 4879.
     DOI: 10.1039/c7sc00601b
   * J. Koopman and S. Grimme, ACS Omega 2019, 4, 12, 15120-15133.
     DOI: 10.1021/acsomega.9b02011
   
   for metadynamics refer to:
   * S. Grimme, J. Chem. Theory Comput., 2019, 155, 2847-2862
     DOI: 10.1021/acs.jctc.9b00143
   
   for SPH calculations refer to:
   * S. Spicher and S. Grimme, J. Chem. Theory Comput., 2021, 17, 1701-1714
     DOI: 10.1021/acs.jctc.0c01306
   
   for ONIOM refer to:
   * C. Plett, A. Katbashev, S. Ehlert, S. Grimme, M. Bursch,
     Phys. Chem. Chem. Phys., 2023, 25, 17860-17868. DOI: 10.1039/D3CP02178E
   
   for DIPRO refer to:
   * J. Kohn, N. Gildemeister, S. Grimme, D. Fazzi, A. Hansen,
     J. Chem. Phys., 2023, just accepted.
   
   for PTB refer to:
   * S. Grimme, M. Mueller, A. Hansen, J. Chem. Phys., 2023, 158, 124111.
     DOI: 10.1063/5.0137838
   
   with help from (in alphabetical order)
   P. Atkinson, C. Bannwarth, F. Bohle, G. Brandenburg, E. Caldeweyher
   M. Checinski, S. Dohm, S. Ehlert, S. Ehrlich, I. Gerasimov, C. Hölzer
   A. Katbashev, J. Kohn, J. Koopman, C. Lavigne, S. Lehtola, F. März, M. Müller,
   F. Musil, H. Neugebauer, J. Pisarek, C. Plett, P. Pracht, F. Pultar,
   J. Seibert, P. Shushkov, S. Spicher, M. Stahn, M. Steiner, T. Strunk,
   J. Stückrath, T. Rose, and J. Unsleber
   
 * started run on 2025/05/15 at 16:12:15.296     
   ID    Z sym.   atoms
    1    8 O      1, 3, 21
    2    6 C      2, 4, 5, 7-9, 11, 12, 14-16, 18-20, 22-24
    3    7 N      6, 10, 13
    4    9 F      17
    5    1 H      25-42

           -------------------------------------------------
          |                Calculation Setup                |
           -------------------------------------------------

          program call               : xtb /rds/general/user/hgt20/home/callum/QDESCP/Ciprofloxacin_rdkit_conf_14/Ciprofloxacin_rdkit_conf_14.xyz --acc 1 --gfn 2 --chrg 0 --uhf 2 --etemp 300 --input /rds/general/user/hgt20/home/callum/QDESCP/Ciprofloxacin_rdkit_conf_14/Ciprofloxacin_rdkit_conf_14_xtb.inp -P 1
          hostname                   : login-c
          coordinate file            : /rds/general/user/hgt20/home/callum/QDESCP/Ciprofloxacin_rdkit_conf_14/Ciprofloxacin_rdkit_conf_14.xyz
          omp threads                :                     1


           -------------------------------------------------
          |                 G F N 2 - x T B                 |
           -------------------------------------------------

        Reference                      10.1021/acs.jctc.8b01176
      * Hamiltonian:
        H0-scaling (s, p, d)           1.850000    2.230000    2.230000
        zeta-weighting                 0.500000
      * Dispersion:
        s8                             2.700000
        a1                             0.520000
        a2                             5.000000
        s9                             5.000000
      * Repulsion:
        kExp                           1.500000    1.000000
        rExp                           1.000000
      * Coulomb:
        alpha                          2.000000
        third order                    shell-resolved
        anisotropic                    true
        a3                             3.000000
        a5                             4.000000
        cn-shift                       1.200000
        cn-exp                         4.000000
        max-rad                        5.000000


          ...................................................
          :                      SETUP                      :
          :.................................................:
          :  # basis functions                 114          :
          :  # atomic orbitals                 114          :
          :  # shells                           66          :
          :  # electrons                       126          :
          :  max. iterations                   250          :
          :  Hamiltonian                  GFN2-xTB          :
          :  restarted?                      false          :
          :  GBSA solvation                  false          :
          :  PC potential                    false          :
          :  electronic temp.          300.0000000     K    :
          :  accuracy                    1.0000000          :
          :  -> integral cutoff          0.2500000E+02      :
          :  -> integral neglect         0.1000000E-07      :
          :  -> SCF convergence          0.1000000E-05 Eh   :
          :  -> wf. convergence          0.1000000E-03 e    :
          :  Broyden damping             0.4000000          :
          :  net charge                          0          :
          :  unpaired electrons                  2          :
          ...................................................

 iter      E             dE          RMSdq      gap      omega  full diag
   1    -71.8116792 -0.718117E+02  0.387E+00    0.20       0.0  T
   2    -71.8152116 -0.353248E-02  0.304E+00    0.16       1.0  T
   3    -71.9574960 -0.142284E+00  0.216E+00    0.64       1.0  T
   4    -71.9776796 -0.201836E-01  0.149E+00    0.39       1.0  T
   5    -71.9988162 -0.211367E-01  0.110E+00    0.24       1.0  T
   6    -72.0582859 -0.594696E-01  0.617E-01    0.22       1.0  T
   7    -72.0152086  0.430772E-01  0.988E-01    0.16       1.0  T
   8    -72.0741085 -0.588999E-01  0.502E-01    0.14       1.0  T
   9    -72.0741145 -0.598732E-05  0.525E-01    0.11       1.0  T
  10    -72.0926287 -0.185142E-01  0.241E-01    0.14       1.0  T
  11    -72.0892457  0.338301E-02  0.284E-01    0.13       1.0  T
  12    -72.0950938 -0.584811E-02  0.657E-02    0.13       1.0  T
  13    -72.0951051 -0.113236E-04  0.656E-02    0.12       1.0  T
  14    -72.0952700 -0.164914E-03  0.423E-02    0.13       1.0  T
  15    -72.0953965 -0.126448E-03  0.144E-02    0.13       1.1  T
  16    -72.0954116 -0.151197E-04  0.523E-03    0.13       2.9  T
  17    -72.0954119 -0.286627E-06  0.498E-03    0.13       3.1  T
  18    -72.0954134 -0.146234E-05  0.265E-03    0.13       5.8  T
  19    -72.0954139 -0.554788E-06  0.149E-04    0.13     103.4  T
  20    -72.0954139  0.390757E-08  0.255E-04    0.13      60.6  T

   *** convergence criteria satisfied after 20 iterations ***

         #    Occupation            Energy/Eh            Energy/eV
      -------------------------------------------------------------
         1        2.0000           -0.8155193             -22.1914
       ...           ...                  ...                  ...
        58        2.0000           -0.4130928             -11.2408
        59        2.0000           -0.4043330             -11.0025
        60        2.0000           -0.3995317             -10.8718
        61        1.9652           -0.3767087             -10.2508
        62        1.5670           -0.3738080             -10.1718
        63        1.4677           -0.3734289             -10.1615
        64        0.9191           -0.2572529              -7.0002 (HOMO)
        65        0.0809           -0.2526357              -6.8746 (LUMO)
        66                         -0.2112502              -5.7484
        67                         -0.1956765              -5.3246
        68                         -0.1259471              -3.4272
        69                         -0.0858191              -2.3353
       ...                                ...                  ...
       114                          0.7225243              19.6609
      -------------------------------------------------------------
                  HL-Gap            0.0046172 Eh            0.1256 eV
             Fermi-level           -0.3142480 Eh           -8.5511 eV

 transition dipole moment (au) for excitation:          63          64
     X       Y       Z   
  -0.9475   0.1860   0.0723  total (au/Debye):    0.968   2.461
 dE (eV)             :    3.161
 oscillator strength :  0.10271E+00

 SCC (total)                   0 d,  0 h,  0 min,  0.106 sec
 SCC setup                      ...        0 min,  0.000 sec (  0.349%)
 Dispersion                     ...        0 min,  0.001 sec (  0.477%)
 classical contributions        ...        0 min,  0.000 sec (  0.139%)
 integral evaluation            ...        0 min,  0.008 sec (  7.656%)
 iterations                     ...        0 min,  0.045 sec ( 42.191%)
 molecular gradient             ...        0 min,  0.045 sec ( 42.356%)
 printout                       ...        0 min,  0.007 sec (  6.825%)

         :::::::::::::::::::::::::::::::::::::::::::::::::::::
         ::                     SUMMARY                     ::
         :::::::::::::::::::::::::::::::::::::::::::::::::::::
         :: total energy             -71.201065873765 Eh    ::
         :: gradient norm              0.085910448479 Eh/a0 ::
         :: HOMO-LUMO gap              0.125641463874 eV    ::
         ::.................................................::
         :: SCC energy               -72.095331183907 Eh    ::
         :: -> isotropic ES            0.101232537472 Eh    ::
         :: -> anisotropic ES          0.006873991103 Eh    ::
         :: -> anisotropic XC          0.016719168148 Eh    ::
         :: -> dispersion             -0.046193846712 Eh    ::
         :: repulsion energy           0.894265310143 Eh    ::
         :: add. restraining           0.000000000000 Eh    ::
         :: total charge               0.000000000758 e     ::
         :::::::::::::::::::::::::::::::::::::::::::::::::::::

           -------------------------------------------------
          |                Property Printout                |
           -------------------------------------------------

    * Orbital Energies and Occupations

         #    Occupation            Energy/Eh            Energy/eV
      -------------------------------------------------------------
         1        2.0000           -0.8155193             -22.1914
       ...           ...                  ...                  ...
        52        2.0000           -0.4590950             -12.4926
        53        2.0000           -0.4533254             -12.3356
        54        2.0000           -0.4506657             -12.2632
        55        2.0000           -0.4470383             -12.1645
        56        2.0000           -0.4400769             -11.9751
        57        2.0000           -0.4336718             -11.8008
        58        2.0000           -0.4130928             -11.2408
        59        2.0000           -0.4043330             -11.0025
        60        2.0000           -0.3995317             -10.8718
        61        1.9652           -0.3767087             -10.2508
        62        1.5670           -0.3738080             -10.1718
        63        1.4677           -0.3734289             -10.1615
        64        0.9191           -0.2572529              -7.0002 (HOMO)
        65        0.0809           -0.2526357              -6.8746 (LUMO)
        66                         -0.2112502              -5.7484
        67                         -0.1956765              -5.3246
        68                         -0.1259471              -3.4272
        69                         -0.0858191              -2.3353
        70                         -0.0669948              -1.8230
        71                         -0.0325936              -0.8869
        72                         -0.0115050              -0.3131
        73                          0.0265892               0.7235
        74                          0.0405085               1.1023
        75                          0.0511584               1.3921
       ...                                ...                  ...
       114                          0.7225243              19.6609
      -------------------------------------------------------------
                  HL-Gap            0.0046172 Eh            0.1256 eV
             Fermi-level           -0.3142480 Eh           -8.5511 eV

     #   Z          covCN         q      C6AA      α(0)
     1   8 O        0.857    -0.451    22.720     6.391
     2   6 C        2.704     0.356    20.954     7.492
     3   8 O        1.660    -0.359    20.069     6.048
     4   6 C        2.956    -0.070    29.752     8.947
     5   6 C        2.884    -0.008    28.215     8.708
     6   7 N        2.746    -0.020    21.643     6.909
     7   6 C        2.934     0.053    26.803     8.491
     8   6 C        2.929    -0.105    30.661     9.081
     9   6 C        2.904     0.029    27.346     8.574
    10   7 N        2.739    -0.063    22.454     7.038
    11   6 C        3.754    -0.007    20.753     6.496
    12   6 C        3.757     0.001    20.610     6.473
    13   7 N        2.678    -0.229    26.005     7.574
    14   6 C        3.757     0.000    20.630     6.476
    15   6 C        3.754    -0.006    20.748     6.495
    16   6 C        2.784     0.141    24.905     8.174
    17   9 F        0.787    -0.232    11.572     4.018
    18   6 C        2.922    -0.072    29.804     8.953
    19   6 C        2.983    -0.016    28.403     8.742
    20   6 C        2.830     0.196    23.821     7.998
    21   8 O        0.857    -0.350    20.702     6.100
    22   6 C        3.811     0.031    20.043     6.373
    23   6 C        3.806    -0.069    21.823     6.650
    24   6 C        3.806    -0.069    21.809     6.648
    25   1 H        0.805     0.326     0.648     1.264
    26   1 H        0.925     0.071     2.074     2.252
    27   1 H        0.926     0.035     2.515     2.480
    28   1 H        0.924     0.057     2.238     2.339
    29   1 H        0.923     0.034     2.528     2.487
    30   1 H        0.924     0.048     2.346     2.395
    31   1 H        0.924     0.058     2.220     2.330
    32   1 H        0.860     0.146     1.429     1.873
    33   1 H        0.924     0.063     2.163     2.300
    34   1 H        0.924     0.051     2.312     2.378
    35   1 H        0.925     0.077     2.015     2.220
    36   1 H        0.923     0.032     2.552     2.498
    37   1 H        0.926     0.076     2.025     2.225
    38   1 H        0.925     0.041     2.430     2.438
    39   1 H        0.926     0.060     2.199     2.319
    40   1 H        0.926     0.050     2.317     2.380
    41   1 H        0.926     0.041     2.431     2.438
    42   1 H        0.926     0.051     2.309     2.376

 Mol. C6AA /au·bohr⁶  :      20012.343188
 Mol. C8AA /au·bohr⁸  :     469220.391852
 Mol. α(0) /au        :        215.840789


Wiberg/Mayer (AO) data.
largest (>0.10) Wiberg bond orders for each atom

 ---------------------------------------------------------------------------
     #   Z sym  total        # sym  WBO       # sym  WBO       # sym  WBO
 ---------------------------------------------------------------------------
     1   8 O    1.956 --     2 C    1.659     3 O    0.158
     2   6 C    3.889 --     1 O    1.659     3 O    1.136     4 C    1.035
     3   8 O    2.204 --     2 C    1.136    25 H    0.868     1 O    0.158
     4   6 C    3.849 --     5 C    1.452    20 C    1.075     2 C    1.035
     5   6 C    3.858 --     4 C    1.452     6 N    1.189    26 H    0.949
     6   7 N    3.548 --     5 C    1.189     7 C    1.116    22 C    0.988
     7   6 C    3.936 --     8 C    1.373    19 C    1.267     6 N    1.116
     8   6 C    3.885 --     7 C    1.373     9 C    1.262    27 H    0.959
     9   6 C    3.899 --    16 C    1.282     8 C    1.262    10 N    1.133
    10   7 N    3.292 --     9 C    1.133    11 C    1.008    15 C    0.996
    11   6 C    3.969 --    10 N    1.008    12 C    0.970    28 H    0.968
                            29 H    0.958
    12   6 C    3.973 --    13 N    1.027    30 H    0.972    31 H    0.970
                            11 C    0.970
    13   7 N    3.095 --    12 C    1.027    14 C    1.021    32 H    0.953
    14   6 C    3.972 --    13 N    1.021    15 C    0.977    34 H    0.972
                            33 H    0.969
    15   6 C    3.960 --    10 N    0.996    14 C    0.977    35 H    0.967
                            36 H    0.956
    16   6 C    3.790 --    18 C    1.394     9 C    1.282    17 F    0.945
    17   9 F    1.065 --    16 C    0.945
    18   6 C    3.918 --    16 C    1.394    19 C    1.291    37 H    0.960
    19   6 C    3.820 --    18 C    1.291     7 C    1.267    20 C    1.040
    20   6 C    3.872 --    21 O    1.564     4 C    1.075    19 C    1.040
    21   8 O    1.848 --    20 C    1.564
    22   6 C    3.923 --     6 N    0.988    23 C    0.974    24 C    0.962
                            38 H    0.958
    23   6 C    3.943 --    24 C    0.984    40 H    0.980    39 H    0.976
                            22 C    0.974
    24   6 C    3.938 --    23 C    0.984    41 H    0.980    42 H    0.979
                            22 C    0.962
    25   1 H    0.892 --     3 O    0.868
    26   1 H    0.987 --     5 C    0.949
    27   1 H    0.997 --     8 C    0.959
    28   1 H    0.997 --    11 C    0.968
    29   1 H    0.986 --    11 C    0.958
    30   1 H    0.996 --    12 C    0.972
    31   1 H    0.995 --    12 C    0.970
    32   1 H    0.977 --    13 N    0.953
    33   1 H    0.994 --    14 C    0.969
    34   1 H    0.996 --    14 C    0.972
    35   1 H    0.994 --    15 C    0.967
    36   1 H    0.984 --    15 C    0.956
    37   1 H    0.993 --    18 C    0.960
    38   1 H    0.994 --    22 C    0.958
    39   1 H    0.996 --    23 C    0.976
    40   1 H    0.997 --    23 C    0.980
    41   1 H    0.998 --    24 C    0.980
    42   1 H    0.997 --    24 C    0.979
 ---------------------------------------------------------------------------

Topologies differ in total number of bonds
Writing topology from bond orders to xtbtopo.mol

molecular dipole:
                 x           y           z       tot (Debye)
 q only:       -2.812       2.398       1.922
   full:       -2.457       2.297       2.390      10.488
molecular quadrupole (traceless):
                xx          xy          yy          xz          yz          zz
 q only:       -2.494       7.337       1.483      -0.891      -6.243       1.011
  q+dip:       -6.614       7.925      -0.173      -5.666      -6.241       6.786
   full:       -7.297       8.466       0.950      -5.626      -8.486       6.348


           -------------------------------------------------
          | TOTAL ENERGY              -71.201065873765 Eh   |
          | GRADIENT NORM               0.085910448479 Eh/α |
          | HOMO-LUMO GAP               0.125641463874 eV   |
           -------------------------------------------------

------------------------------------------------------------------------
 * finished run on 2025/05/15 at 16:12:15.416     
------------------------------------------------------------------------
 total:
 * wall-time:     0 d,  0 h,  0 min,  0.120 sec
 *  cpu-time:     0 d,  0 h,  0 min,  0.099 sec
 * ratio c/w:     0.826 speedup
 SCF:
 * wall-time:     0 d,  0 h,  0 min,  0.106 sec
 *  cpu-time:     0 d,  0 h,  0 min,  0.086 sec
 * ratio c/w:     0.816 speedup


