38
 energy: -65.472790075204 gnorm: 0.000117206106 xtb: 6.7.1 (edcfbbe)
O           -2.93241917616781       -2.62868392345870        1.52400541015270
C           -3.24918306458828       -1.84216442206857        0.40868989135460
C           -2.42621571695793       -0.55025759688094        0.32621441452847
O           -1.13176305983203       -0.88398530348546       -0.12528934923015
C           -0.25776742961714        0.21273742879633       -0.17364727999529
C           -0.76943374723130        1.30178479052982       -1.13345073490913
C           -2.18260260540378        1.71158039990605       -0.71804852702069
C           -3.07961046836944        0.47292352644946       -0.61416509036810
O           -4.34285783823158        0.81326389995406       -0.10778444646288
O           -2.76068214401220        2.59660977976034       -1.64608499199750
O            0.04486185786445        2.44246604652872       -1.09763587114587
O            0.97449314719001       -0.19210616621883       -0.66766960718996
C            1.91346840589980       -0.63584902835493        0.24943120109007
C            1.57763007409755       -1.58204197503133        1.21040428789138
C            2.53159932411856       -2.03768639657483        2.09892374873730
C            3.82666921711981       -1.55098327917762        2.02844120279389
C            4.15443992486216       -0.60467565392274        1.07713222874662
C            3.20883363439490       -0.12140553606254        0.17761294952972
C            3.65373265733745        0.94356130953749       -0.80265846228432
O            2.69691652423021        1.41147359817681       -1.72276921746201
H           -3.13905763168036       -2.13351464445554        2.32508057881924
H           -4.31082996751153       -1.56662025660187        0.40337826872521
H           -3.02198025715070       -2.45548472677498       -0.46440291864950
H           -2.36253027599726       -0.09339734804949        1.33031168360448
H           -0.14764446266825        0.65046290546300        0.84057751340067
H           -0.79955146587480        0.86803932030496       -2.14590520874915
H           -2.12406825774253        2.19718558993956        0.27104503808583
H           -3.17405954598841        0.02850792033173       -1.61761102135878
H           -4.64214076921695        1.58709725697962       -0.60301227617524
H           -2.09878588043701        3.27100721612860       -1.84290313097685
H            0.97000182059659        2.18238466854719       -1.26936912142113
H            0.56579371263913       -1.95675855483257        1.23329741725573
H            2.26508037848559       -2.77616523573218        2.83926519846572
H            4.57956445809415       -1.90685757448138        2.71501668793979
H            5.16147976840418       -0.21621514180213        1.02737508669331
H            4.53562427438885        0.56534452453097       -1.34412134495502
H            3.96740603843765        1.82950639522491       -0.23938476103743
H            2.32578854651878        0.64901618687608       -2.18378944642784
