56
 energy: -97.790224771512 gnorm: 0.000440531885 xtb: 6.7.1 (edcfbbe)
O            3.70486374134459        0.61712772265435        3.68985071462634
C            3.93696067023419       -0.10884113372601        2.59324064863586
C            5.01867167104098       -0.99286010538986        2.60664070876914
C            5.31586695320290       -1.74278929178299        1.49242451473968
C            4.55134896087392       -1.62776379926085        0.33674649904272
C            3.46267310314393       -0.78375961496694        0.30660500492465
C            3.12428528324365       -0.02301689270080        1.44063310725271
C            1.95985283858241        0.85510234411561        1.43626755964182
C            0.99799023535513        0.68782378719066        0.36357667094466
C           -0.01411645680224        1.58377502977628        0.22546089187656
O           -0.22538854470564        2.60328411599618        1.04731267348112
C           -0.95228115054326        1.52487361716162       -0.97203638316197
C           -2.28070531010169        2.19510485615904       -0.61782064993276
C           -3.16108946048698        1.43859558474711        0.22774208429676
C           -4.33376632133997        2.07081275374747        0.87569045187707
N           -4.59532595998688        3.33868473559716        0.56052787081753
O           -5.04798711205977        1.44010830818410        1.67134326330251
C           -2.93323040526328        0.09838734080881        0.47258641452825
O           -3.67443211538398       -0.58742265649070        1.29963914326837
C           -1.86969485953335       -0.71404936898555       -0.23708619383762
N           -2.36891175977025       -1.97022458705179       -0.77909550359981
C           -3.67000481959356       -1.88927190053762       -1.41204912583032
C           -2.28774670205217       -3.09662947874765        0.12652138371387
O           -2.49289454982475        3.31535821220212       -1.06711164794062
O           -0.36168701051901        2.23252273332563       -2.03598580676467
C           -1.16876678172108        0.06183880283591       -1.36115350573899
C            0.19370313531576       -0.53254430177665       -1.71697867026629
C            1.16463623423562       -0.50872946930566       -0.53291597745063
C            2.65067518097610       -0.61309529738481       -0.95997192360178
O            2.84772059416935       -1.75394601808107       -1.76974883414776
C            3.14462762251854        0.64820872559203       -1.68393130248745
O            1.79313576614010        1.72193449632246        2.32696708481227
H            2.95547695255773        1.22847887058389        3.49985767898367
H            5.61141525278303       -1.05254104676517        3.50549627701616
H            6.15872637112482       -2.41718474426981        1.50967250846672
H            4.79121310830276       -2.20230736801213       -0.54228462111696
H            0.48114213374985        2.56453581366309        1.75272233816421
H           -5.37445441806306        3.79802058051944        1.00194143068326
H           -3.98970846821084        3.82737712525248       -0.08853998415869
H           -4.39160281061990        0.05855272028975        1.66365634576920
H           -1.12945648777155       -0.96592630001184        0.52996199849631
H           -4.49877862047054       -1.90270692273051       -0.69112997051910
H           -3.78053729674207       -2.74538362014610       -2.07785126448131
H           -3.73917892912291       -0.97932391921638       -2.00517905820336
H           -2.53991396888000       -3.99908137323162       -0.42912531896665
H           -2.96972433259843       -3.01086017191307        0.98176749206124
H           -1.26664990107984       -3.19275580814199        0.49302446425217
H           -0.82844793603717        3.08829954607450       -2.07696223413985
H           -1.79730076685272        0.03859208083599       -2.25603152481970
H            0.05561596420202       -1.55940373307174       -2.05588053684549
H            0.58618531867600        0.06884174835032       -2.53732366905515
H            0.98540078000909       -1.40740092978156        0.07576558162875
H            2.43536891046241       -1.58916617521124       -2.62439369627048
H            3.05662691527137        1.51871791106682       -1.04112340589223
H            4.18992219620682        0.51338923112382       -1.95314602134161
H            2.56967736240819        0.83063723450480       -2.58888597550121
