54
 energy: -87.154682694741 gnorm: 0.000860101120 xtb: 6.7.1 (edcfbbe)
O           -3.48127519875853        2.80742098250134        3.65595151613614
C           -2.58208300378592        2.51970522936243        2.87665954173478
C           -2.61514529529501        1.25004464228256        2.18190883562612
C           -1.73141328274450        0.55774318779184        1.41732836070812
C           -2.20109697592693       -0.79997490188276        0.92498235943991
N           -1.87609088386123       -0.94418764295434       -0.48803965097678
C           -1.88211600570784       -2.07472990397818       -1.22488953155484
C           -1.49141552011990       -1.82166905772460       -2.67080102946513
O           -2.16216087938648       -3.17584594895990       -0.80096216469158
C           -1.61447003109873       -1.91171562170032        1.81664097143209
C           -0.14837907935992       -1.67136712816979        2.19375379996877
C           -1.51318726560288        3.51165903696666        2.60581864906442
O           -1.85913499044823        4.69085519651237        3.15238978910467
C           -1.02709293011028        5.81643906681873        3.03142515735609
C           -0.33211871809622        3.30837511858200        1.95194901270117
C            0.18062739343761        2.15186905914948        1.33714492355394
C           -0.39436387605489        0.93806358312502        1.07561177613008
C            0.47181739091278       -0.06196290984547        0.40309931926966
C            1.11881340394525        0.25273576457367       -0.80584592301319
O            0.81315134078067        1.49024968463522       -1.30544052148145
C            1.01060979545503        1.80856431134807       -2.66489994194171
C            1.97431592220586       -0.67888084900068       -1.40724543910827
O            2.64665483961833       -0.30579178028062       -2.55073456625655
C            2.76109269528179       -1.23763859125613       -3.60843089471398
C            0.63849397560507       -1.31983653052511        0.96914470244230
C            1.46941657967385       -2.24555742151792        0.36486911190795
C            2.15776726194862       -1.93507846637534       -0.79751802953728
O            3.03326732729701       -2.78839061382361       -1.40617468588900
C            3.19459301779345       -4.08051702737296       -0.87260244154143
H           -3.56942786225992        0.76522562259127        2.36355703122768
H           -3.29508948134866       -0.85973276242001        1.01842373034456
H           -1.66278421061558       -0.08095581087911       -0.96180339536959
H           -0.51421003296802       -1.34527993416351       -2.70792253303509
H           -2.22150242920252       -1.17140329520476       -3.14751874811570
H           -1.45642054622934       -2.76720541337406       -3.20375528826664
H           -1.71577887575299       -2.85637136149962        1.28418849900784
H           -2.21145656589049       -1.96308111017732        2.72830830084328
H           -0.08764206493076       -0.85620966850985        2.91892050922805
H            0.25129653117896       -2.57305756582477        2.65858651642884
H           -0.85109126625312        6.07780587260210        1.98306985141718
H           -0.06761226686407        5.66448164217469        3.53652532252431
H           -1.56456879577334        6.62752303798993        3.52002710451023
H            0.35021619418028        4.14806514112726        1.92092850362638
H            1.20328624006717        2.25413169496033        0.99876943408259
H            2.06831213112621        1.91588078183683       -2.90954690743304
H            0.55989955180561        1.06409963973419       -3.32715154011299
H            0.50320823412306        2.76414109845366       -2.80307186655834
H            1.86341935728702       -1.85332120750303       -3.70338314543328
H            2.88820954091474       -0.64144696497933       -4.51310150231605
H            3.62720928310256       -1.88761173424246       -3.47607504242361
H            1.58341219911282       -3.21324833539147        0.82386565470543
H            3.60637335907792       -4.04836020048305        0.14090382161687
H            3.90339422353486       -4.57993485387241       -1.53187613054544
H            2.25077054495996       -4.63431478121860       -0.86846118638380
