38
 energy: -65.476910594129 gnorm: 0.000698684820 xtb: 6.7.1 (edcfbbe)
O           -2.86094208478167        2.89897954508834       -0.53210792265433
C           -2.98221132494636        1.74613849457688       -1.31492426876197
C           -2.37918972908351        0.52285170348115       -0.61081354146889
O           -1.04041157877620        0.87151724649520       -0.30194153608083
C           -0.34053311822600       -0.12208776471433        0.40099403590331
C           -1.01664674180583       -0.44606710238852        1.74270515392041
C           -2.45274937192084       -0.89306488893612        1.47415891927842
C           -3.18604653762632        0.16802661521551        0.64515135380885
O           -4.43693342757218       -0.31015818111020        0.22518271070287
O           -3.16887488984487       -1.08826409706066        2.66850357730777
O           -0.34428666507167       -1.47937518664492        2.41071135508265
O            0.93059509291847        0.33263802237193        0.71654719085635
C            1.94530286536559        0.15341035922343       -0.19060803879772
C            1.76439718579569        0.19033959366072       -1.56422371264664
C            2.85276246970490        0.01414322964110       -2.40258143816346
C            4.11419970580426       -0.19618703758009       -1.87566119274139
C            4.28990930287694       -0.24106719414566       -0.50201081606035
C            3.21508437100152       -0.07102296734498        0.35460086268911
C            3.35469181471091       -0.16599868911191        1.85357282001685
O            2.57579668546987       -1.21396905503671        2.40696718311700
H           -1.93861538580546        2.95494073123308       -0.25014660911160
H           -2.47868721568928        1.88001725371974       -2.28304505965285
H           -4.04679929972199        1.57342010964572       -1.47676302253208
H           -2.39932427507720       -0.34551009252058       -1.28749408380333
H           -0.28832048353758       -1.04613311613175       -0.21153905855803
H           -1.02371407347567        0.47476553557058        2.34700114236674
H           -2.41951242622338       -1.83587092147826        0.90131476803192
H           -3.30443481023050        1.07214577994411        1.26216667146234
H           -4.89283500286984       -0.63154536848461        1.01323882191007
H           -2.60192855957757       -1.59969613635240        3.25870778439636
H            0.59924487200522       -1.24481787923921        2.48704870234933
H            0.77994904820227        0.37381177204871       -1.96690342738249
H            2.71003522742143        0.04573668391977       -3.47222084935272
H            4.96021339954692       -0.33122210473588       -2.53144677761737
H            5.27318593802809       -0.41406066172054       -0.08905968888161
H            4.41046262634790       -0.29584387825243        2.12453437253003
H            2.97705145522426        0.74604044526328        2.32223057722339
H            2.85031494143994       -2.04666079810901        2.00595304131501
