----- Optimization -----
      -----------------------------------------------------------      
     |                   =====================                   |     
     |                           x T B                           |     
     |                   =====================                   |     
     |                         S. Grimme                         |     
     |          Mulliken Center for Theoretical Chemistry        |     
     |                    University of Bonn                     |     
      -----------------------------------------------------------      

   * xtb version 6.7.1 (edcfbbe) compiled by 'conda@3ef47c1a292c' on 2024-11-25

   xtb is free software: you can redistribute it and/or modify it under
   the terms of the GNU Lesser General Public License as published by
   the Free Software Foundation, either version 3 of the License, or
   (at your option) any later version.
   
   xtb is distributed in the hope that it will be useful,
   but WITHOUT ANY WARRANTY; without even the implied warranty of
   MERCHANTABILITY or FITNESS FOR A PARTICULAR PURPOSE.  See the
   GNU Lesser General Public License for more details.
   
   Cite this work as:
   * C. Bannwarth, E. Caldeweyher, S. Ehlert, A. Hansen, P. Pracht,
     J. Seibert, S. Spicher, S. Grimme, WIREs Comput. Mol. Sci., 2020, 11,
     e01493. DOI: 10.1002/wcms.1493
   
   for GFN2-xTB:
   * C. Bannwarth, S. Ehlert and S. Grimme., J. Chem. Theory Comput., 2019,
     15, 1652-1671. DOI: 10.1021/acs.jctc.8b01176
   for GFN1-xTB:
   * S. Grimme, C. Bannwarth, P. Shushkov, J. Chem. Theory Comput., 2017,
     13, 1989-2009. DOI: 10.1021/acs.jctc.7b00118
   for GFN0-xTB:
   * P. Pracht, E. Caldeweyher, S. Ehlert, S. Grimme, ChemRxiv, 2019, preprint.
     DOI: 10.26434/chemrxiv.8326202.v1
   for GFN-FF:
   * S. Spicher and S. Grimme, Angew. Chem. Int. Ed., 2020, 59, 15665-15673.
     DOI: 10.1002/anie.202004239
   
   for ALPB and GBSA implicit solvation:
   * S. Ehlert, M. Stahn, S. Spicher, S. Grimme, J. Chem. Theory Comput.,
     2021, 17, 4250-4261. DOI: 10.1021/acs.jctc.1c00471
   
   for ddCOSMO and CPCM-X implicit solvation:
   * M. Stahn, S. Ehlert, S. Grimme, J. Phys. Chem. A,
     2023, XX, XXXX-XXXX. DOI: 10.1021/acs.jpca.3c04382
   
   for DFT-D4:
   * E. Caldeweyher, C. Bannwarth and S. Grimme, J. Chem. Phys., 2017,
     147, 034112. DOI: 10.1063/1.4993215
   * E. Caldeweyher, S. Ehlert, A. Hansen, H. Neugebauer, S. Spicher,
     C. Bannwarth and S. Grimme, J. Chem. Phys., 2019, 150, 154122.
     DOI: 10.1063/1.5090222
   * E. Caldeweyher, J.-M. Mewes, S. Ehlert and S. Grimme, Phys. Chem. Chem. Phys.
     2020, 22, 8499-8512. DOI: 10.1039/D0CP00502A
   
   for sTDA-xTB:
   * S. Grimme and C. Bannwarth, J. Chem. Phys., 2016, 145, 054103.
     DOI: 10.1063/1.4959605
   
   in the mass-spec context:
   * V. Asgeirsson, C. Bauer and S. Grimme, Chem. Sci., 2017, 8, 4879.
     DOI: 10.1039/c7sc00601b
   * J. Koopman and S. Grimme, ACS Omega 2019, 4, 12, 15120-15133.
     DOI: 10.1021/acsomega.9b02011
   
   for metadynamics refer to:
   * S. Grimme, J. Chem. Theory Comput., 2019, 155, 2847-2862
     DOI: 10.1021/acs.jctc.9b00143
   
   for SPH calculations refer to:
   * S. Spicher and S. Grimme, J. Chem. Theory Comput., 2021, 17, 1701-1714
     DOI: 10.1021/acs.jctc.0c01306
   
   for ONIOM refer to:
   * C. Plett, A. Katbashev, S. Ehlert, S. Grimme, M. Bursch,
     Phys. Chem. Chem. Phys., 2023, 25, 17860-17868. DOI: 10.1039/D3CP02178E
   
   for DIPRO refer to:
   * J. Kohn, N. Gildemeister, S. Grimme, D. Fazzi, A. Hansen,
     J. Chem. Phys., 2023, just accepted.
   
   for PTB refer to:
   * S. Grimme, M. Mueller, A. Hansen, J. Chem. Phys., 2023, 158, 124111.
     DOI: 10.1063/5.0137838
   
   with help from (in alphabetical order)
   P. Atkinson, C. Bannwarth, F. Bohle, G. Brandenburg, E. Caldeweyher
   M. Checinski, S. Dohm, S. Ehlert, S. Ehrlich, I. Gerasimov, C. Hölzer
   A. Katbashev, J. Kohn, J. Koopman, C. Lavigne, S. Lehtola, F. März, M. Müller,
   F. Musil, H. Neugebauer, J. Pisarek, C. Plett, P. Pracht, F. Pultar,
   J. Seibert, P. Shushkov, S. Spicher, M. Stahn, M. Steiner, T. Strunk,
   J. Stückrath, T. Rose, and J. Unsleber
   
 * started run on 2025/05/15 at 16:13:54.506     
   ID    Z sym.   atoms
    1    8 O      1, 3, 21
    2    6 C      2, 4, 5, 7-9, 11, 12, 14-16, 18-20, 22-24
    3    7 N      6, 10, 13
    4    9 F      17
    5    1 H      25-42

           -------------------------------------------------
          |                Calculation Setup                |
           -------------------------------------------------

          program call               : xtb /rds/general/user/hgt20/home/callum/QDESCP/Ciprofloxacin_rdkit_conf_8/Ciprofloxacin_rdkit_conf_8.xyz --opt normal --acc 1 --gfn 2 --chrg 0 --uhf 0 -P 1
          hostname                   : login-c
          coordinate file            : /rds/general/user/hgt20/home/callum/QDESCP/Ciprofloxacin_rdkit_conf_8/Ciprofloxacin_rdkit_conf_8.xyz
          omp threads                :                     1


           -------------------------------------------------
          |                 G F N 2 - x T B                 |
           -------------------------------------------------

        Reference                      10.1021/acs.jctc.8b01176
      * Hamiltonian:
        H0-scaling (s, p, d)           1.850000    2.230000    2.230000
        zeta-weighting                 0.500000
      * Dispersion:
        s8                             2.700000
        a1                             0.520000
        a2                             5.000000
        s9                             5.000000
      * Repulsion:
        kExp                           1.500000    1.000000
        rExp                           1.000000
      * Coulomb:
        alpha                          2.000000
        third order                    shell-resolved
        anisotropic                    true
        a3                             3.000000
        a5                             4.000000
        cn-shift                       1.200000
        cn-exp                         4.000000
        max-rad                        5.000000


          ...................................................
          :                      SETUP                      :
          :.................................................:
          :  # basis functions                 114          :
          :  # atomic orbitals                 114          :
          :  # shells                           66          :
          :  # electrons                       126          :
          :  max. iterations                   250          :
          :  Hamiltonian                  GFN2-xTB          :
          :  restarted?                      false          :
          :  GBSA solvation                  false          :
          :  PC potential                    false          :
          :  electronic temp.          300.0000000     K    :
          :  accuracy                    1.0000000          :
          :  -> integral cutoff          0.2500000E+02      :
          :  -> integral neglect         0.1000000E-07      :
          :  -> SCF convergence          0.1000000E-05 Eh   :
          :  -> wf. convergence          0.1000000E-03 e    :
          :  Broyden damping             0.4000000          :
          :  net charge                          0          :
          :  unpaired electrons                  0          :
          ...................................................

 iter      E             dE          RMSdq      gap      omega  full diag
   1    -71.9772005 -0.719772E+02  0.424E+00    2.54       0.0  T
   2    -72.0943527 -0.117152E+00  0.258E+00    2.34       1.0  T
   3    -72.1024466 -0.809387E-02  0.148E+00    2.59       1.0  T
   4    -72.1212550 -0.188085E-01  0.463E-01    2.49       1.0  T
   5    -72.1281152 -0.686020E-02  0.111E-01    2.48       1.0  T
   6    -72.1283382 -0.222973E-03  0.515E-02    2.48       1.0  T
   7    -72.1283657 -0.275385E-04  0.225E-02    2.49       1.0  T
   8    -72.1283681 -0.230321E-05  0.915E-03    2.49       1.7  T
   9    -72.1283697 -0.166315E-05  0.412E-03    2.49       3.7  T
  10    -72.1283698 -0.130517E-06  0.154E-03    2.49      10.0  T
  11    -72.1283699 -0.487079E-07  0.697E-04    2.49      22.1  T
  12    -72.1283699 -0.541939E-08  0.268E-04    2.49      57.5  T

   *** convergence criteria satisfied after 12 iterations ***

         #    Occupation            Energy/Eh            Energy/eV
      -------------------------------------------------------------
         1        2.0000           -0.8208588             -22.3367
       ...           ...                  ...                  ...
        57        2.0000           -0.4337304             -11.8024
        58        2.0000           -0.4251947             -11.5701
        59        2.0000           -0.4182466             -11.3811
        60        2.0000           -0.3891723             -10.5899
        61        2.0000           -0.3791602             -10.3175
        62        2.0000           -0.3756508             -10.2220
        63        2.0000           -0.3689230             -10.0389 (HOMO)
        64                         -0.2773088              -7.5460 (LUMO)
        65                         -0.2654110              -7.2222
        66                         -0.2336944              -6.3591
        67                         -0.2128906              -5.7930
        68                         -0.1497602              -4.0752
       ...                                ...                  ...
       114                          0.6931245              18.8609
      -------------------------------------------------------------
                  HL-Gap            0.0916142 Eh            2.4929 eV
             Fermi-level           -0.3231159 Eh           -8.7924 eV

 SCC (total)                   0 d,  0 h,  0 min,  0.088 sec
 SCC setup                      ...        0 min,  0.000 sec (  0.407%)
 Dispersion                     ...        0 min,  0.000 sec (  0.523%)
 classical contributions        ...        0 min,  0.000 sec (  0.173%)
 integral evaluation            ...        0 min,  0.008 sec (  8.969%)
 iterations                     ...        0 min,  0.027 sec ( 30.419%)
 molecular gradient             ...        0 min,  0.052 sec ( 59.292%)
 printout                       ...        0 min,  0.000 sec (  0.210%)

         :::::::::::::::::::::::::::::::::::::::::::::::::::::
         ::                     SUMMARY                     ::
         :::::::::::::::::::::::::::::::::::::::::::::::::::::
         :: total energy             -71.287466026901 Eh    ::
         :: gradient norm              0.081142826395 Eh/a0 ::
         :: HOMO-LUMO gap              2.492948568757 eV    ::
         ::.................................................::
         :: SCC energy               -72.128299323873 Eh    ::
         :: -> isotropic ES            0.107186091066 Eh    ::
         :: -> anisotropic ES          0.007662724653 Eh    ::
         :: -> anisotropic XC          0.021513625212 Eh    ::
         :: -> dispersion             -0.045082753944 Eh    ::
         :: repulsion energy           0.840833296972 Eh    ::
         :: add. restraining           0.000000000000 Eh    ::
         :: total charge              -0.000000000000 e     ::
         :::::::::::::::::::::::::::::::::::::::::::::::::::::

      ----------------------------------------------------------- 
     |                   =====================                   |
     |                        A N C O P T                        |
     |                   =====================                   |
     |               Approximate Normal Coordinate               |
     |                Rational Function Optimizer                |
      ----------------------------------------------------------- 
      ----------------------------------------------------------- 
     |                   =====================                   |
     |                        A N C O P T                        |
     |                   =====================                   |
     |               Approximate Normal Coordinate               |
     |                Rational Function Optimizer                |
      ----------------------------------------------------------- 

          ...................................................
          :                      SETUP                      :
          :.................................................:
          :   optimization level            normal          :
          :   max. optcycles                   200          :
          :   ANC micro-cycles                  20          :
          :   degrees of freedom               120          :
          :.................................................:
          :   RF solver                   davidson          :
          :   write xtbopt.log                true          :
          :   linear?                        false          :
          :   energy convergence         0.5000000E-05 Eh   :
          :   grad. convergence          0.1000000E-02 Eh/α :
          :   maxmium RF displ.          1.0000000          :
          :   Hlow (freq-cutoff)         0.1000000E-01      :
          :   Hmax (freq-cutoff)         5.0000000          :
          :   S6 in model hess.         20.0000000          :
          ...................................................

generating ANC from exact Hessian ...
Using Lindh-Hessian (1995)
 Shifting diagonal of input Hessian by    9.6029972136272013E-003
 Lowest  eigenvalues of input Hessian
    0.000000    0.000000    0.000000    0.000000    0.000000    0.000000
    0.010000    0.010261    0.010673    0.011551    0.011947    0.012238
    0.012839    0.014445    0.015798    0.017497    0.018389    0.020201
 Highest eigenvalues
    1.866119    1.973592    2.024964    2.090398    2.211489    2.340698


........................................................................
.............................. CYCLE    1 ..............................
........................................................................

 iter      E             dE          RMSdq      gap      omega  full diag
   1    -72.1283699 -0.721284E+02  0.119E-04    2.49       0.0  T
   2    -72.1283699 -0.110006E-09  0.767E-05    2.49     201.1  T
   3    -72.1283699 -0.845972E-10  0.455E-05    2.49     338.8  T
     SCC iter.                  ...        0 min,  0.007 sec
     gradient                   ...        0 min,  0.059 sec
 * total energy  :   -71.2874660 Eh     change       -0.1021164E-08 Eh
   gradient norm :     0.0811445 Eh/α   predicted     0.0000000E+00 (-100.00%)
   displ. norm   :     0.3935809 α      lambda       -0.1666208E-01
   maximum displ.:     0.1238463 α      in ANC's #15, #23, #38, ...

........................................................................
.............................. CYCLE    2 ..............................
........................................................................

 iter      E             dE          RMSdq      gap      omega  full diag
   1    -72.1649775 -0.721650E+02  0.236E-01    2.55       0.0  T
   2    -72.1653322 -0.354650E-03  0.162E-01    2.57       1.0  T
   3    -72.1654690 -0.136875E-03  0.904E-02    2.57       1.0  T
   4    -72.1655488 -0.797819E-04  0.269E-02    2.57       1.0  T
   5    -72.1655701 -0.212593E-04  0.519E-03    2.57       3.0  T
   6    -72.1655705 -0.410334E-06  0.257E-03    2.57       6.0  T
   7    -72.1655705 -0.507227E-07  0.101E-03    2.57      15.3  T
   8    -72.1655705 -0.586107E-08  0.380E-04    2.57      40.7  T
   9    -72.1655705 -0.219194E-08  0.129E-04    2.57     119.4  T
     SCC iter.                  ...        0 min,  0.019 sec
     gradient                   ...        0 min,  0.023 sec
 * total energy  :   -71.2991120 Eh     change       -0.1164596E-01 Eh
   gradient norm :     0.0352364 Eh/α   predicted    -0.9626979E-02 ( -17.34%)
   displ. norm   :     0.3952286 α      lambda       -0.6268779E-02
   maximum displ.:     0.1495446 α      in ANC's #15, #14, #13, ...

........................................................................
.............................. CYCLE    3 ..............................
........................................................................

 iter      E             dE          RMSdq      gap      omega  full diag
   1    -72.1897865 -0.721898E+02  0.170E-01    2.58       0.0  T
   2    -72.1900291 -0.242628E-03  0.119E-01    2.61       1.0  T
   3    -72.1901361 -0.106987E-03  0.659E-02    2.61       1.0  T
   4    -72.1901609 -0.248122E-04  0.221E-02    2.60       1.0  T
   5    -72.1901745 -0.135203E-04  0.415E-03    2.61       3.7  T
   6    -72.1901748 -0.346606E-06  0.184E-03    2.61       8.4  T
   7    -72.1901748 -0.238436E-07  0.716E-04    2.61      21.6  T
   8    -72.1901748 -0.323119E-08  0.292E-04    2.61      52.9  T
     SCC iter.                  ...        0 min,  0.017 sec
     gradient                   ...        0 min,  0.024 sec
 * total energy  :   -71.3029767 Eh     change       -0.3864733E-02 Eh
   gradient norm :     0.0115481 Eh/α   predicted    -0.3627910E-02 (  -6.13%)
   displ. norm   :     0.2813222 α      lambda       -0.1398613E-02
   maximum displ.:     0.1303252 α      in ANC's #6, #14, #15, ...

........................................................................
.............................. CYCLE    4 ..............................
........................................................................

 iter      E             dE          RMSdq      gap      omega  full diag
   1    -72.1960003 -0.721960E+02  0.714E-02    2.59       0.0  T
   2    -72.1960244 -0.240953E-04  0.433E-02    2.61       1.0  T
   3    -72.1960233  0.109809E-05  0.248E-02    2.61       1.0  T
   4    -72.1960331 -0.982559E-05  0.597E-03    2.61       2.6  T
   5    -72.1960342 -0.111407E-05  0.165E-03    2.61       9.4  T
   6    -72.1960343 -0.518856E-07  0.798E-04    2.61      19.3  T
   7    -72.1960343 -0.445750E-08  0.254E-04    2.61      60.7  T
     SCC iter.                  ...        0 min,  0.015 sec
     gradient                   ...        0 min,  0.051 sec
 * total energy  :   -71.3040071 Eh     change       -0.1030366E-02 Eh
   gradient norm :     0.0095113 Eh/α   predicted    -0.7546979E-03 ( -26.75%)
   displ. norm   :     0.3462099 α      lambda       -0.1057651E-02
   maximum displ.:     0.2036935 α      in ANC's #6, #5, #14, ...

........................................................................
.............................. CYCLE    5 ..............................
........................................................................

 iter      E             dE          RMSdq      gap      omega  full diag
   1    -72.1978677 -0.721979E+02  0.853E-02    2.59       0.0  T
   2    -72.1978838 -0.161070E-04  0.496E-02    2.61       1.0  T
   3    -72.1978740  0.983606E-05  0.239E-02    2.61       1.0  T
   4    -72.1978886 -0.145944E-04  0.395E-03    2.61       3.9  T
   5    -72.1978890 -0.455557E-06  0.145E-03    2.61      10.6  T
   6    -72.1978890 -0.192734E-07  0.761E-04    2.61      20.3  T
   7    -72.1978890 -0.968782E-08  0.272E-04    2.61      56.8  T
     SCC iter.                  ...        0 min,  0.015 sec
     gradient                   ...        0 min,  0.057 sec
 * total energy  :   -71.3047148 Eh     change       -0.7076934E-03 Eh
   gradient norm :     0.0064580 Eh/α   predicted    -0.5922135E-03 ( -16.32%)
   displ. norm   :     0.2638267 α      lambda       -0.4269348E-03
   maximum displ.:     0.1857211 α      in ANC's #6, #5, #4, ...

........................................................................
.............................. CYCLE    6 ..............................
........................................................................

 iter      E             dE          RMSdq      gap      omega  full diag
   1    -72.1979610 -0.721980E+02  0.597E-02    2.59       0.0  T
   2    -72.1979651 -0.410522E-05  0.348E-02    2.60       1.0  T
   3    -72.1979601  0.507374E-05  0.136E-02    2.60       1.1  T
   4    -72.1979665 -0.647763E-05  0.214E-03    2.60       7.2  T
   5    -72.1979666 -0.101195E-06  0.964E-04    2.60      16.0  T
   6    -72.1979667 -0.589432E-08  0.483E-04    2.60      32.0  T
     SCC iter.                  ...        0 min,  0.013 sec
     gradient                   ...        0 min,  0.024 sec
 * total energy  :   -71.3050143 Eh     change       -0.2994886E-03 Eh
   gradient norm :     0.0053300 Eh/α   predicted    -0.2283623E-03 ( -23.75%)
   displ. norm   :     0.2161515 α      lambda       -0.2670786E-03
   maximum displ.:     0.1543348 α      in ANC's #6, #5, #4, ...

........................................................................
.............................. CYCLE    7 ..............................
........................................................................

 iter      E             dE          RMSdq      gap      omega  full diag
   1    -72.1981817 -0.721982E+02  0.497E-02    2.59       0.0  T
   2    -72.1981835 -0.182477E-05  0.290E-02    2.60       1.0  T
   3    -72.1981812  0.226643E-05  0.877E-03    2.60       1.8  T
   4    -72.1981841 -0.289228E-05  0.167E-03    2.60       9.2  T
   5    -72.1981842 -0.462135E-07  0.824E-04    2.60      18.7  T
   6    -72.1981842 -0.436447E-08  0.335E-04    2.60      46.1  T
     SCC iter.                  ...        0 min,  0.013 sec
     gradient                   ...        0 min,  0.049 sec
 * total energy  :   -71.3052199 Eh     change       -0.2056579E-03 Eh
   gradient norm :     0.0045257 Eh/α   predicted    -0.1397797E-03 ( -32.03%)
   displ. norm   :     0.2528414 α      lambda       -0.2563770E-03
   maximum displ.:     0.1738487 α      in ANC's #6, #5, #4, ...

........................................................................
.............................. CYCLE    8 ..............................
........................................................................

 iter      E             dE          RMSdq      gap      omega  full diag
   1    -72.1982679 -0.721983E+02  0.556E-02    2.59       0.0  T
   2    -72.1982703 -0.239476E-05  0.325E-02    2.59       1.0  T
   3    -72.1982666  0.367170E-05  0.114E-02    2.59       1.4  T
   4    -72.1982713 -0.470284E-05  0.214E-03    2.59       7.2  T
   5    -72.1982714 -0.710773E-07  0.111E-03    2.60      14.0  T
   6    -72.1982714 -0.487840E-08  0.496E-04    2.59      31.1  T
   7    -72.1982714 -0.526545E-08  0.160E-04    2.59      96.7  T
     SCC iter.                  ...        0 min,  0.015 sec
     gradient                   ...        0 min,  0.024 sec
 * total energy  :   -71.3054150 Eh     change       -0.1950690E-03 Eh
   gradient norm :     0.0048748 Eh/α   predicted    -0.1363870E-03 ( -30.08%)
   displ. norm   :     0.2822765 α      lambda       -0.2193412E-03
   maximum displ.:     0.1899549 α      in ANC's #6, #5, #4, ...

........................................................................
.............................. CYCLE    9 ..............................
........................................................................

 iter      E             dE          RMSdq      gap      omega  full diag
   1    -72.1978800 -0.721979E+02  0.641E-02    2.58       0.0  T
   2    -72.1978858 -0.583339E-05  0.372E-02    2.59       1.0  T
   3    -72.1978802  0.567466E-05  0.160E-02    2.59       1.0  T
   4    -72.1978877 -0.757872E-05  0.306E-03    2.59       5.0  T
   5    -72.1978880 -0.225751E-06  0.137E-03    2.60      11.3  T
   6    -72.1978880 -0.113916E-07  0.751E-04    2.59      20.5  T
   7    -72.1978880 -0.791235E-08  0.204E-04    2.59      75.8  T
     SCC iter.                  ...        0 min,  0.015 sec
     gradient                   ...        0 min,  0.024 sec
 * total energy  :   -71.3055786 Eh     change       -0.1636359E-03 Eh
   gradient norm :     0.0042590 Eh/α   predicted    -0.1184095E-03 ( -27.64%)
   displ. norm   :     0.2856834 α      lambda       -0.1720631E-03
   maximum displ.:     0.1856468 α      in ANC's #6, #5, #2, ...

........................................................................
.............................. CYCLE   10 ..............................
........................................................................

 iter      E             dE          RMSdq      gap      omega  full diag
   1    -72.1977742 -0.721978E+02  0.642E-02    2.58       0.0  T
   2    -72.1977816 -0.738534E-05  0.371E-02    2.60       1.0  T
   3    -72.1977756  0.594493E-05  0.173E-02    2.59       1.0  T
   4    -72.1977840 -0.839999E-05  0.333E-03    2.60       4.6  T
   5    -72.1977843 -0.276229E-06  0.145E-03    2.60      10.6  T
   6    -72.1977843 -0.145890E-07  0.809E-04    2.60      19.1  T
   7    -72.1977843 -0.814855E-08  0.225E-04    2.60      68.5  T
     SCC iter.                  ...        0 min,  0.048 sec
     gradient                   ...        0 min,  0.024 sec
 * total energy  :   -71.3057022 Eh     change       -0.1235382E-03 Eh
   gradient norm :     0.0037417 Eh/α   predicted    -0.9305477E-04 ( -24.68%)
   displ. norm   :     0.2214073 α      lambda       -0.1150038E-03
   maximum displ.:     0.1301168 α      in ANC's #6, #2, #1, ...

........................................................................
.............................. CYCLE   11 ..............................
........................................................................

 iter      E             dE          RMSdq      gap      omega  full diag
   1    -72.1985533 -0.721986E+02  0.514E-02    2.59       0.0  T
   2    -72.1985600 -0.668641E-05  0.293E-02    2.60       1.0  T
   3    -72.1985572  0.282071E-05  0.135E-02    2.60       1.1  T
   4    -72.1985614 -0.424083E-05  0.315E-03    2.60       4.9  T
   5    -72.1985617 -0.315643E-06  0.116E-03    2.60      13.4  T
   6    -72.1985617 -0.109921E-07  0.657E-04    2.60      23.5  T
   7    -72.1985617 -0.488770E-08  0.200E-04    2.60      77.2  T
     SCC iter.                  ...        0 min,  0.015 sec
     gradient                   ...        0 min,  0.069 sec
 * total energy  :   -71.3057851 Eh     change       -0.8288601E-04 Eh
   gradient norm :     0.0029595 Eh/α   predicted    -0.6032586E-04 ( -27.22%)
   displ. norm   :     0.1857318 α      lambda       -0.8094437E-04
   maximum displ.:     0.0904916 α      in ANC's #6, #2, #1, ...

........................................................................
.............................. CYCLE   12 ..............................
........................................................................

 iter      E             dE          RMSdq      gap      omega  full diag
   1    -72.1991928 -0.721992E+02  0.431E-02    2.59       0.0  T
   2    -72.1991961 -0.327120E-05  0.248E-02    2.60       1.0  T
   3    -72.1991935  0.266580E-05  0.109E-02    2.60       1.4  T
   4    -72.1991971 -0.364421E-05  0.218E-03    2.60       7.1  T
   5    -72.1991972 -0.132321E-06  0.941E-04    2.60      16.4  T
   6    -72.1991972 -0.558690E-08  0.533E-04    2.60      28.9  T
     SCC iter.                  ...        0 min,  0.013 sec
     gradient                   ...        0 min,  0.069 sec
 * total energy  :   -71.3058449 Eh     change       -0.5988873E-04 Eh
   gradient norm :     0.0030942 Eh/α   predicted    -0.4187024E-04 ( -30.09%)
   displ. norm   :     0.1612690 α      lambda       -0.6731100E-04
   maximum displ.:     0.0798111 α      in ANC's #2, #3, #1, ...

........................................................................
.............................. CYCLE   13 ..............................
........................................................................

 iter      E             dE          RMSdq      gap      omega  full diag
   1    -72.2001114 -0.722001E+02  0.362E-02    2.59       0.0  T
   2    -72.2001132 -0.184410E-05  0.208E-02    2.60       1.0  T
   3    -72.2001121  0.113386E-05  0.712E-03    2.60       2.2  T
   4    -72.2001136 -0.153830E-05  0.172E-03    2.60       9.0  T
   5    -72.2001137 -0.957912E-07  0.752E-04    2.60      20.5  T
   6    -72.2001137 -0.378922E-08  0.385E-04    2.60      40.0  T
     SCC iter.                  ...        0 min,  0.013 sec
     gradient                   ...        0 min,  0.075 sec
 * total energy  :   -71.3058955 Eh     change       -0.5053753E-04 Eh
   gradient norm :     0.0024038 Eh/α   predicted    -0.3453357E-04 ( -31.67%)
   displ. norm   :     0.2173547 α      lambda       -0.6950456E-04
   maximum displ.:     0.1061907 α      in ANC's #2, #3, #1, ...

........................................................................
.............................. CYCLE   14 ..............................
........................................................................

 iter      E             dE          RMSdq      gap      omega  full diag
   1    -72.1992192 -0.721992E+02  0.491E-02    2.59       0.0  T
   2    -72.1992211 -0.188218E-05  0.287E-02    2.59       1.0  T
   3    -72.1992178  0.323815E-05  0.100E-02    2.59       1.5  T
   4    -72.1992220 -0.415337E-05  0.200E-03    2.59       7.7  T
   5    -72.1992220 -0.541779E-07  0.109E-03    2.59      14.2  T
   6    -72.1992220 -0.542892E-08  0.472E-04    2.59      32.7  T
   7    -72.1992220 -0.259121E-08  0.175E-04    2.59      88.4  T
     SCC iter.                  ...        0 min,  0.015 sec
     gradient                   ...        0 min,  0.023 sec
 * total energy  :   -71.3059436 Eh     change       -0.4812636E-04 Eh
   gradient norm :     0.0039777 Eh/α   predicted    -0.3639547E-04 ( -24.38%)
   displ. norm   :     0.2160202 α      lambda       -0.8243051E-04
   maximum displ.:     0.1153412 α      in ANC's #3, #2, #1, ...

........................................................................
.............................. CYCLE   15 ..............................
........................................................................

 iter      E             dE          RMSdq      gap      omega  full diag
   1    -72.2000255 -0.722000E+02  0.436E-02    2.59       0.0  T
   2    -72.2000269 -0.145478E-05  0.255E-02    2.59       1.0  T
   3    -72.2000260  0.959730E-06  0.638E-03    2.59       2.4  T
   4    -72.2000274 -0.141889E-05  0.164E-03    2.59       9.4  T
   5    -72.2000274 -0.458379E-07  0.932E-04    2.59      16.6  T
   6    -72.2000274 -0.873204E-08  0.305E-04    2.59      50.6  T
     SCC iter.                  ...        0 min,  0.013 sec
     gradient                   ...        0 min,  0.024 sec
 * total energy  :   -71.3059948 Eh     change       -0.5115108E-04 Eh
   gradient norm :     0.0028007 Eh/α   predicted    -0.4314277E-04 ( -15.66%)
   displ. norm   :     0.2113236 α      lambda       -0.5427582E-04
   maximum displ.:     0.1054738 α      in ANC's #2, #1, #3, ...

........................................................................
.............................. CYCLE   16 ..............................
........................................................................

 iter      E             dE          RMSdq      gap      omega  full diag
   1    -72.1986545 -0.721987E+02  0.467E-02    2.58       0.0  T
   2    -72.1986559 -0.143451E-05  0.274E-02    2.58       1.0  T
   3    -72.1986543  0.154463E-05  0.731E-03    2.58       2.1  T
   4    -72.1986565 -0.210915E-05  0.185E-03    2.58       8.4  T
   5    -72.1986565 -0.487877E-07  0.100E-03    2.58      15.4  T
   6    -72.1986565 -0.632446E-08  0.403E-04    2.58      38.3  T
     SCC iter.                  ...        0 min,  0.058 sec
     gradient                   ...        0 min,  0.024 sec
 * total energy  :   -71.3060322 Eh     change       -0.3743939E-04 Eh
   gradient norm :     0.0032674 Eh/α   predicted    -0.2835180E-04 ( -24.27%)
   displ. norm   :     0.1498329 α      lambda       -0.5229286E-04
   maximum displ.:     0.0709519 α      in ANC's #1, #2, #3, ...

........................................................................
.............................. CYCLE   17 ..............................
........................................................................

 iter      E             dE          RMSdq      gap      omega  full diag
   1    -72.1988414 -0.721988E+02  0.338E-02    2.57       0.0  T
   2    -72.1988420 -0.579675E-06  0.198E-02    2.58       1.0  T
   3    -72.1988417  0.266051E-06  0.353E-03    2.58       4.4  T
   4    -72.1988422 -0.440012E-06  0.120E-03    2.58      12.9  T
   5    -72.1988422 -0.271135E-07  0.587E-04    2.58      26.3  T
   6    -72.1988422 -0.211377E-08  0.261E-04    2.58      59.2  T
     SCC iter.                  ...        0 min,  0.013 sec
     gradient                   ...        0 min,  0.069 sec
 * total energy  :   -71.3060664 Eh     change       -0.3417525E-04 Eh
   gradient norm :     0.0018767 Eh/α   predicted    -0.2673455E-04 ( -21.77%)
   displ. norm   :     0.1311107 α      lambda       -0.2143654E-04
   maximum displ.:     0.0649657 α      in ANC's #1, #2, #7, ...

........................................................................
.............................. CYCLE   18 ..............................
........................................................................

 iter      E             dE          RMSdq      gap      omega  full diag
   1    -72.1993191 -0.721993E+02  0.321E-02    2.57       0.0  T
   2    -72.1993200 -0.927477E-06  0.189E-02    2.57       1.0  T
   3    -72.1993193  0.768374E-06  0.541E-03    2.57       2.9  T
   4    -72.1993203 -0.997621E-06  0.133E-03    2.58      11.6  T
   5    -72.1993203 -0.478262E-07  0.602E-04    2.58      25.6  T
   6    -72.1993203 -0.120819E-08  0.323E-04    2.58      47.8  T
     SCC iter.                  ...        0 min,  0.013 sec
     gradient                   ...        0 min,  0.065 sec
 * total energy  :   -71.3060850 Eh     change       -0.1858337E-04 Eh
   gradient norm :     0.0021299 Eh/α   predicted    -0.1080070E-04 ( -41.88%)
   displ. norm   :     0.0465541 α      lambda       -0.1239187E-04
   maximum displ.:     0.0230024 α      in ANC's #7, #1, #2, ...

........................................................................
.............................. CYCLE   19 ..............................
........................................................................

 iter      E             dE          RMSdq      gap      omega  full diag
   1    -72.1996932 -0.721997E+02  0.120E-02    2.57       0.0  T
   2    -72.1996937 -0.448541E-06  0.696E-03    2.57       2.2  T
   3    -72.1996935  0.140561E-06  0.328E-03    2.57       4.7  T
   4    -72.1996938 -0.222469E-06  0.858E-04    2.58      18.0  T
   5    -72.1996938 -0.254698E-07  0.268E-04    2.58      57.5  T
     SCC iter.                  ...        0 min,  0.011 sec
     gradient                   ...        0 min,  0.024 sec
 * total energy  :   -71.3060939 Eh     change       -0.8975567E-05 Eh
   gradient norm :     0.0014582 Eh/α   predicted    -0.6212818E-05 ( -30.78%)
   displ. norm   :     0.1500295 α      lambda       -0.1693680E-04
   maximum displ.:     0.0792385 α      in ANC's #1, #2, #7, ...

........................................................................
.............................. CYCLE   20 ..............................
........................................................................

 iter      E             dE          RMSdq      gap      omega  full diag
   1    -72.2000814 -0.722001E+02  0.383E-02    2.56       0.0  T
   2    -72.2000836 -0.221269E-05  0.221E-02    2.57       1.0  T
   3    -72.2000819  0.169748E-05  0.884E-03    2.57       1.7  T
   4    -72.2000843 -0.233792E-05  0.172E-03    2.57       8.9  T
   5    -72.2000843 -0.700848E-07  0.820E-04    2.57      18.8  T
   6    -72.2000843 -0.426617E-08  0.442E-04    2.57      34.9  T
     SCC iter.                  ...        0 min,  0.013 sec
     gradient                   ...        0 min,  0.024 sec
 * total energy  :   -71.3061044 Eh     change       -0.1050801E-04 Eh
   gradient norm :     0.0018260 Eh/α   predicted    -0.8553549E-05 ( -18.60%)
   displ. norm   :     0.0211486 α      lambda       -0.5675387E-05
   maximum displ.:     0.0096486 α      in ANC's #1, #6, #5, ...
 * RMSD in coord.:     0.4984287 α      energy gain  -0.1863841E-01 Eh

generating ANC from exact Hessian ...
Using Lindh-Hessian (1995)
 Shifting diagonal of input Hessian by    9.5382218314902460E-003
 Lowest  eigenvalues of input Hessian
    0.000000    0.000000    0.000000    0.000000    0.000000    0.000000
    0.010000    0.010235    0.010799    0.011705    0.012147    0.012456
    0.013478    0.015000    0.016080    0.018292    0.019552    0.021051
 Highest eigenvalues
    1.972332    2.069979    2.114585    2.201549    2.298724    2.400528


........................................................................
.............................. CYCLE   21 ..............................
........................................................................

 iter      E             dE          RMSdq      gap      omega  full diag
   1    -72.2002580 -0.722003E+02  0.697E-03    2.57       0.0  T
   2    -72.2002582 -0.223470E-06  0.414E-03    2.57       3.7  T
   3    -72.2002582  0.317893E-07  0.187E-03    2.57       8.2  T
   4    -72.2002583 -0.579434E-07  0.512E-04    2.57      30.1  T
   5    -72.2002583 -0.877134E-08  0.172E-04    2.57      89.8  T
     SCC iter.                  ...        0 min,  0.011 sec
     gradient                   ...        0 min,  0.024 sec
 * total energy  :   -71.3061097 Eh     change       -0.5298528E-05 Eh
   gradient norm :     0.0009290 Eh/α   predicted     0.0000000E+00 (-100.00%)
   displ. norm   :     0.0165922 α      lambda       -0.3282917E-05
   maximum displ.:     0.0077138 α      in ANC's #1, #5, #8, ...

........................................................................
.............................. CYCLE   22 ..............................
........................................................................

 iter      E             dE          RMSdq      gap      omega  full diag
   1    -72.2001202 -0.722001E+02  0.601E-03    2.57       0.0  T
   2    -72.2001202 -0.274061E-07  0.358E-03    2.57       4.3  T
   3    -72.2001202  0.190103E-07  0.851E-04    2.57      18.1  T
   4    -72.2001202 -0.258037E-07  0.232E-04    2.57      66.5  T
     SCC iter.                  ...        0 min,  0.009 sec
     gradient                   ...        0 min,  0.069 sec
 * total energy  :   -71.3061130 Eh     change       -0.3220842E-05 Eh
   gradient norm :     0.0004577 Eh/α   predicted    -0.1671650E-05 ( -48.10%)
   displ. norm   :     0.0266499 α      lambda       -0.2527019E-05
   maximum displ.:     0.0147355 α      in ANC's #5, #1, #8, ...

   *** GEOMETRY OPTIMIZATION CONVERGED AFTER 22 ITERATIONS ***

------------------------------------------------------------------------
 total energy gain   :        -0.0186469 Eh      -11.7011 kcal/mol
 total RMSD          :         0.4988732 a0        0.2640 Å
 total power (kW/mol):        -2.2253413 (step)  -28.7912 (real)
------------------------------------------------------------------------

 ANCopt (total)                0 d,  0 h,  0 min,  1.700 sec
 optimizer setup                ...        0 min,  0.000 sec (  0.004%)
 model hessian                  ...        0 min,  0.028 sec (  1.635%)
 ANC generation                 ...        0 min,  0.003 sec (  0.174%)
 coordinate transformation      ...        0 min,  0.000 sec (  0.009%)
 single point calculation       ...        0 min,  1.663 sec ( 97.808%)
 optimization log               ...        0 min,  0.004 sec (  0.219%)
 hessian update                 ...        0 min,  0.000 sec (  0.016%)
 rational function              ...        0 min,  0.002 sec (  0.092%)

================
 final structure:
================
42
 xtb: 6.7.1 (edcfbbe)
O            6.04466527180875        0.68065579626602        1.06365946854488
C            5.13371599357690        0.57643961505307        1.85861057337310
O            5.32658810965176        0.65869775757446        3.17119611017486
C            3.73222601231895        0.35850627470330        1.45671045836085
C            3.47777719416043        0.41616646057763        0.11934111746258
N            2.27183040873152        0.23460967948898       -0.44390212737860
C            1.16690843495606        0.01561391749245        0.36626624052624
C           -0.10697784366347       -0.12745856174198       -0.18132070870730
C           -1.23723488090007       -0.35860551554569        0.60464527718551
N           -2.50084536630957       -0.43920438374181        0.07100952300801
C           -3.41464120683696       -1.49600888224919        0.46266984125022
C           -4.85227937140800       -0.99076533010002        0.37967331072881
N           -5.10490723562617       -0.57645784157772       -0.98812672550347
C           -4.21781607053866        0.51066851434586       -1.34914302953652
C           -2.76841617089512        0.02181764259140       -1.27279756196444
C           -1.01883991089106       -0.42917863699307        1.99831692736140
F           -2.07229468057633       -0.59349199715146        2.83704728162785
C            0.22360098481617       -0.29973657067248        2.55281304922145
C            1.34798249093541       -0.07373743282425        1.75448521566873
C            2.66086893328250        0.07231857296487        2.40975244801438
O            2.79606542204721       -0.04501889828425        3.61418949436571
C            2.13400578890516        0.31487395939809       -1.86860311513917
C            3.16200010332869       -0.33055632280709       -2.74759031457550
C            1.79210388643941       -0.92429706323091       -2.64781271051957
H            6.26866805648239        0.78695452628439        3.36222001447829
H            4.29958320780483        0.62854183844713       -0.55147022914710
H           -0.22172670544810       -0.08178538274404       -1.24972758548097
H           -3.20041142078857       -1.83985754333875        1.47039084942760
H           -3.30448521362670       -2.34409763919803       -0.23029408637904
H           -4.98230754572557       -0.16696734522156        1.10176630325157
H           -5.53951770791347       -1.79795437217175        0.63854222274022
H           -6.07352343603087       -0.29656780545234       -1.10302722850946
H           -4.44058325468296        0.82664814457552       -2.37043336673887
H           -4.32664798015681        1.38083257966318       -0.67755752280045
H           -2.62535766237065       -0.78464168867571       -2.00706389066659
H           -2.10791110543062        0.85589119120723       -1.51194727017501
H            0.35550607842082       -0.34974289077163        3.62261281065716
H            1.70355441099889        1.25540730636670       -2.20131042488393
H            3.44312197712699        0.18290640263822       -3.65376883602094
H            3.97376474323652       -0.86439058130967       -2.27922467269697
H            1.11777387331090       -0.83400393663377       -3.48566684322682
H            1.68441338748042       -1.84472355720209       -2.09483028737769

 Bond Distances (Angstroems)
 ---------------------------
O1-C2=1.2135         C2-O1=1.2135         C2-O3=1.3292         C2-C4=1.4742         O3-C2=1.3292         O3-H25=0.9698        
C4-C2=1.4742         C4-C5=1.3626         C4-C20=1.4622        C5-C4=1.3626         C5-N6=1.3433         C5-H26=1.0819        
N6-C5=1.3433         N6-C7=1.3875         N6-C22=1.4336        C7-N6=1.3875         C7-C8=1.3940         C7-C19=1.4028        
C8-C7=1.3940         C8-C9=1.3959         C8-H27=1.0755        C9-C8=1.3959         C9-N10=1.3740        C9-C16=1.4124        
N10-C9=1.3740        N10-C11=1.4510       N10-C15=1.4457       C11-N10=1.4510       C11-C12=1.5261       C11-H28=1.0861       
C11-H29=1.1007       C12-C11=1.5261       C12-N13=1.4513       C12-H30=1.1032       C12-H31=1.0913       N13-C12=1.4513       
N13-C14=1.4488       N13-H32=1.0148       C14-N13=1.4488       C14-C15=1.5315       C14-H33=1.0920       C14-H34=1.1046       
C15-N10=1.4457       C15-C14=1.5315       C15-H35=1.1000       C15-H36=1.0905       C16-C9=1.4124        C16-F17=1.3566       
C16-C18=1.3667       F17-C16=1.3566       C18-C16=1.3667       C18-C19=1.3974       C18-H37=1.0791       C19-C7=1.4028        
C19-C18=1.3974       C19-C20=1.4746       C20-C4=1.4622        C20-C19=1.4746       C20-O21=1.2177       O21-C20=1.2177       
C22-N6=1.4336        C22-C23=1.4987       C22-C24=1.5032       C22-H38=1.0865       C23-C22=1.4987       C23-C24=1.4964       
C23-H39=1.0788       C23-H40=1.0786       C24-C22=1.5032       C24-C23=1.4964       C24-H41=1.0793       C24-H42=1.0792       
H25-O3=0.9698        H26-C5=1.0819        H27-C8=1.0755        H28-C11=1.0861       H29-C11=1.1007       H30-C12=1.1032       
H31-C12=1.0913       H32-N13=1.0148       H33-C14=1.0920       H34-C14=1.1046       H35-C15=1.1000       H36-C15=1.0905       
H37-C18=1.0791       H38-C22=1.0865       H39-C23=1.0788       H40-C23=1.0786       H41-C24=1.0793       H42-C24=1.0792       
 C  H  Rav=1.0879 sigma=0.0095  Rmin=1.0755  Rmax=1.1046    16
 C  C  Rav=1.4466 sigma=0.0566  Rmin=1.3626  Rmax=1.5315    15
 N  H  Rav=1.0148 sigma=0.0000  Rmin=1.0148  Rmax=1.0148     1
 N  C  Rav=1.4169 sigma=0.0397  Rmin=1.3433  Rmax=1.4513     8
 O  H  Rav=0.9698 sigma=0.0000  Rmin=0.9698  Rmax=0.9698     1
 O  C  Rav=1.2535 sigma=0.0536  Rmin=1.2135  Rmax=1.3292     3
 F  C  Rav=1.3566 sigma=0.0000  Rmin=1.3566  Rmax=1.3566     1

 selected bond angles (degree)
 --------------------
O3-C2-O1=122.18                C4-C2-O1=123.21                C4-C2-O3=114.60                H25-O3-C2=110.10               
C5-C4-C2=116.03                C20-C4-C2=123.22               C20-C4-C5=120.74               N6-C5-C4=124.99                
H26-C5-C4=118.36               H26-C5-N6=116.65               C7-N6-C5=119.43                C22-N6-C5=119.70               
C22-N6-C7=120.83               C8-C7-N6=120.97                C19-C7-N6=119.02               C19-C7-C8=120.01               
C9-C8-C7=122.39                H27-C8-C7=118.91               H27-C8-C9=118.68               N10-C9-C8=122.39               
C16-C9-C8=116.02               C16-C9-N10=121.50              C11-N10-C9=121.14              C15-N10-C9=120.83              
C15-N10-C11=111.51             

 selected dihedral angles (degree)
 ---------------------------------
H25-O3-C2-O1=358.71           H25-O3-C2-C4=179.07           C5-C4-C2-O1=353.41            C5-C4-C2-O3=173.05            
C20-C4-C2-O1=172.37           C20-C4-C2-O3=352.01           N6-C5-C4-C2=179.45            N6-C5-C4-C20=  0.47           
H26-C5-C4-C2=359.12           H26-C5-C4-C20=180.14          C7-N6-C5-C4=  2.41            C7-N6-C5-H26=182.73           
C22-N6-C5-C4=180.28           C22-N6-C5-H26=  0.60          C8-C7-N6-C5=177.61            C8-C7-N6-C22=359.77           
C19-C7-N6-C5=357.01           C19-C7-N6-C22=179.17          C9-C8-C7-N6=179.51            C9-C8-C7-C19=  0.11           
H27-C8-C7-N6=  1.00           H27-C8-C7-C19=181.60          N10-C9-C8-C7=176.97           N10-C9-C8-H27=355.48          
C16-C9-C8-C7=  0.51           C16-C9-C8-H27=179.01          C11-N10-C9-C8=134.38          C11-N10-C9-C16=310.66         
C15-N10-C9-C8=345.14          C15-N10-C9-C16=161.41         
           -------------------------------------------------
          |                Final Singlepoint                |
           -------------------------------------------------

          ...................................................
          :                      SETUP                      :
          :.................................................:
          :  # basis functions                 114          :
          :  # atomic orbitals                 114          :
          :  # shells                           66          :
          :  # electrons                       126          :
          :  max. iterations                   250          :
          :  Hamiltonian                  GFN2-xTB          :
          :  restarted?                      false          :
          :  GBSA solvation                  false          :
          :  PC potential                    false          :
          :  electronic temp.          300.0000000     K    :
          :  accuracy                    1.0000000          :
          :  -> integral cutoff          0.2500000E+02      :
          :  -> integral neglect         0.1000000E-07      :
          :  -> SCF convergence          0.1000000E-05 Eh   :
          :  -> wf. convergence          0.1000000E-03 e    :
          :  Broyden damping             0.4000000          :
          :  net charge                          0          :
          :  unpaired electrons                  0          :
          ...................................................

 iter      E             dE          RMSdq      gap      omega  full diag
   1    -72.2001202 -0.722001E+02  0.115E-04    2.57       0.0  T
   2    -72.2001202 -0.380282E-10  0.774E-05    2.57     199.5  T
   3    -72.2001202 -0.177209E-10  0.518E-05    2.57     297.8  T

   *** convergence criteria satisfied after 3 iterations ***

         #    Occupation            Energy/Eh            Energy/eV
      -------------------------------------------------------------
         1        2.0000           -0.8160459             -22.2057
       ...           ...                  ...                  ...
        57        2.0000           -0.4349359             -11.8352
        58        2.0000           -0.4234953             -11.5239
        59        2.0000           -0.4112759             -11.1914
        60        2.0000           -0.3858564             -10.4997
        61        2.0000           -0.3770818             -10.2609
        62        2.0000           -0.3714661             -10.1081
        63        2.0000           -0.3665325              -9.9739 (HOMO)
        64                         -0.2720193              -7.4020 (LUMO)
        65                         -0.2597208              -7.0674
        66                         -0.2236964              -6.0871
        67                         -0.2019947              -5.4966
        68                         -0.1359639              -3.6998
       ...                                ...                  ...
       114                          0.7150915              19.4586
      -------------------------------------------------------------
                  HL-Gap            0.0945132 Eh            2.5718 eV
             Fermi-level           -0.3192759 Eh           -8.6879 eV

 SCC (total)                   0 d,  0 h,  0 min,  0.080 sec
 SCC setup                      ...        0 min,  0.000 sec (  0.374%)
 Dispersion                     ...        0 min,  0.000 sec (  0.363%)
 classical contributions        ...        0 min,  0.000 sec (  0.177%)
 integral evaluation            ...        0 min,  0.008 sec (  9.623%)
 iterations                     ...        0 min,  0.007 sec (  8.330%)
 molecular gradient             ...        0 min,  0.065 sec ( 80.943%)
 printout                       ...        0 min,  0.000 sec (  0.183%)

         :::::::::::::::::::::::::::::::::::::::::::::::::::::
         ::                     SUMMARY                     ::
         :::::::::::::::::::::::::::::::::::::::::::::::::::::
         :: total energy             -71.306112958327 Eh    ::
         :: gradient norm              0.000456848773 Eh/a0 ::
         :: HOMO-LUMO gap              2.571834857203 eV    ::
         ::.................................................::
         :: SCC energy               -72.200054381196 Eh    ::
         :: -> isotropic ES            0.108057102976 Eh    ::
         :: -> anisotropic ES          0.007252978403 Eh    ::
         :: -> anisotropic XC          0.019164743951 Eh    ::
         :: -> dispersion             -0.046077492754 Eh    ::
         :: repulsion energy           0.893941422870 Eh    ::
         :: add. restraining           0.000000000000 Eh    ::
         :: total charge               0.000000000000 e     ::
         :::::::::::::::::::::::::::::::::::::::::::::::::::::

           -------------------------------------------------
          |                Property Printout                |
           -------------------------------------------------

    * Orbital Energies and Occupations

         #    Occupation            Energy/Eh            Energy/eV
      -------------------------------------------------------------
         1        2.0000           -0.8160459             -22.2057
       ...           ...                  ...                  ...
        51        2.0000           -0.4627203             -12.5913
        52        2.0000           -0.4584306             -12.4745
        53        2.0000           -0.4575472             -12.4505
        54        2.0000           -0.4552299             -12.3874
        55        2.0000           -0.4538219             -12.3491
        56        2.0000           -0.4413809             -12.0106
        57        2.0000           -0.4349359             -11.8352
        58        2.0000           -0.4234953             -11.5239
        59        2.0000           -0.4112759             -11.1914
        60        2.0000           -0.3858564             -10.4997
        61        2.0000           -0.3770818             -10.2609
        62        2.0000           -0.3714661             -10.1081
        63        2.0000           -0.3665325              -9.9739 (HOMO)
        64                         -0.2720193              -7.4020 (LUMO)
        65                         -0.2597208              -7.0674
        66                         -0.2236964              -6.0871
        67                         -0.2019947              -5.4966
        68                         -0.1359639              -3.6998
        69                         -0.0954871              -2.5983
        70                         -0.0759337              -2.0663
        71                         -0.0287155              -0.7814
        72                         -0.0143149              -0.3895
        73                          0.0347554               0.9457
        74                          0.0397401               1.0814
       ...                                ...                  ...
       114                          0.7150915              19.4586
      -------------------------------------------------------------
                  HL-Gap            0.0945132 Eh            2.5718 eV
             Fermi-level           -0.3192759 Eh           -8.6879 eV

     #   Z          covCN         q      C6AA      α(0)
     1   8 O        0.857    -0.454    22.796     6.401
     2   6 C        2.704     0.359    20.902     7.483
     3   8 O        1.660    -0.349    19.877     6.019
     4   6 C        2.956    -0.079    29.974     8.980
     5   6 C        2.883     0.029    27.341     8.572
     6   7 N        2.745    -0.005    21.362     6.864
     7   6 C        2.933     0.051    26.862     8.500
     8   6 C        2.928    -0.091    30.290     9.026
     9   6 C        2.905     0.054    26.789     8.487
    10   7 N        2.740    -0.089    22.979     7.120
    11   6 C        3.761    -0.002    20.655     6.479
    12   6 C        3.756     0.012    20.421     6.443
    13   7 N        2.684    -0.253    26.581     7.657
    14   6 C        3.756     0.015    20.380     6.437
    15   6 C        3.760    -0.002    20.665     6.481
    16   6 C        2.784     0.141    24.913     8.176
    17   9 F        0.787    -0.230    11.551     4.015
    18   6 C        2.921    -0.041    29.026     8.835
    19   6 C        2.983    -0.041    29.017     8.836
    20   6 C        2.830     0.223    23.317     7.913
    21   8 O        0.857    -0.396    21.605     6.232
    22   6 C        3.811     0.028    20.097     6.381
    23   6 C        3.806    -0.070    21.837     6.652
    24   6 C        3.806    -0.068    21.805     6.648
    25   1 H        0.805     0.327     0.645     1.262
    26   1 H        0.925     0.083     1.943     2.180
    27   1 H        0.926     0.047     2.355     2.400
    28   1 H        0.925     0.067     2.117     2.275
    29   1 H        0.923     0.038     2.474     2.460
    30   1 H        0.923     0.024     2.681     2.561
    31   1 H        0.924     0.041     2.433     2.439
    32   1 H        0.860     0.136     1.501     1.919
    33   1 H        0.924     0.038     2.472     2.459
    34   1 H        0.923     0.018     2.762     2.599
    35   1 H        0.923     0.038     2.474     2.460
    36   1 H        0.924     0.045     2.387     2.416
    37   1 H        0.926     0.093     1.853     2.129
    38   1 H        0.925     0.047     2.355     2.400
    39   1 H        0.926     0.054     2.268     2.355
    40   1 H        0.926     0.060     2.196     2.317
    41   1 H        0.926     0.048     2.342     2.393
    42   1 H        0.926     0.054     2.267     2.354

 Mol. C6AA /au·bohr⁶  :      20049.538831
 Mol. C8AA /au·bohr⁸  :     469376.057974
 Mol. α(0) /au        :        216.013548


Wiberg/Mayer (AO) data.
largest (>0.10) Wiberg bond orders for each atom

 ---------------------------------------------------------------------------
     #   Z sym  total        # sym  WBO       # sym  WBO       # sym  WBO
 ---------------------------------------------------------------------------
     1   8 O    1.983 --     2 C    1.683     3 O    0.168
     2   6 C    3.919 --     1 O    1.683     3 O    1.151     4 C    1.030
     3   8 O    2.227 --     2 C    1.151    25 H    0.868     1 O    0.168
     4   6 C    3.970 --     5 C    1.544    20 C    1.080     2 C    1.030
     5   6 C    3.961 --     4 C    1.544     6 N    1.265    26 H    0.950
     6   7 N    3.621 --     5 C    1.265     7 C    1.101    22 C    0.982
     7   6 C    3.963 --     8 C    1.362    19 C    1.304     6 N    1.101
     8   6 C    3.971 --     9 C    1.367     7 C    1.362    27 H    0.959
     9   6 C    3.978 --     8 C    1.367    16 C    1.254    10 N    1.167
    10   7 N    3.380 --     9 C    1.167    15 C    0.998    11 C    0.984
    11   6 C    3.975 --    12 C    1.000    10 N    0.984    28 H    0.969
                            29 H    0.963
    12   6 C    3.987 --    13 N    1.015    11 C    1.000    31 H    0.974
                            30 H    0.965
    13   7 N    3.065 --    14 C    1.019    12 C    1.015    32 H    0.957
    14   6 C    3.988 --    13 N    1.019    15 C    0.995    33 H    0.974
                            34 H    0.965
    15   6 C    3.982 --    10 N    0.998    14 C    0.995    36 H    0.970
                            35 H    0.964
    16   6 C    3.877 --    18 C    1.482     9 C    1.254    17 F    0.947
    17   9 F    1.077 --    16 C    0.947
    18   6 C    3.983 --    16 C    1.482    19 C    1.337    37 H    0.957
    19   6 C    3.978 --    18 C    1.337     7 C    1.304    20 C    1.053
    20   6 C    3.955 --    21 O    1.716     4 C    1.080    19 C    1.053
    21   8 O    2.025 --    20 C    1.716
    22   6 C    3.919 --     6 N    0.982    23 C    0.974    24 C    0.962
                            38 H    0.959
    23   6 C    3.943 --    24 C    0.985    39 H    0.979    40 H    0.975
                            22 C    0.974
    24   6 C    3.940 --    23 C    0.985    41 H    0.979    42 H    0.979
                            22 C    0.962
    25   1 H    0.892 --     3 O    0.868
    26   1 H    0.992 --     5 C    0.950
    27   1 H    0.997 --     8 C    0.959
    28   1 H    0.995 --    11 C    0.969
    29   1 H    0.995 --    11 C    0.963
    30   1 H    0.999 --    12 C    0.965
    31   1 H    0.998 --    12 C    0.974
    32   1 H    0.981 --    13 N    0.957
    33   1 H    0.998 --    14 C    0.974
    34   1 H    1.000 --    14 C    0.965
    35   1 H    0.996 --    15 C    0.964
    36   1 H    0.998 --    15 C    0.970
    37   1 H    0.990 --    18 C    0.957
    38   1 H    0.995 --    22 C    0.959
    39   1 H    0.997 --    23 C    0.979
    40   1 H    0.996 --    23 C    0.975
    41   1 H    0.997 --    24 C    0.979
    42   1 H    0.997 --    24 C    0.979
 ---------------------------------------------------------------------------

Topologies differ in total number of bonds
Writing topology from bond orders to xtbtopo.mol

molecular dipole:
                 x           y           z       tot (Debye)
 q only:       -1.810      -0.129      -2.834
   full:       -1.782       0.140      -2.948       8.763
molecular quadrupole (traceless):
                xx          xy          yy          xz          yz          zz
 q only:       -4.338      -0.826       8.915      -8.769       0.252      -4.577
  q+dip:       -0.471      -3.331       8.400      -8.220      -0.859      -7.928
   full:       -1.458      -3.843      11.512      -8.650      -0.863     -10.054

           -------------------------------------------------
          |                Geometry Summary                 |
           -------------------------------------------------

      molecular mass/u    :      331.3421713
   center of mass at/Å    :        0.5588119      -0.1200966       0.5851483
  moments of inertia/u·Å² :        0.1074407E+04   0.3860467E+04   0.4791910E+04
rotational constants/cm⁻¹ :        0.1569017E-01   0.4366734E-02   0.3517936E-02

 * 41 selected distances

     #   Z          #   Z                                           value/Å
     1   8 O        2   6 C                                       1.2135226
     2   6 C        3   8 O                                       1.3292280
     4   6 C        5   6 C                                       1.3625806
     5   6 C        6   7 N                                       1.3433219
     6   7 N        7   6 C                                       1.3875103
     7   6 C        8   6 C                                       1.3939540
     8   6 C        9   6 C                                       1.3959415
     9   6 C       10   7 N                                       1.3740361
    10   7 N       11   6 C                                       1.4509503
    11   6 C       12   6 C                                       1.5260942
    12   6 C       13   7 N                                       1.4513266
    13   7 N       14   6 C                                       1.4488297
    10   7 N       15   6 C                                       1.4456671
    14   6 C       15   6 C                                       1.5315235 (max)
     9   6 C       16   6 C                                       1.4124440
    16   6 C       18   6 C                                       1.3667044
     7   6 C       19   6 C                                       1.4028271
    18   6 C       19   6 C                                       1.3973679
    20   6 C       21   8 O                                       1.2176679
     6   7 N       22   6 C                                       1.4336008
    22   6 C       23   6 C                                       1.4986566
    22   6 C       24   6 C                                       1.5031998
    23   6 C       24   6 C                                       1.4963622
     3   8 O       25   1 H                                       0.9697705 (min)
     5   6 C       26   1 H                                       1.0818764
     8   6 C       27   1 H                                       1.0755216
    11   6 C       28   1 H                                       1.0861069
    11   6 C       29   1 H                                       1.1007216
    12   6 C       30   1 H                                       1.1031632
    12   6 C       31   1 H                                       1.0912672
    13   7 N       32   1 H                                       1.0147700
    14   6 C       33   1 H                                       1.0920176
    14   6 C       34   1 H                                       1.1045620
    15   6 C       35   1 H                                       1.0999953
    15   6 C       36   1 H                                       1.0904762
    18   6 C       37   1 H                                       1.0790604
    22   6 C       38   1 H                                       1.0865476
    23   6 C       39   1 H                                       1.0788110
    23   6 C       40   1 H                                       1.0785673
    24   6 C       41   1 H                                       1.0792931
    24   6 C       42   1 H                                       1.0791533

 * 6 distinct bonds (by element types)

   Z      Z             #   av. dist./Å        max./Å        min./Å
   1 H    6 C          16     1.0879463     1.1045620     1.0755216
   6 C    6 C          12     1.4406380     1.5315235     1.3625806
   1 H    7 N           1     1.0147700     1.0147700     1.0147700
   6 C    7 N           8     1.4169054     1.4513266     1.3433219
   1 H    8 O           1     0.9697705     0.9697705     0.9697705
   6 C    8 O           3     1.2534728     1.3292280     1.2135226


optimized geometry written to: xtbopt.xyz


           -------------------------------------------------
          | TOTAL ENERGY              -71.306112958327 Eh   |
          | GRADIENT NORM               0.000456848773 Eh/α |
          | HOMO-LUMO GAP               2.571834857203 eV   |
           -------------------------------------------------

------------------------------------------------------------------------
 * finished run on 2025/05/15 at 16:13:56.392     
------------------------------------------------------------------------
 total:
 * wall-time:     0 d,  0 h,  0 min,  1.885 sec
 *  cpu-time:     0 d,  0 h,  0 min,  1.140 sec
 * ratio c/w:     0.605 speedup
 SCF:
 * wall-time:     0 d,  0 h,  0 min,  0.088 sec
 *  cpu-time:     0 d,  0 h,  0 min,  0.059 sec
 * ratio c/w:     0.674 speedup
 ANC optimizer:
 * wall-time:     0 d,  0 h,  0 min,  1.783 sec
 *  cpu-time:     0 d,  0 h,  0 min,  1.069 sec
 * ratio c/w:     0.600 speedup



----- Single-point -----
      -----------------------------------------------------------      
     |                   =====================                   |     
     |                           x T B                           |     
     |                   =====================                   |     
     |                         S. Grimme                         |     
     |          Mulliken Center for Theoretical Chemistry        |     
     |                    University of Bonn                     |     
      -----------------------------------------------------------      

   * xtb version 6.7.1 (edcfbbe) compiled by 'conda@3ef47c1a292c' on 2024-11-25

   xtb is free software: you can redistribute it and/or modify it under
   the terms of the GNU Lesser General Public License as published by
   the Free Software Foundation, either version 3 of the License, or
   (at your option) any later version.
   
   xtb is distributed in the hope that it will be useful,
   but WITHOUT ANY WARRANTY; without even the implied warranty of
   MERCHANTABILITY or FITNESS FOR A PARTICULAR PURPOSE.  See the
   GNU Lesser General Public License for more details.
   
   Cite this work as:
   * C. Bannwarth, E. Caldeweyher, S. Ehlert, A. Hansen, P. Pracht,
     J. Seibert, S. Spicher, S. Grimme, WIREs Comput. Mol. Sci., 2020, 11,
     e01493. DOI: 10.1002/wcms.1493
   
   for GFN2-xTB:
   * C. Bannwarth, S. Ehlert and S. Grimme., J. Chem. Theory Comput., 2019,
     15, 1652-1671. DOI: 10.1021/acs.jctc.8b01176
   for GFN1-xTB:
   * S. Grimme, C. Bannwarth, P. Shushkov, J. Chem. Theory Comput., 2017,
     13, 1989-2009. DOI: 10.1021/acs.jctc.7b00118
   for GFN0-xTB:
   * P. Pracht, E. Caldeweyher, S. Ehlert, S. Grimme, ChemRxiv, 2019, preprint.
     DOI: 10.26434/chemrxiv.8326202.v1
   for GFN-FF:
   * S. Spicher and S. Grimme, Angew. Chem. Int. Ed., 2020, 59, 15665-15673.
     DOI: 10.1002/anie.202004239
   
   for ALPB and GBSA implicit solvation:
   * S. Ehlert, M. Stahn, S. Spicher, S. Grimme, J. Chem. Theory Comput.,
     2021, 17, 4250-4261. DOI: 10.1021/acs.jctc.1c00471
   
   for ddCOSMO and CPCM-X implicit solvation:
   * M. Stahn, S. Ehlert, S. Grimme, J. Phys. Chem. A,
     2023, XX, XXXX-XXXX. DOI: 10.1021/acs.jpca.3c04382
   
   for DFT-D4:
   * E. Caldeweyher, C. Bannwarth and S. Grimme, J. Chem. Phys., 2017,
     147, 034112. DOI: 10.1063/1.4993215
   * E. Caldeweyher, S. Ehlert, A. Hansen, H. Neugebauer, S. Spicher,
     C. Bannwarth and S. Grimme, J. Chem. Phys., 2019, 150, 154122.
     DOI: 10.1063/1.5090222
   * E. Caldeweyher, J.-M. Mewes, S. Ehlert and S. Grimme, Phys. Chem. Chem. Phys.
     2020, 22, 8499-8512. DOI: 10.1039/D0CP00502A
   
   for sTDA-xTB:
   * S. Grimme and C. Bannwarth, J. Chem. Phys., 2016, 145, 054103.
     DOI: 10.1063/1.4959605
   
   in the mass-spec context:
   * V. Asgeirsson, C. Bauer and S. Grimme, Chem. Sci., 2017, 8, 4879.
     DOI: 10.1039/c7sc00601b
   * J. Koopman and S. Grimme, ACS Omega 2019, 4, 12, 15120-15133.
     DOI: 10.1021/acsomega.9b02011
   
   for metadynamics refer to:
   * S. Grimme, J. Chem. Theory Comput., 2019, 155, 2847-2862
     DOI: 10.1021/acs.jctc.9b00143
   
   for SPH calculations refer to:
   * S. Spicher and S. Grimme, J. Chem. Theory Comput., 2021, 17, 1701-1714
     DOI: 10.1021/acs.jctc.0c01306
   
   for ONIOM refer to:
   * C. Plett, A. Katbashev, S. Ehlert, S. Grimme, M. Bursch,
     Phys. Chem. Chem. Phys., 2023, 25, 17860-17868. DOI: 10.1039/D3CP02178E
   
   for DIPRO refer to:
   * J. Kohn, N. Gildemeister, S. Grimme, D. Fazzi, A. Hansen,
     J. Chem. Phys., 2023, just accepted.
   
   for PTB refer to:
   * S. Grimme, M. Mueller, A. Hansen, J. Chem. Phys., 2023, 158, 124111.
     DOI: 10.1063/5.0137838
   
   with help from (in alphabetical order)
   P. Atkinson, C. Bannwarth, F. Bohle, G. Brandenburg, E. Caldeweyher
   M. Checinski, S. Dohm, S. Ehlert, S. Ehrlich, I. Gerasimov, C. Hölzer
   A. Katbashev, J. Kohn, J. Koopman, C. Lavigne, S. Lehtola, F. März, M. Müller,
   F. Musil, H. Neugebauer, J. Pisarek, C. Plett, P. Pracht, F. Pultar,
   J. Seibert, P. Shushkov, S. Spicher, M. Stahn, M. Steiner, T. Strunk,
   J. Stückrath, T. Rose, and J. Unsleber
   
 * started run on 2025/05/15 at 16:13:56.413     
   ID    Z sym.   atoms
    1    8 O      1, 3, 21
    2    6 C      2, 4, 5, 7-9, 11, 12, 14-16, 18-20, 22-24
    3    7 N      6, 10, 13
    4    9 F      17
    5    1 H      25-42

           -------------------------------------------------
          |                Calculation Setup                |
           -------------------------------------------------

          program call               : xtb /rds/general/user/hgt20/home/callum/QDESCP/Ciprofloxacin_rdkit_conf_8/Ciprofloxacin_rdkit_conf_8.xyz --acc 1 --gfn 2 --chrg 0 --uhf 0 --etemp 300 --input /rds/general/user/hgt20/home/callum/QDESCP/Ciprofloxacin_rdkit_conf_8/Ciprofloxacin_rdkit_conf_8_xtb.inp -P 1
          hostname                   : login-c
          coordinate file            : /rds/general/user/hgt20/home/callum/QDESCP/Ciprofloxacin_rdkit_conf_8/Ciprofloxacin_rdkit_conf_8.xyz
          omp threads                :                     1


           -------------------------------------------------
          |                 G F N 2 - x T B                 |
           -------------------------------------------------

        Reference                      10.1021/acs.jctc.8b01176
      * Hamiltonian:
        H0-scaling (s, p, d)           1.850000    2.230000    2.230000
        zeta-weighting                 0.500000
      * Dispersion:
        s8                             2.700000
        a1                             0.520000
        a2                             5.000000
        s9                             5.000000
      * Repulsion:
        kExp                           1.500000    1.000000
        rExp                           1.000000
      * Coulomb:
        alpha                          2.000000
        third order                    shell-resolved
        anisotropic                    true
        a3                             3.000000
        a5                             4.000000
        cn-shift                       1.200000
        cn-exp                         4.000000
        max-rad                        5.000000

q/qsh data taken from xtbrestart
CAMM data taken from xtbrestart

          ...................................................
          :                      SETUP                      :
          :.................................................:
          :  # basis functions                 114          :
          :  # atomic orbitals                 114          :
          :  # shells                           66          :
          :  # electrons                       126          :
          :  max. iterations                   250          :
          :  Hamiltonian                  GFN2-xTB          :
          :  restarted?                       true          :
          :  GBSA solvation                  false          :
          :  PC potential                    false          :
          :  electronic temp.          300.0000000     K    :
          :  accuracy                    1.0000000          :
          :  -> integral cutoff          0.2500000E+02      :
          :  -> integral neglect         0.1000000E-07      :
          :  -> SCF convergence          0.1000000E-05 Eh   :
          :  -> wf. convergence          0.1000000E-03 e    :
          :  Broyden damping             0.4000000          :
          :  net charge                          0          :
          :  unpaired electrons                  0          :
          ...................................................

 iter      E             dE          RMSdq      gap      omega  full diag
   1    -72.2001202 -0.722001E+02  0.825E-06    2.57       0.0  T
   2    -72.2001202 -0.426326E-12  0.486E-06    2.57    3172.2  T
   3    -72.2001202  0.426326E-13  0.266E-06    2.57    5795.2  T

   *** convergence criteria satisfied after 3 iterations ***

         #    Occupation            Energy/Eh            Energy/eV
      -------------------------------------------------------------
         1        2.0000           -0.8160459             -22.2057
       ...           ...                  ...                  ...
        57        2.0000           -0.4349359             -11.8352
        58        2.0000           -0.4234953             -11.5239
        59        2.0000           -0.4112758             -11.1914
        60        2.0000           -0.3858564             -10.4997
        61        2.0000           -0.3770818             -10.2609
        62        2.0000           -0.3714658             -10.1081
        63        2.0000           -0.3665325              -9.9739 (HOMO)
        64                         -0.2720195              -7.4020 (LUMO)
        65                         -0.2597207              -7.0674
        66                         -0.2236966              -6.0871
        67                         -0.2019945              -5.4966
        68                         -0.1359637              -3.6998
       ...                                ...                  ...
       114                          0.7150918              19.4586
      -------------------------------------------------------------
                  HL-Gap            0.0945130 Eh            2.5718 eV
             Fermi-level           -0.3192760 Eh           -8.6879 eV

 SCC (total)                   0 d,  0 h,  0 min,  0.076 sec
 SCC setup                      ...        0 min,  0.000 sec (  0.482%)
 Dispersion                     ...        0 min,  0.000 sec (  0.634%)
 classical contributions        ...        0 min,  0.000 sec (  0.195%)
 integral evaluation            ...        0 min,  0.008 sec ( 10.563%)
 iterations                     ...        0 min,  0.008 sec ( 10.709%)
 molecular gradient             ...        0 min,  0.059 sec ( 77.118%)
 printout                       ...        0 min,  0.000 sec (  0.289%)

         :::::::::::::::::::::::::::::::::::::::::::::::::::::
         ::                     SUMMARY                     ::
         :::::::::::::::::::::::::::::::::::::::::::::::::::::
         :: total energy             -71.306112958370 Eh    ::
         :: gradient norm              0.000456976569 Eh/a0 ::
         :: HOMO-LUMO gap              2.571829594139 eV    ::
         ::.................................................::
         :: SCC energy               -72.200054381239 Eh    ::
         :: -> isotropic ES            0.108056808609 Eh    ::
         :: -> anisotropic ES          0.007253050713 Eh    ::
         :: -> anisotropic XC          0.019164755486 Eh    ::
         :: -> dispersion             -0.046077491275 Eh    ::
         :: repulsion energy           0.893941422870 Eh    ::
         :: add. restraining           0.000000000000 Eh    ::
         :: total charge              -0.000000000000 e     ::
         :::::::::::::::::::::::::::::::::::::::::::::::::::::

           -------------------------------------------------
          |                Property Printout                |
           -------------------------------------------------

    * Orbital Energies and Occupations

         #    Occupation            Energy/Eh            Energy/eV
      -------------------------------------------------------------
         1        2.0000           -0.8160459             -22.2057
       ...           ...                  ...                  ...
        51        2.0000           -0.4627204             -12.5913
        52        2.0000           -0.4584305             -12.4745
        53        2.0000           -0.4575474             -12.4505
        54        2.0000           -0.4552300             -12.3874
        55        2.0000           -0.4538219             -12.3491
        56        2.0000           -0.4413809             -12.0106
        57        2.0000           -0.4349359             -11.8352
        58        2.0000           -0.4234953             -11.5239
        59        2.0000           -0.4112758             -11.1914
        60        2.0000           -0.3858564             -10.4997
        61        2.0000           -0.3770818             -10.2609
        62        2.0000           -0.3714658             -10.1081
        63        2.0000           -0.3665325              -9.9739 (HOMO)
        64                         -0.2720195              -7.4020 (LUMO)
        65                         -0.2597207              -7.0674
        66                         -0.2236966              -6.0871
        67                         -0.2019945              -5.4966
        68                         -0.1359637              -3.6998
        69                         -0.0954873              -2.5983
        70                         -0.0759336              -2.0663
        71                         -0.0287159              -0.7814
        72                         -0.0143149              -0.3895
        73                          0.0347554               0.9457
        74                          0.0397401               1.0814
       ...                                ...                  ...
       114                          0.7150918              19.4586
      -------------------------------------------------------------
[...]
   
   for ALPB and GBSA implicit solvation:
   * S. Ehlert, M. Stahn, S. Spicher, S. Grimme, J. Chem. Theory Comput.,
     2021, 17, 4250-4261. DOI: 10.1021/acs.jctc.1c00471
   
   for ddCOSMO and CPCM-X implicit solvation:
   * M. Stahn, S. Ehlert, S. Grimme, J. Phys. Chem. A,
     2023, XX, XXXX-XXXX. DOI: 10.1021/acs.jpca.3c04382
   
   for DFT-D4:
   * E. Caldeweyher, C. Bannwarth and S. Grimme, J. Chem. Phys., 2017,
     147, 034112. DOI: 10.1063/1.4993215
   * E. Caldeweyher, S. Ehlert, A. Hansen, H. Neugebauer, S. Spicher,
     C. Bannwarth and S. Grimme, J. Chem. Phys., 2019, 150, 154122.
     DOI: 10.1063/1.5090222
   * E. Caldeweyher, J.-M. Mewes, S. Ehlert and S. Grimme, Phys. Chem. Chem. Phys.
     2020, 22, 8499-8512. DOI: 10.1039/D0CP00502A
   
   for sTDA-xTB:
   * S. Grimme and C. Bannwarth, J. Chem. Phys., 2016, 145, 054103.
     DOI: 10.1063/1.4959605
   
   in the mass-spec context:
   * V. Asgeirsson, C. Bauer and S. Grimme, Chem. Sci., 2017, 8, 4879.
     DOI: 10.1039/c7sc00601b
   * J. Koopman and S. Grimme, ACS Omega 2019, 4, 12, 15120-15133.
     DOI: 10.1021/acsomega.9b02011
   
   for metadynamics refer to:
   * S. Grimme, J. Chem. Theory Comput., 2019, 155, 2847-2862
     DOI: 10.1021/acs.jctc.9b00143
   
   for SPH calculations refer to:
   * S. Spicher and S. Grimme, J. Chem. Theory Comput., 2021, 17, 1701-1714
     DOI: 10.1021/acs.jctc.0c01306
   
   for ONIOM refer to:
   * C. Plett, A. Katbashev, S. Ehlert, S. Grimme, M. Bursch,
     Phys. Chem. Chem. Phys., 2023, 25, 17860-17868. DOI: 10.1039/D3CP02178E
   
   for DIPRO refer to:
   * J. Kohn, N. Gildemeister, S. Grimme, D. Fazzi, A. Hansen,
     J. Chem. Phys., 2023, just accepted.
   
   for PTB refer to:
   * S. Grimme, M. Mueller, A. Hansen, J. Chem. Phys., 2023, 158, 124111.
     DOI: 10.1063/5.0137838
   
   with help from (in alphabetical order)
   P. Atkinson, C. Bannwarth, F. Bohle, G. Brandenburg, E. Caldeweyher
   M. Checinski, S. Dohm, S. Ehlert, S. Ehrlich, I. Gerasimov, C. Hölzer
   A. Katbashev, J. Kohn, J. Koopman, C. Lavigne, S. Lehtola, F. März, M. Müller,
   F. Musil, H. Neugebauer, J. Pisarek, C. Plett, P. Pracht, F. Pultar,
   J. Seibert, P. Shushkov, S. Spicher, M. Stahn, M. Steiner, T. Strunk,
   J. Stückrath, T. Rose, and J. Unsleber
   
 * started run on 2025/05/15 at 16:13:58.881     
   ID    Z sym.   atoms
    1    8 O      1, 3, 21
    2    6 C      2, 4, 5, 7-9, 11, 12, 14-16, 18-20, 22-24
    3    7 N      6, 10, 13
    4    9 F      17
    5    1 H      25-42

           -------------------------------------------------
          |                Calculation Setup                |
           -------------------------------------------------

          program call               : xtb /rds/general/user/hgt20/home/callum/QDESCP/Ciprofloxacin_rdkit_conf_8/Ciprofloxacin_rdkit_conf_8.xyz --acc 1 --gfn 2 --chrg 0 --uhf 2 --etemp 300 --input /rds/general/user/hgt20/home/callum/QDESCP/Ciprofloxacin_rdkit_conf_8/Ciprofloxacin_rdkit_conf_8_xtb.inp -P 1
          hostname                   : login-c
          coordinate file            : /rds/general/user/hgt20/home/callum/QDESCP/Ciprofloxacin_rdkit_conf_8/Ciprofloxacin_rdkit_conf_8.xyz
          omp threads                :                     1


           -------------------------------------------------
          |                 G F N 2 - x T B                 |
           -------------------------------------------------

        Reference                      10.1021/acs.jctc.8b01176
      * Hamiltonian:
        H0-scaling (s, p, d)           1.850000    2.230000    2.230000
        zeta-weighting                 0.500000
      * Dispersion:
        s8                             2.700000
        a1                             0.520000
        a2                             5.000000
        s9                             5.000000
      * Repulsion:
        kExp                           1.500000    1.000000
        rExp                           1.000000
      * Coulomb:
        alpha                          2.000000
        third order                    shell-resolved
        anisotropic                    true
        a3                             3.000000
        a5                             4.000000
        cn-shift                       1.200000
        cn-exp                         4.000000
        max-rad                        5.000000


          ...................................................
          :                      SETUP                      :
          :.................................................:
          :  # basis functions                 114          :
          :  # atomic orbitals                 114          :
          :  # shells                           66          :
          :  # electrons                       126          :
          :  max. iterations                   250          :
          :  Hamiltonian                  GFN2-xTB          :
          :  restarted?                      false          :
          :  GBSA solvation                  false          :
          :  PC potential                    false          :
          :  electronic temp.          300.0000000     K    :
          :  accuracy                    1.0000000          :
          :  -> integral cutoff          0.2500000E+02      :
          :  -> integral neglect         0.1000000E-07      :
          :  -> SCF convergence          0.1000000E-05 Eh   :
          :  -> wf. convergence          0.1000000E-03 e    :
          :  Broyden damping             0.4000000          :
          :  net charge                          0          :
          :  unpaired electrons                  2          :
          ...................................................

 iter      E             dE          RMSdq      gap      omega  full diag
   1    -71.8103288 -0.718103E+02  0.407E+00    0.21       0.0  T
   2    -71.8078248  0.250402E-02  0.314E+00    0.08       1.0  T
   3    -71.9244228 -0.116598E+00  0.231E+00    0.53       1.0  T
   4    -71.9634468 -0.390240E-01  0.147E+00    0.27       1.0  T
   5    -71.9484896  0.149572E-01  0.145E+00    0.33       1.0  T
   6    -72.0610505 -0.112561E+00  0.621E-01    0.23       1.0  T
   7    -72.0436314  0.174191E-01  0.764E-01    0.16       1.0  T
   8    -72.0772297 -0.335983E-01  0.528E-01    0.11       1.0  T
   9    -72.0852410 -0.801134E-02  0.321E-01    0.13       1.0  T
  10    -72.0913042 -0.606316E-02  0.125E-01    0.14       1.0  T
  11    -72.0921824 -0.878213E-03  0.666E-02    0.12       1.0  T
  12    -72.0924031 -0.220714E-03  0.375E-02    0.12       1.0  T
  13    -72.0924551 -0.519752E-04  0.231E-02    0.12       1.0  T
  14    -72.0924547  0.404913E-06  0.229E-02    0.12       1.0  T
  15    -72.0924946 -0.399252E-04  0.677E-03    0.12       2.3  T
  16    -72.0924977 -0.305310E-05  0.165E-03    0.12       9.4  T
  17    -72.0924978 -0.981661E-07  0.131E-03    0.12      11.8  T
  18    -72.0924979 -0.896417E-07  0.832E-04    0.12      18.5  T
  19    -72.0924979 -0.532990E-07  0.179E-04    0.12      86.3  T

   *** convergence criteria satisfied after 19 iterations ***

         #    Occupation            Energy/Eh            Energy/eV
      -------------------------------------------------------------
         1        2.0000           -0.8159710             -22.2037
       ...           ...                  ...                  ...
        58        2.0000           -0.4142365             -11.2720
        59        2.0000           -0.4053549             -11.0303
        60        2.0000           -0.3902933             -10.6204
        61        1.9587           -0.3779454             -10.2844
        62        1.6669           -0.3756172             -10.2211
        63        1.3744           -0.3744700             -10.1898
        64        0.9170           -0.2582698              -7.0279 (HOMO)
        65        0.0830           -0.2537045              -6.9037 (LUMO)
        66                         -0.2120903              -5.7713
        67                         -0.1965761              -5.3491
        68                         -0.1268597              -3.4520
        69                         -0.0855209              -2.3271
       ...                                ...                  ...
       114                          0.7207241              19.6119
      -------------------------------------------------------------
                  HL-Gap            0.0045653 Eh            0.1242 eV
             Fermi-level           -0.3154724 Eh           -8.5844 eV

 transition dipole moment (au) for excitation:          63          64
     X       Y       Z   
   1.0810   0.0926   0.6670  total (au/Debye):    1.274   3.237
 dE (eV)             :    3.162
 oscillator strength :  0.17772E+00

 SCC (total)                   0 d,  0 h,  0 min,  0.131 sec
 SCC setup                      ...        0 min,  0.000 sec (  0.276%)
 Dispersion                     ...        0 min,  0.000 sec (  0.358%)
 classical contributions        ...        0 min,  0.000 sec (  0.112%)
 integral evaluation            ...        0 min,  0.008 sec (  6.183%)
 iterations                     ...        0 min,  0.089 sec ( 68.066%)
 molecular gradient             ...        0 min,  0.025 sec ( 19.463%)
 printout                       ...        0 min,  0.007 sec (  5.537%)

         :::::::::::::::::::::::::::::::::::::::::::::::::::::
         ::                     SUMMARY                     ::
         :::::::::::::::::::::::::::::::::::::::::::::::::::::
         :: total energy             -71.198490615809 Eh    ::
         :: gradient norm              0.084821933347 Eh/a0 ::
         :: HOMO-LUMO gap              0.124229032061 eV    ::
         ::.................................................::
         :: SCC energy               -72.092432038678 Eh    ::
         :: -> isotropic ES            0.100800821434 Eh    ::
         :: -> anisotropic ES          0.006200788389 Eh    ::
         :: -> anisotropic XC          0.017426501401 Eh    ::
         :: -> dispersion             -0.046058872284 Eh    ::
         :: repulsion energy           0.893941422870 Eh    ::
         :: add. restraining           0.000000000000 Eh    ::
         :: total charge              -0.000000000000 e     ::
         :::::::::::::::::::::::::::::::::::::::::::::::::::::

           -------------------------------------------------
          |                Property Printout                |
           -------------------------------------------------

    * Orbital Energies and Occupations

         #    Occupation            Energy/Eh            Energy/eV
      -------------------------------------------------------------
         1        2.0000           -0.8159710             -22.2037
       ...           ...                  ...                  ...
        52        2.0000           -0.4566181             -12.4252
        53        2.0000           -0.4535439             -12.3416
        54        2.0000           -0.4506630             -12.2632
        55        2.0000           -0.4460828             -12.1385
        56        2.0000           -0.4389674             -11.9449
        57        2.0000           -0.4317750             -11.7492
        58        2.0000           -0.4142365             -11.2720
        59        2.0000           -0.4053549             -11.0303
        60        2.0000           -0.3902933             -10.6204
        61        1.9587           -0.3779454             -10.2844
        62        1.6669           -0.3756172             -10.2211
        63        1.3744           -0.3744700             -10.1898
        64        0.9170           -0.2582698              -7.0279 (HOMO)
        65        0.0830           -0.2537045              -6.9037 (LUMO)
        66                         -0.2120903              -5.7713
        67                         -0.1965761              -5.3491
        68                         -0.1268597              -3.4520
        69                         -0.0855209              -2.3271
        70                         -0.0675930              -1.8393
        71                         -0.0264983              -0.7211
        72                         -0.0126789              -0.3450
        73                          0.0241517               0.6572
        74                          0.0423876               1.1534
        75                          0.0535537               1.4573
       ...                                ...                  ...
       114                          0.7207241              19.6119
      -------------------------------------------------------------
                  HL-Gap            0.0045653 Eh            0.1242 eV
             Fermi-level           -0.3154724 Eh           -8.5844 eV

     #   Z          covCN         q      C6AA      α(0)
     1   8 O        0.857    -0.450    22.709     6.389
     2   6 C        2.704     0.356    20.955     7.493
     3   8 O        1.660    -0.359    20.062     6.047
     4   6 C        2.956    -0.069    29.728     8.943
     5   6 C        2.883    -0.008    28.222     8.709
     6   7 N        2.745    -0.018    21.599     6.902
     7   6 C        2.933     0.054    26.795     8.489
     8   6 C        2.928    -0.105    30.652     9.080
     9   6 C        2.905     0.031    27.315     8.570
    10   7 N        2.740    -0.055    22.300     7.014
    11   6 C        3.761    -0.007    20.745     6.493
    12   6 C        3.756     0.010    20.458     6.449
    13   7 N        2.684    -0.243    26.330     7.621
    14   6 C        3.756     0.012    20.426     6.444
    15   6 C        3.760    -0.006    20.737     6.492
    16   6 C        2.784     0.143    24.863     8.167
    17   9 F        0.787    -0.230    11.548     4.014
    18   6 C        2.921    -0.072    29.790     8.951
    19   6 C        2.983    -0.015    28.375     8.738
    20   6 C        2.830     0.196    23.822     7.998
    21   8 O        0.857    -0.348    20.666     6.095
    22   6 C        3.811     0.030    20.055     6.374
    23   6 C        3.806    -0.069    21.824     6.650
    24   6 C        3.806    -0.069    21.814     6.649
    25   1 H        0.805     0.326     0.647     1.263
    26   1 H        0.925     0.072     2.061     2.245
    27   1 H        0.926     0.039     2.468     2.457
    28   1 H        0.925     0.076     2.022     2.224
    29   1 H        0.923     0.052     2.295     2.369
    30   1 H        0.923     0.032     2.565     2.505
    31   1 H        0.924     0.047     2.357     2.401
    32   1 H        0.860     0.143     1.452     1.888
    33   1 H        0.924     0.044     2.394     2.419
    34   1 H        0.923     0.026     2.648     2.545
    35   1 H        0.923     0.052     2.297     2.370
    36   1 H        0.924     0.056     2.242     2.341
    37   1 H        0.926     0.077     2.013     2.219
    38   1 H        0.925     0.042     2.420     2.433
    39   1 H        0.926     0.051     2.312     2.378
    40   1 H        0.926     0.060     2.195     2.317
    41   1 H        0.926     0.043     2.407     2.426
    42   1 H        0.926     0.052     2.294     2.369

 Mol. C6AA /au·bohr⁶  :      20029.166741
 Mol. C8AA /au·bohr⁸  :     469371.320667
 Mol. α(0) /au        :        215.937910


Wiberg/Mayer (AO) data.
largest (>0.10) Wiberg bond orders for each atom

 ---------------------------------------------------------------------------
     #   Z sym  total        # sym  WBO       # sym  WBO       # sym  WBO
 ---------------------------------------------------------------------------
     1   8 O    1.957 --     2 C    1.659     3 O    0.158
     2   6 C    3.889 --     1 O    1.659     3 O    1.137     4 C    1.035
     3   8 O    2.205 --     2 C    1.137    25 H    0.868     1 O    0.158
     4   6 C    3.851 --     5 C    1.450    20 C    1.076     2 C    1.035
     5   6 C    3.855 --     4 C    1.450     6 N    1.190    26 H    0.948
     6   7 N    3.550 --     5 C    1.190     7 C    1.116    22 C    0.988
     7   6 C    3.937 --     8 C    1.374    19 C    1.264     6 N    1.116
     8   6 C    3.879 --     7 C    1.374     9 C    1.262    27 H    0.959
     9   6 C    3.900 --    16 C    1.279     8 C    1.262    10 N    1.140
    10   7 N    3.288 --     9 C    1.140    15 C    1.004    11 C    0.992
    11   6 C    3.964 --    12 C    0.994    10 N    0.992    28 H    0.967
                            29 H    0.952
    12   6 C    3.978 --    13 N    1.017    11 C    0.994    31 H    0.973
                            30 H    0.962
    13   7 N    3.071 --    14 C    1.020    12 C    1.017    32 H    0.953
    14   6 C    3.979 --    13 N    1.020    15 C    0.988    33 H    0.973
                            34 H    0.963
    15   6 C    3.974 --    10 N    1.004    14 C    0.988    36 H    0.969
                            35 H    0.955
    16   6 C    3.792 --    18 C    1.391     9 C    1.279    17 F    0.947
    17   9 F    1.069 --    16 C    0.947
    18   6 C    3.918 --    16 C    1.391    19 C    1.294    37 H    0.960
    19   6 C    3.826 --    18 C    1.294     7 C    1.264    20 C    1.039
    20   6 C    3.874 --    21 O    1.566     4 C    1.076    19 C    1.039
    21   8 O    1.863 --    20 C    1.566
    22   6 C    3.923 --     6 N    0.988    23 C    0.975    24 C    0.960
                            38 H    0.958
    23   6 C    3.943 --    24 C    0.983    39 H    0.979    40 H    0.975
                            22 C    0.975
    24   6 C    3.938 --    23 C    0.983    41 H    0.980    42 H    0.979
                            22 C    0.960
    25   1 H    0.892 --     3 O    0.868
    26   1 H    0.987 --     5 C    0.948
    27   1 H    0.997 --     8 C    0.959
    28   1 H    0.994 --    11 C    0.967
    29   1 H    0.979 --    11 C    0.952
    30   1 H    0.994 --    12 C    0.962
    31   1 H    0.997 --    12 C    0.973
    32   1 H    0.977 --    13 N    0.953
    33   1 H    0.997 --    14 C    0.973
    34   1 H    0.995 --    14 C    0.963
    35   1 H    0.982 --    15 C    0.955
    36   1 H    0.996 --    15 C    0.969
    37   1 H    0.992 --    18 C    0.960
    38   1 H    0.995 --    22 C    0.958
    39   1 H    0.997 --    23 C    0.979
    40   1 H    0.996 --    23 C    0.975
    41   1 H    0.998 --    24 C    0.980
    42   1 H    0.997 --    24 C    0.979
 ---------------------------------------------------------------------------

Topologies differ in total number of bonds
Writing topology from bond orders to xtbtopo.mol

molecular dipole:
                 x           y           z       tot (Debye)
 q only:       -2.794      -0.259      -2.829
   full:       -2.800      -0.006      -2.878      10.207
molecular quadrupole (traceless):
                xx          xy          yy          xz          yz          zz
 q only:       -1.464      -0.362       7.614      -6.119       0.158      -6.150
  q+dip:        2.258      -2.846       6.835      -4.924      -0.772      -9.093
   full:        1.701      -3.187       9.282      -5.343      -0.830     -10.983


           -------------------------------------------------
          | TOTAL ENERGY              -71.198490615809 Eh   |
          | GRADIENT NORM               0.084821933347 Eh/α |
          | HOMO-LUMO GAP               0.124229032061 eV   |
           -------------------------------------------------

------------------------------------------------------------------------
 * finished run on 2025/05/15 at 16:13:59.026     
------------------------------------------------------------------------
 total:
 * wall-time:     0 d,  0 h,  0 min,  0.144 sec
 *  cpu-time:     0 d,  0 h,  0 min,  0.096 sec
 * ratio c/w:     0.663 speedup
 SCF:
 * wall-time:     0 d,  0 h,  0 min,  0.131 sec
 *  cpu-time:     0 d,  0 h,  0 min,  0.083 sec
 * ratio c/w:     0.638 speedup


