42
 energy: -71.306112958327 gnorm: 0.000456848773 xtb: 6.7.1 (edcfbbe)
O            6.04466527180875        0.68065579626602        1.06365946854488
C            5.13371599357690        0.57643961505307        1.85861057337310
O            5.32658810965176        0.65869775757446        3.17119611017486
C            3.73222601231895        0.35850627470330        1.45671045836085
C            3.47777719416043        0.41616646057763        0.11934111746258
N            2.27183040873152        0.23460967948898       -0.44390212737860
C            1.16690843495606        0.01561391749245        0.36626624052624
C           -0.10697784366347       -0.12745856174198       -0.18132070870730
C           -1.23723488090007       -0.35860551554569        0.60464527718551
N           -2.50084536630957       -0.43920438374181        0.07100952300801
C           -3.41464120683696       -1.49600888224919        0.46266984125022
C           -4.85227937140800       -0.99076533010002        0.37967331072881
N           -5.10490723562617       -0.57645784157772       -0.98812672550347
C           -4.21781607053866        0.51066851434586       -1.34914302953652
C           -2.76841617089512        0.02181764259140       -1.27279756196444
C           -1.01883991089106       -0.42917863699307        1.99831692736140
F           -2.07229468057633       -0.59349199715146        2.83704728162785
C            0.22360098481617       -0.29973657067248        2.55281304922145
C            1.34798249093541       -0.07373743282425        1.75448521566873
C            2.66086893328250        0.07231857296487        2.40975244801438
O            2.79606542204721       -0.04501889828425        3.61418949436571
C            2.13400578890516        0.31487395939809       -1.86860311513917
C            3.16200010332869       -0.33055632280709       -2.74759031457550
C            1.79210388643941       -0.92429706323091       -2.64781271051957
H            6.26866805648239        0.78695452628439        3.36222001447829
H            4.29958320780483        0.62854183844713       -0.55147022914710
H           -0.22172670544810       -0.08178538274404       -1.24972758548097
H           -3.20041142078857       -1.83985754333875        1.47039084942760
H           -3.30448521362670       -2.34409763919803       -0.23029408637904
H           -4.98230754572557       -0.16696734522156        1.10176630325157
H           -5.53951770791347       -1.79795437217175        0.63854222274022
H           -6.07352343603087       -0.29656780545234       -1.10302722850946
H           -4.44058325468296        0.82664814457552       -2.37043336673887
H           -4.32664798015681        1.38083257966318       -0.67755752280045
H           -2.62535766237065       -0.78464168867571       -2.00706389066659
H           -2.10791110543062        0.85589119120723       -1.51194727017501
H            0.35550607842082       -0.34974289077163        3.62261281065716
H            1.70355441099889        1.25540730636670       -2.20131042488393
H            3.44312197712699        0.18290640263822       -3.65376883602094
H            3.97376474323652       -0.86439058130967       -2.27922467269697
H            1.11777387331090       -0.83400393663377       -3.48566684322682
H            1.68441338748042       -1.84472355720209       -2.09483028737769
