33
 energy: -45.169989048965 gnorm: 0.000422913264 xtb: 6.7.1 (edcfbbe)
C            3.39018627064799       -1.31174609617818        0.00654977388042
C            3.39465256090417        0.17512187628379       -0.33578302182939
C            2.38328912052086        0.50159109323420       -1.45414296000623
C            0.96029213632681        0.21286061875798       -1.07445598974710
C            0.17010595666297        1.18599014258923       -0.47417843645822
C           -1.13476511007500        0.91780896259658       -0.10573311107946
C           -1.68766183214055       -0.33724673327344       -0.32592940099673
C           -3.11797494980980       -0.64184829027958        0.07001668074434
C           -4.00263004483959        0.21076363354455       -0.81559011183993
O           -4.17504525994396        1.45539056077247       -0.35278851716269
O           -4.48417676241931       -0.15784011189844       -1.85379293426596
C           -3.37279780326950       -0.40245009824871        1.55780967995812
C           -0.90842103396895       -1.30723765919559       -0.94084900393983
C            0.39641836540057       -1.03494327059040       -1.30919456019522
C            3.13329845664318        1.00789186894898        0.91570691206881
H            4.15912602574821       -1.52996163054226        0.74470882247877
H            3.58801429899532       -1.91235128576413       -0.87869742102585
H            2.42709228935056       -1.60521563374763        0.41799190675433
H            4.38798166179758        0.43565283744517       -0.72063555948184
H            2.48190495978219        1.55960360952082       -1.70774094146871
H            2.64796657318800       -0.08396153648762       -2.33749973495373
H            0.57720056176436        2.17192503727745       -0.30172711286464
H           -1.73078513491344        1.69596290700228        0.34705814569646
H           -3.33374591593463       -1.68512243390815       -0.17983047016890
H           -4.71101341213811        1.96983315334469       -0.97630881851668
H           -2.69745084603532       -1.01884927311548        2.14670392347615
H           -3.21063728913352        0.63933655621684        1.81657757235946
H           -4.39726235030800       -0.66649271027806        1.81071626100002
H           -1.32590176626581       -2.28437416737560       -1.13703204361058
H            0.98109099974233       -1.80246658627603       -1.79510679692664
H            3.89463093406683        0.80731739575649        1.66640889167221
H            3.15505086119862        2.07058386858312        0.68416131097287
H            2.16176747845499        0.76427339528471        1.33940706547619
