42
 energy: -62.293294376288 gnorm: 0.000516816405 xtb: 6.7.1 (edcfbbe)
C            3.31825780504591        0.97907047160619       -1.95078252487564
C            3.18722068376106        1.61173306332824       -0.56359575613613
C            2.79196866701681        0.58387452459187        0.45842283000706
C            3.70571684290944        0.00450681757002        1.31719279874805
C            3.33812088223169       -0.97873033045886        2.24016828123223
C            2.03893044856280       -1.41884329151526        2.34013421641584
C            1.08445336602811       -0.85573031477057        1.49296382646563
C            1.47412848811940        0.13691338770480        0.55820371885419
N            0.36985799201914        0.50344456062481       -0.15800172085641
C           -0.70806534833001       -0.19579763911370        0.31316882935104
C           -0.31576046870070       -1.04195945747339        1.31306315023977
C           -1.29551043438780       -1.95906212682373        1.96168260122928
C           -2.39131669545193       -2.21387771650028        0.92225250542468
O           -2.96855525400439       -1.02650913376894        0.41914712153316
C           -2.10927948979144       -0.05389211752510       -0.19028455643244
C           -2.18784270172541       -0.14599295095447       -1.73053093810503
C           -1.60017521192375       -1.43013511710916       -2.30545322139101
C           -2.72517604028845        1.28860350937460        0.28162028883877
C           -2.20968680408108        2.55363556059431       -0.34216250768293
O           -3.04215699237843        3.57006262802987       -0.10265956774099
O           -1.19129367218443        2.70578806895114       -0.96876199672341
H            4.07757214925872        0.20019899092092       -1.93689593278168
H            3.60236884512047        1.72809785106749       -2.68680178555764
H            2.37628882092811        0.53022853511185       -2.25787296567306
H            2.43831054461311        2.40741503486093       -0.59796623943031
H            4.14220467602576        2.05874528888361       -0.28051458474053
H            4.73813324970938        0.32191221528843        1.27574310585892
H            4.09736927965511       -1.39645337267638        2.88552990089984
H            1.75920138960303       -2.17863036310237        3.05469892863009
H            0.30254488085255        1.27511332316215       -0.80232610834494
H           -1.72683255573611       -1.49750693252674        2.85538844219791
H           -0.83064792976205       -2.90189264776436        2.25272251403957
H           -1.96803783223697       -2.81774338046550        0.10895571400625
H           -3.23549777660609       -2.75350034872313        1.35883329845399
H           -3.23951876158010       -0.07046900472148       -2.01427592209386
H           -1.65691392619626        0.70868325483982       -2.15063120455765
H           -2.20605530738383       -2.28952427846554       -2.03023713120845
H           -0.58451071617003       -1.58514526782071       -1.94719303874233
H           -1.57672140716331       -1.36893078596386       -3.39153281224526
H           -2.57025296214711        1.37575827657304        1.36104342095528
H           -3.80414730735543        1.24256501584395        0.12265339147966
H           -2.69889341587589        4.39387619931267       -0.48510836954335
