----- Optimization -----
      -----------------------------------------------------------      
     |                   =====================                   |     
     |                           x T B                           |     
     |                   =====================                   |     
     |                         S. Grimme                         |     
     |          Mulliken Center for Theoretical Chemistry        |     
     |                    University of Bonn                     |     
      -----------------------------------------------------------      

   * xtb version 6.7.1 (edcfbbe) compiled by 'conda@3ef47c1a292c' on 2024-11-25

   xtb is free software: you can redistribute it and/or modify it under
   the terms of the GNU Lesser General Public License as published by
   the Free Software Foundation, either version 3 of the License, or
   (at your option) any later version.
   
   xtb is distributed in the hope that it will be useful,
   but WITHOUT ANY WARRANTY; without even the implied warranty of
   MERCHANTABILITY or FITNESS FOR A PARTICULAR PURPOSE.  See the
   GNU Lesser General Public License for more details.
   
   Cite this work as:
   * C. Bannwarth, E. Caldeweyher, S. Ehlert, A. Hansen, P. Pracht,
     J. Seibert, S. Spicher, S. Grimme, WIREs Comput. Mol. Sci., 2020, 11,
     e01493. DOI: 10.1002/wcms.1493
   
   for GFN2-xTB:
   * C. Bannwarth, S. Ehlert and S. Grimme., J. Chem. Theory Comput., 2019,
     15, 1652-1671. DOI: 10.1021/acs.jctc.8b01176
   for GFN1-xTB:
   * S. Grimme, C. Bannwarth, P. Shushkov, J. Chem. Theory Comput., 2017,
     13, 1989-2009. DOI: 10.1021/acs.jctc.7b00118
   for GFN0-xTB:
   * P. Pracht, E. Caldeweyher, S. Ehlert, S. Grimme, ChemRxiv, 2019, preprint.
     DOI: 10.26434/chemrxiv.8326202.v1
   for GFN-FF:
   * S. Spicher and S. Grimme, Angew. Chem. Int. Ed., 2020, 59, 15665-15673.
     DOI: 10.1002/anie.202004239
   
   for ALPB and GBSA implicit solvation:
   * S. Ehlert, M. Stahn, S. Spicher, S. Grimme, J. Chem. Theory Comput.,
     2021, 17, 4250-4261. DOI: 10.1021/acs.jctc.1c00471
   
   for ddCOSMO and CPCM-X implicit solvation:
   * M. Stahn, S. Ehlert, S. Grimme, J. Phys. Chem. A,
     2023, XX, XXXX-XXXX. DOI: 10.1021/acs.jpca.3c04382
   
   for DFT-D4:
   * E. Caldeweyher, C. Bannwarth and S. Grimme, J. Chem. Phys., 2017,
     147, 034112. DOI: 10.1063/1.4993215
   * E. Caldeweyher, S. Ehlert, A. Hansen, H. Neugebauer, S. Spicher,
     C. Bannwarth and S. Grimme, J. Chem. Phys., 2019, 150, 154122.
     DOI: 10.1063/1.5090222
   * E. Caldeweyher, J.-M. Mewes, S. Ehlert and S. Grimme, Phys. Chem. Chem. Phys.
     2020, 22, 8499-8512. DOI: 10.1039/D0CP00502A
   
   for sTDA-xTB:
   * S. Grimme and C. Bannwarth, J. Chem. Phys., 2016, 145, 054103.
     DOI: 10.1063/1.4959605
   
   in the mass-spec context:
   * V. Asgeirsson, C. Bauer and S. Grimme, Chem. Sci., 2017, 8, 4879.
     DOI: 10.1039/c7sc00601b
   * J. Koopman and S. Grimme, ACS Omega 2019, 4, 12, 15120-15133.
     DOI: 10.1021/acsomega.9b02011
   
   for metadynamics refer to:
   * S. Grimme, J. Chem. Theory Comput., 2019, 155, 2847-2862
     DOI: 10.1021/acs.jctc.9b00143
   
   for SPH calculations refer to:
   * S. Spicher and S. Grimme, J. Chem. Theory Comput., 2021, 17, 1701-1714
     DOI: 10.1021/acs.jctc.0c01306
   
   for ONIOM refer to:
   * C. Plett, A. Katbashev, S. Ehlert, S. Grimme, M. Bursch,
     Phys. Chem. Chem. Phys., 2023, 25, 17860-17868. DOI: 10.1039/D3CP02178E
   
   for DIPRO refer to:
   * J. Kohn, N. Gildemeister, S. Grimme, D. Fazzi, A. Hansen,
     J. Chem. Phys., 2023, just accepted.
   
   for PTB refer to:
   * S. Grimme, M. Mueller, A. Hansen, J. Chem. Phys., 2023, 158, 124111.
     DOI: 10.1063/5.0137838
   
   with help from (in alphabetical order)
   P. Atkinson, C. Bannwarth, F. Bohle, G. Brandenburg, E. Caldeweyher
   M. Checinski, S. Dohm, S. Ehlert, S. Ehrlich, I. Gerasimov, C. Hölzer
   A. Katbashev, J. Kohn, J. Koopman, C. Lavigne, S. Lehtola, F. März, M. Müller,
   F. Musil, H. Neugebauer, J. Pisarek, C. Plett, P. Pracht, F. Pultar,
   J. Seibert, P. Shushkov, S. Spicher, M. Stahn, M. Steiner, T. Strunk,
   J. Stückrath, T. Rose, and J. Unsleber
   
 * started run on 2025/05/15 at 16:13:08.602     
   ID    Z sym.   atoms
    1    6 C      1, 2, 4-6, 8-12, 14-17, 19-22
    2    7 N      3, 7, 18
    3   17 Cl     13
    4    8 O      23
    5    1 H      24-49

           -------------------------------------------------
          |                Calculation Setup                |
           -------------------------------------------------

          program call               : xtb /rds/general/user/hgt20/home/callum/QDESCP/Hydroxychloroquine_rdkit_conf_3/Hydroxychloroquine_rdkit_conf_3.xyz --opt normal --acc 1 --gfn 2 --chrg 0 --uhf 0 -P 1
          hostname                   : login-c
          coordinate file            : /rds/general/user/hgt20/home/callum/QDESCP/Hydroxychloroquine_rdkit_conf_3/Hydroxychloroquine_rdkit_conf_3.xyz
          omp threads                :                     1


           -------------------------------------------------
          |                 G F N 2 - x T B                 |
           -------------------------------------------------

        Reference                      10.1021/acs.jctc.8b01176
      * Hamiltonian:
        H0-scaling (s, p, d)           1.850000    2.230000    2.230000
        zeta-weighting                 0.500000
      * Dispersion:
        s8                             2.700000
        a1                             0.520000
        a2                             5.000000
        s9                             5.000000
      * Repulsion:
        kExp                           1.500000    1.000000
        rExp                           1.000000
      * Coulomb:
        alpha                          2.000000
        third order                    shell-resolved
        anisotropic                    true
        a3                             3.000000
        a5                             4.000000
        cn-shift                       1.200000
        cn-exp                         4.000000
        max-rad                        5.000000


          ...................................................
          :                      SETUP                      :
          :.................................................:
          :  # basis functions                 124          :
          :  # atomic orbitals                 123          :
          :  # shells                           73          :
          :  # electrons                       126          :
          :  max. iterations                   250          :
          :  Hamiltonian                  GFN2-xTB          :
          :  restarted?                      false          :
          :  GBSA solvation                  false          :
          :  PC potential                    false          :
          :  electronic temp.          300.0000000     K    :
          :  accuracy                    1.0000000          :
          :  -> integral cutoff          0.2500000E+02      :
          :  -> integral neglect         0.1000000E-07      :
          :  -> SCF convergence          0.1000000E-05 Eh   :
          :  -> wf. convergence          0.1000000E-03 e    :
          :  Broyden damping             0.4000000          :
          :  net charge                          0          :
          :  unpaired electrons                  0          :
          ...................................................

 iter      E             dE          RMSdq      gap      omega  full diag
   1    -70.0032166 -0.700032E+02  0.357E+00    2.41       0.0  T
   2    -70.0837723 -0.805557E-01  0.221E+00    2.33       1.0  T
   3    -70.0685244  0.152479E-01  0.119E+00    2.71       1.0  T
   4    -70.0981927 -0.296683E-01  0.397E-01    2.29       1.0  T
   5    -70.1028874 -0.469474E-02  0.122E-01    2.37       1.0  T
   6    -70.1033888 -0.501345E-03  0.556E-02    2.35       1.0  T
   7    -70.1034446 -0.557829E-04  0.276E-02    2.36       1.0  T
   8    -70.1034530 -0.841868E-05  0.123E-02    2.36       1.2  T
   9    -70.1034555 -0.252041E-05  0.725E-03    2.36       2.0  T
  10    -70.1034560 -0.515283E-06  0.528E-03    2.36       2.7  T
  11    -70.1034564 -0.433578E-06  0.300E-03    2.36       4.8  T
  12    -70.1034566 -0.164807E-06  0.163E-03    2.36       8.8  T
  13    -70.1034567 -0.492746E-07  0.795E-04    2.36      18.0  T
  14    -70.1034567 -0.115151E-07  0.425E-04    2.36      33.6  T

   *** convergence criteria satisfied after 14 iterations ***

         #    Occupation            Energy/Eh            Energy/eV
      -------------------------------------------------------------
         1        2.0000           -1.0522870             -28.6342
       ...           ...                  ...                  ...
        57        2.0000           -0.4141073             -11.2684
        58        2.0000           -0.4118449             -11.2069
        59        2.0000           -0.4066868             -11.0665
        60        2.0000           -0.3952838             -10.7562
        61        2.0000           -0.3729722             -10.1491
        62        2.0000           -0.3722138             -10.1285
        63        2.0000           -0.3618366              -9.8461 (HOMO)
        64                         -0.2750930              -7.4857 (LUMO)
        65                         -0.2365107              -6.4358
        66                         -0.2041651              -5.5556
        67                         -0.1598726              -4.3504
        68                         -0.1316358              -3.5820
       ...                                ...                  ...
       123                          0.6620240              18.0146
      -------------------------------------------------------------
                  HL-Gap            0.0867437 Eh            2.3604 eV
             Fermi-level           -0.3184648 Eh           -8.6659 eV

 SCC (total)                   0 d,  0 h,  0 min,  0.075 sec
 SCC setup                      ...        0 min,  0.000 sec (  0.578%)
 Dispersion                     ...        0 min,  0.001 sec (  0.781%)
 classical contributions        ...        0 min,  0.000 sec (  0.256%)
 integral evaluation            ...        0 min,  0.008 sec ( 11.254%)
 iterations                     ...        0 min,  0.037 sec ( 48.815%)
 molecular gradient             ...        0 min,  0.029 sec ( 38.029%)
 printout                       ...        0 min,  0.000 sec (  0.278%)

         :::::::::::::::::::::::::::::::::::::::::::::::::::::
         ::                     SUMMARY                     ::
         :::::::::::::::::::::::::::::::::::::::::::::::::::::
         :: total energy             -69.199716640088 Eh    ::
         :: gradient norm              0.091570533516 Eh/a0 ::
         :: HOMO-LUMO gap              2.360415180294 eV    ::
         ::.................................................::
         :: SCC energy               -70.103541595957 Eh    ::
         :: -> isotropic ES            0.053891313902 Eh    ::
         :: -> anisotropic ES          0.009717940762 Eh    ::
         :: -> anisotropic XC          0.039924665534 Eh    ::
         :: -> dispersion             -0.047544037116 Eh    ::
         :: repulsion energy           0.903824955870 Eh    ::
         :: add. restraining           0.000000000000 Eh    ::
         :: total charge              -0.000000000000 e     ::
         :::::::::::::::::::::::::::::::::::::::::::::::::::::

      ----------------------------------------------------------- 
     |                   =====================                   |
     |                        A N C O P T                        |
     |                   =====================                   |
     |               Approximate Normal Coordinate               |
     |                Rational Function Optimizer                |
      ----------------------------------------------------------- 
      ----------------------------------------------------------- 
     |                   =====================                   |
     |                        A N C O P T                        |
     |                   =====================                   |
     |               Approximate Normal Coordinate               |
     |                Rational Function Optimizer                |
      ----------------------------------------------------------- 

          ...................................................
          :                      SETUP                      :
          :.................................................:
          :   optimization level            normal          :
          :   max. optcycles                   200          :
          :   ANC micro-cycles                  20          :
          :   degrees of freedom               141          :
          :.................................................:
          :   RF solver                   davidson          :
          :   write xtbopt.log                true          :
          :   linear?                        false          :
          :   energy convergence         0.5000000E-05 Eh   :
          :   grad. convergence          0.1000000E-02 Eh/α :
          :   maxmium RF displ.          1.0000000          :
          :   Hlow (freq-cutoff)         0.1000000E-01      :
          :   Hmax (freq-cutoff)         5.0000000          :
          :   S6 in model hess.         20.0000000          :
          ...................................................

generating ANC from exact Hessian ...
Using Lindh-Hessian (1995)
 Shifting diagonal of input Hessian by    9.8516365511746810E-003
 Lowest  eigenvalues of input Hessian
    0.000000    0.000000    0.000000    0.000000    0.000000    0.000000
    0.010000    0.010095    0.010144    0.010734    0.010948    0.011449
    0.011946    0.012595    0.012734    0.014031    0.014103    0.014333
 Highest eigenvalues
    1.823705    1.831384    1.882298    1.980252    2.086208    2.160763


........................................................................
.............................. CYCLE    1 ..............................
........................................................................

 iter      E             dE          RMSdq      gap      omega  full diag
   1    -70.1034567 -0.701035E+02  0.282E-04    2.36       0.0  T
   2    -70.1034567 -0.651625E-09  0.231E-04    2.36      61.8  T
   3    -70.1034567 -0.308788E-09  0.196E-04    2.36      73.0  T
     SCC iter.                  ...        0 min,  0.009 sec
     gradient                   ...        0 min,  0.027 sec
 * total energy  :   -69.1997166 Eh     change       -0.2854961E-08 Eh
   gradient norm :     0.0915709 Eh/α   predicted     0.0000000E+00 (-100.00%)
   displ. norm   :     0.2472566 α      lambda       -0.1055232E-01
   maximum displ.:     0.0671069 α      in ANC's #44, #49, #29, ...

........................................................................
.............................. CYCLE    2 ..............................
........................................................................

 iter      E             dE          RMSdq      gap      omega  full diag
   1    -70.1345346 -0.701345E+02  0.147E-01    2.47       0.0  T
   2    -70.1346407 -0.106135E-03  0.914E-02    2.47       1.0  T
   3    -70.1346378  0.295673E-05  0.509E-02    2.49       1.0  T
   4    -70.1346764 -0.386612E-04  0.125E-02    2.48       1.1  T
   5    -70.1346827 -0.630285E-05  0.410E-03    2.48       3.5  T
   6    -70.1346832 -0.474754E-06  0.165E-03    2.48       8.7  T
   7    -70.1346832 -0.261453E-07  0.556E-04    2.48      25.7  T
   8    -70.1346833 -0.360326E-08  0.292E-04    2.48      48.9  T
     SCC iter.                  ...        0 min,  0.020 sec
     gradient                   ...        0 min,  0.028 sec
 * total energy  :   -69.2069136 Eh     change       -0.7196976E-02 Eh
   gradient norm :     0.0378250 Eh/α   predicted    -0.5600483E-02 ( -22.18%)
   displ. norm   :     0.2334782 α      lambda       -0.3127616E-02
   maximum displ.:     0.0807677 α      in ANC's #9, #22, #15, ...

........................................................................
.............................. CYCLE    3 ..............................
........................................................................

 iter      E             dE          RMSdq      gap      omega  full diag
   1    -70.1507875 -0.701508E+02  0.987E-02    2.56       0.0  T
   2    -70.1508678 -0.803073E-04  0.611E-02    2.55       1.0  T
   3    -70.1508885 -0.207646E-04  0.359E-02    2.57       1.0  T
   4    -70.1509000 -0.114154E-04  0.973E-03    2.56       1.5  T
   5    -70.1509036 -0.360518E-05  0.337E-03    2.56       4.2  T
   6    -70.1509039 -0.319934E-06  0.134E-03    2.56      10.6  T
   7    -70.1509039 -0.158714E-07  0.440E-04    2.56      32.5  T
   8    -70.1509039 -0.298967E-08  0.221E-04    2.56      64.8  T
     SCC iter.                  ...        0 min,  0.020 sec
     gradient                   ...        0 min,  0.043 sec
 * total energy  :   -69.2087372 Eh     change       -0.1823563E-02 Eh
   gradient norm :     0.0111266 Eh/α   predicted    -0.1649766E-02 (  -9.53%)
   displ. norm   :     0.1738826 α      lambda       -0.6021878E-03
   maximum displ.:     0.0759599 α      in ANC's #9, #6, #22, ...

........................................................................
.............................. CYCLE    4 ..............................
........................................................................

 iter      E             dE          RMSdq      gap      omega  full diag
   1    -70.1522870 -0.701523E+02  0.440E-02    2.59       0.0  T
   2    -70.1523013 -0.142833E-04  0.263E-02    2.57       1.0  T
   3    -70.1523041 -0.276976E-05  0.157E-02    2.58       1.0  T
   4    -70.1523081 -0.397585E-05  0.419E-03    2.58       3.4  T
   5    -70.1523087 -0.626633E-06  0.154E-03    2.58       9.3  T
   6    -70.1523087 -0.402738E-07  0.796E-04    2.58      18.0  T
   7    -70.1523087 -0.676074E-08  0.332E-04    2.58      43.1  T
     SCC iter.                  ...        0 min,  0.018 sec
     gradient                   ...        0 min,  0.028 sec
 * total energy  :   -69.2092098 Eh     change       -0.4725884E-03 Eh
   gradient norm :     0.0109089 Eh/α   predicted    -0.3102049E-03 ( -34.36%)
   displ. norm   :     0.3050799 α      lambda       -0.7389777E-03
   maximum displ.:     0.1372796 α      in ANC's #9, #6, #5, ...

........................................................................
.............................. CYCLE    5 ..............................
........................................................................

 iter      E             dE          RMSdq      gap      omega  full diag
   1    -70.1519303 -0.701519E+02  0.665E-02    2.60       0.0  T
   2    -70.1519582 -0.279525E-04  0.399E-02    2.57       1.0  T
   3    -70.1519594 -0.114685E-05  0.236E-02    2.59       1.0  T
   4    -70.1519707 -0.113647E-04  0.616E-03    2.58       2.3  T
   5    -70.1519722 -0.143475E-05  0.225E-03    2.58       6.3  T
   6    -70.1519722 -0.651387E-07  0.121E-03    2.58      11.8  T
   7    -70.1519722 -0.176287E-07  0.448E-04    2.58      31.9  T
   8    -70.1519722 -0.197321E-08  0.331E-04    2.58      43.1  T
     SCC iter.                  ...        0 min,  0.020 sec
     gradient                   ...        0 min,  0.028 sec
 * total energy  :   -69.2097016 Eh     change       -0.4918155E-03 Eh
   gradient norm :     0.0103270 Eh/α   predicted    -0.4038825E-03 ( -17.88%)
   displ. norm   :     0.2236061 α      lambda       -0.3163212E-03
   maximum displ.:     0.0949096 α      in ANC's #9, #5, #6, ...

........................................................................
.............................. CYCLE    6 ..............................
........................................................................

 iter      E             dE          RMSdq      gap      omega  full diag
   1    -70.1522874 -0.701523E+02  0.421E-02    2.59       0.0  T
   2    -70.1522940 -0.657826E-05  0.253E-02    2.57       1.0  T
   3    -70.1522908  0.320018E-05  0.140E-02    2.58       1.0  T
   4    -70.1522966 -0.585079E-05  0.331E-03    2.58       4.3  T
   5    -70.1522970 -0.421281E-06  0.127E-03    2.58      11.2  T
   6    -70.1522971 -0.142401E-07  0.656E-04    2.58      21.8  T
   7    -70.1522971 -0.671821E-08  0.177E-04    2.58      80.7  T
     SCC iter.                  ...        0 min,  0.018 sec
     gradient                   ...        0 min,  0.050 sec
 * total energy  :   -69.2099387 Eh     change       -0.2371505E-03 Eh
   gradient norm :     0.0072976 Eh/α   predicted    -0.1660788E-03 ( -29.97%)
   displ. norm   :     0.2803449 α      lambda       -0.2916622E-03
   maximum displ.:     0.1241449 α      in ANC's #5, #6, #8, ...

........................................................................
.............................. CYCLE    7 ..............................
........................................................................

 iter      E             dE          RMSdq      gap      omega  full diag
   1    -70.1530997 -0.701531E+02  0.522E-02    2.58       0.0  T
   2    -70.1531051 -0.540875E-05  0.308E-02    2.57       1.0  T
   3    -70.1530989  0.619191E-05  0.147E-02    2.58       1.0  T
   4    -70.1531071 -0.819126E-05  0.331E-03    2.57       4.3  T
   5    -70.1531074 -0.364245E-06  0.141E-03    2.58      10.2  T
   6    -70.1531075 -0.139062E-07  0.657E-04    2.58      21.7  T
   7    -70.1531075 -0.804387E-08  0.209E-04    2.58      68.5  T
     SCC iter.                  ...        0 min,  0.018 sec
     gradient                   ...        0 min,  0.028 sec
 * total energy  :   -69.2101512 Eh     change       -0.2124520E-03 Eh
   gradient norm :     0.0050331 Eh/α   predicted    -0.1573023E-03 ( -25.96%)
   displ. norm   :     0.2584013 α      lambda       -0.1932689E-03
   maximum displ.:     0.1205090 α      in ANC's #5, #8, #7, ...

........................................................................
.............................. CYCLE    8 ..............................
........................................................................

 iter      E             dE          RMSdq      gap      omega  full diag
   1    -70.1541501 -0.701542E+02  0.483E-02    2.58       0.0  T
   2    -70.1541525 -0.239748E-05  0.286E-02    2.57       1.0  T
   3    -70.1541490  0.343782E-05  0.102E-02    2.58       1.4  T
   4    -70.1541532 -0.422376E-05  0.246E-03    2.57       5.8  T
   5    -70.1541534 -0.162307E-06  0.114E-03    2.57      12.5  T
   6    -70.1541534 -0.110696E-07  0.518E-04    2.57      27.6  T
   7    -70.1541534 -0.428392E-08  0.289E-04    2.57      49.4  T
     SCC iter.                  ...        0 min,  0.018 sec
     gradient                   ...        0 min,  0.028 sec
 * total energy  :   -69.2102868 Eh     change       -0.1355927E-03 Eh
   gradient norm :     0.0035528 Eh/α   predicted    -0.1031042E-03 ( -23.96%)
   displ. norm   :     0.2073767 α      lambda       -0.1028517E-03
   maximum displ.:     0.0985928 α      in ANC's #5, #8, #7, ...

........................................................................
.............................. CYCLE    9 ..............................
........................................................................

 iter      E             dE          RMSdq      gap      omega  full diag
   1    -70.1547198 -0.701547E+02  0.391E-02    2.57       0.0  T
   2    -70.1547208 -0.105947E-05  0.231E-02    2.57       1.0  T
   3    -70.1547191  0.174892E-05  0.734E-03    2.58       1.9  T
   4    -70.1547212 -0.215720E-05  0.168E-03    2.57       8.5  T
   5    -70.1547213 -0.549238E-07  0.860E-04    2.57      16.6  T
   6    -70.1547213 -0.814157E-08  0.408E-04    2.57      35.0  T
     SCC iter.                  ...        0 min,  0.015 sec
     gradient                   ...        0 min,  0.049 sec
 * total energy  :   -69.2103599 Eh     change       -0.7314482E-04 Eh
   gradient norm :     0.0029660 Eh/α   predicted    -0.5366724E-04 ( -26.63%)
   displ. norm   :     0.1828214 α      lambda       -0.8329686E-04
   maximum displ.:     0.0899410 α      in ANC's #8, #5, #7, ...

........................................................................
.............................. CYCLE   10 ..............................
........................................................................

 iter      E             dE          RMSdq      gap      omega  full diag
   1    -70.1557109 -0.701557E+02  0.340E-02    2.57       0.0  T
   2    -70.1557114 -0.414729E-06  0.202E-02    2.57       1.0  T
   3    -70.1557111  0.249364E-06  0.321E-03    2.57       4.5  T
   4    -70.1557115 -0.391755E-06  0.107E-03    2.57      13.4  T
   5    -70.1557115 -0.126271E-07  0.519E-04    2.57      27.5  T
   6    -70.1557115 -0.213822E-08  0.302E-04    2.57      47.3  T
     SCC iter.                  ...        0 min,  0.015 sec
     gradient                   ...        0 min,  0.028 sec
 * total energy  :   -69.2104108 Eh     change       -0.5091536E-04 Eh
   gradient norm :     0.0051033 Eh/α   predicted    -0.4304595E-04 ( -15.46%)
   displ. norm   :     0.2115561 α      lambda       -0.7746150E-04
   maximum displ.:     0.1030576 α      in ANC's #5, #8, #7, ...

........................................................................
.............................. CYCLE   11 ..............................
........................................................................

 iter      E             dE          RMSdq      gap      omega  full diag
   1    -70.1547982 -0.701548E+02  0.392E-02    2.57       0.0  T
   2    -70.1547990 -0.831416E-06  0.231E-02    2.57       1.0  T
   3    -70.1547976  0.144701E-05  0.657E-03    2.58       2.2  T
   4    -70.1547993 -0.178231E-05  0.144E-03    2.57       9.9  T
   5    -70.1547994 -0.383542E-07  0.763E-04    2.57      18.7  T
   6    -70.1547994 -0.648818E-08  0.312E-04    2.57      45.8  T
     SCC iter.                  ...        0 min,  0.015 sec
     gradient                   ...        0 min,  0.028 sec
 * total energy  :   -69.2104559 Eh     change       -0.4509613E-04 Eh
   gradient norm :     0.0032433 Eh/α   predicted    -0.4046948E-04 ( -10.26%)
   displ. norm   :     0.1114896 α      lambda       -0.5560869E-04
   maximum displ.:     0.0504172 α      in ANC's #5, #7, #4, ...

........................................................................
.............................. CYCLE   12 ..............................
........................................................................

 iter      E             dE          RMSdq      gap      omega  full diag
   1    -70.1550594 -0.701551E+02  0.196E-02    2.57       0.0  T
   2    -70.1550595 -0.139259E-06  0.117E-02    2.57       1.2  T
   3    -70.1550593  0.169678E-06  0.215E-03    2.57       6.6  T
   4    -70.1550596 -0.216504E-06  0.583E-04    2.57      24.5  T
   5    -70.1550596 -0.659502E-08  0.299E-04    2.57      47.8  T
     SCC iter.                  ...        0 min,  0.013 sec
     gradient                   ...        0 min,  0.048 sec
 * total energy  :   -69.2105003 Eh     change       -0.4432687E-04 Eh
   gradient norm :     0.0025552 Eh/α   predicted    -0.2815066E-04 ( -36.49%)
   displ. norm   :     0.1908925 α      lambda       -0.8173142E-04
   maximum displ.:     0.0903382 α      in ANC's #5, #4, #3, ...

........................................................................
.............................. CYCLE   13 ..............................
........................................................................

 iter      E             dE          RMSdq      gap      omega  full diag
   1    -70.1546238 -0.701546E+02  0.336E-02    2.58       0.0  T
   2    -70.1546242 -0.379848E-06  0.201E-02    2.58       1.0  T
   3    -70.1546236  0.523869E-06  0.412E-03    2.58       3.5  T
   4    -70.1546243 -0.669399E-06  0.103E-03    2.58      13.8  T
   5    -70.1546243 -0.147629E-07  0.554E-04    2.58      25.8  T
   6    -70.1546243 -0.434666E-08  0.241E-04    2.58      59.2  T
     SCC iter.                  ...        0 min,  0.017 sec
     gradient                   ...        0 min,  0.029 sec
 * total energy  :   -69.2105555 Eh     change       -0.5521583E-04 Eh
   gradient norm :     0.0025371 Eh/α   predicted    -0.4235523E-04 ( -23.29%)
   displ. norm   :     0.1224445 α      lambda       -0.3754039E-04
   maximum displ.:     0.0595180 α      in ANC's #5, #3, #10, ...

........................................................................
.............................. CYCLE   14 ..............................
........................................................................

 iter      E             dE          RMSdq      gap      omega  full diag
   1    -70.1547114 -0.701547E+02  0.207E-02    2.58       0.0  T
   2    -70.1547116 -0.197796E-06  0.124E-02    2.58       1.2  T
   3    -70.1547113  0.271677E-06  0.302E-03    2.58       4.7  T
   4    -70.1547116 -0.343448E-06  0.778E-04    2.58      18.4  T
   5    -70.1547117 -0.108325E-07  0.414E-04    2.58      34.5  T
     SCC iter.                  ...        0 min,  0.014 sec
     gradient                   ...        0 min,  0.029 sec
 * total energy  :   -69.2105833 Eh     change       -0.2779507E-04 Eh
   gradient norm :     0.0024939 Eh/α   predicted    -0.1905300E-04 ( -31.45%)
   displ. norm   :     0.1427578 α      lambda       -0.3570446E-04
   maximum displ.:     0.0759770 α      in ANC's #5, #4, #3, ...

........................................................................
.............................. CYCLE   15 ..............................
........................................................................

 iter      E             dE          RMSdq      gap      omega  full diag
   1    -70.1546501 -0.701547E+02  0.238E-02    2.58       0.0  T
   2    -70.1546504 -0.282326E-06  0.143E-02    2.58       1.0  T
   3    -70.1546503  0.107273E-06  0.242E-03    2.58       5.9  T
   4    -70.1546505 -0.175562E-06  0.846E-04    2.58      16.9  T
   5    -70.1546505 -0.139963E-07  0.434E-04    2.58      32.9  T
     SCC iter.                  ...        0 min,  0.014 sec
     gradient                   ...        0 min,  0.045 sec
 * total energy  :   -69.2106092 Eh     change       -0.2597238E-04 Eh
   gradient norm :     0.0020843 Eh/α   predicted    -0.1822220E-04 ( -29.84%)
   displ. norm   :     0.1187268 α      lambda       -0.2764227E-04
   maximum displ.:     0.0633988 α      in ANC's #5, #3, #4, ...

........................................................................
.............................. CYCLE   16 ..............................
........................................................................

 iter      E             dE          RMSdq      gap      omega  full diag
   1    -70.1552541 -0.701553E+02  0.188E-02    2.58       0.0  T
   2    -70.1552543 -0.202257E-06  0.112E-02    2.58       1.3  T
   3    -70.1552542  0.118619E-06  0.223E-03    2.58       6.4  T
   4    -70.1552543 -0.176546E-06  0.641E-04    2.58      22.3  T
   5    -70.1552543 -0.665304E-08  0.333E-04    2.58      42.9  T
     SCC iter.                  ...        0 min,  0.014 sec
     gradient                   ...        0 min,  0.029 sec
 * total energy  :   -69.2106275 Eh     change       -0.1826099E-04 Eh
   gradient norm :     0.0012960 Eh/α   predicted    -0.1401770E-04 ( -23.24%)
   displ. norm   :     0.1592289 α      lambda       -0.1448949E-04
   maximum displ.:     0.0853804 α      in ANC's #5, #4, #3, ...

........................................................................
.............................. CYCLE   17 ..............................
........................................................................

 iter      E             dE          RMSdq      gap      omega  full diag
   1    -70.1550550 -0.701551E+02  0.256E-02    2.57       0.0  T
   2    -70.1550553 -0.290257E-06  0.153E-02    2.57       1.0  T
   3    -70.1550551  0.169952E-06  0.273E-03    2.58       5.2  T
   4    -70.1550554 -0.246588E-06  0.864E-04    2.57      16.5  T
   5    -70.1550554 -0.130285E-07  0.444E-04    2.57      32.2  T
     SCC iter.                  ...        0 min,  0.029 sec
     gradient                   ...        0 min,  0.030 sec
 * total energy  :   -69.2106377 Eh     change       -0.1019906E-04 Eh
   gradient norm :     0.0018703 Eh/α   predicted    -0.7326991E-05 ( -28.16%)
   displ. norm   :     0.0506919 α      lambda       -0.1108201E-04
   maximum displ.:     0.0211668 α      in ANC's #17, #9, #2, ...

........................................................................
.............................. CYCLE   18 ..............................
........................................................................

 iter      E             dE          RMSdq      gap      omega  full diag
   1    -70.1562066 -0.701562E+02  0.109E-02    2.57       0.0  T
   2    -70.1562068 -0.161687E-06  0.643E-03    2.57       2.2  T
   3    -70.1562067  0.568737E-07  0.157E-03    2.57       9.1  T
   4    -70.1562068 -0.788117E-07  0.496E-04    2.57      28.8  T
   5    -70.1562068 -0.870210E-08  0.260E-04    2.57      55.0  T
     SCC iter.                  ...        0 min,  0.013 sec
     gradient                   ...        0 min,  0.041 sec
 * total energy  :   -69.2106451 Eh     change       -0.7418795E-05 Eh
   gradient norm :     0.0015696 Eh/α   predicted    -0.5548616E-05 ( -25.21%)
   displ. norm   :     0.0456060 α      lambda       -0.7883763E-05
   maximum displ.:     0.0188056 α      in ANC's #2, #8, #3, ...

........................................................................
.............................. CYCLE   19 ..............................
........................................................................

 iter      E             dE          RMSdq      gap      omega  full diag
   1    -70.1557541 -0.701558E+02  0.836E-03    2.57       0.0  T
   2    -70.1557541 -0.345853E-07  0.494E-03    2.57       2.9  T
   3    -70.1557541  0.148004E-07  0.844E-04    2.57      16.9  T
   4    -70.1557542 -0.236905E-07  0.232E-04    2.57      61.5  T
     SCC iter.                  ...        0 min,  0.011 sec
     gradient                   ...        0 min,  0.029 sec
 * total energy  :   -69.2106538 Eh     change       -0.8642444E-05 Eh
   gradient norm :     0.0008181 Eh/α   predicted    -0.3950017E-05 ( -54.30%)
   displ. norm   :     0.0834140 α      lambda       -0.7212358E-05
   maximum displ.:     0.0420595 α      in ANC's #3, #2, #5, ...

........................................................................
.............................. CYCLE   20 ..............................
........................................................................

 iter      E             dE          RMSdq      gap      omega  full diag
   1    -70.1554021 -0.701554E+02  0.141E-02    2.57       0.0  T
   2    -70.1554022 -0.101340E-06  0.834E-03    2.57       1.7  T
   3    -70.1554021  0.159771E-06  0.213E-03    2.57       6.7  T
   4    -70.1554023 -0.194997E-06  0.519E-04    2.57      27.5  T
   5    -70.1554023 -0.643134E-08  0.247E-04    2.57      57.9  T
     SCC iter.                  ...        0 min,  0.014 sec
     gradient                   ...        0 min,  0.045 sec
 * total energy  :   -69.2106614 Eh     change       -0.7631193E-05 Eh
   gradient norm :     0.0007164 Eh/α   predicted    -0.3621242E-05 ( -52.55%)
   displ. norm   :     0.0765140 α      lambda       -0.4627324E-05
   maximum displ.:     0.0412138 α      in ANC's #3, #2, #1, ...
 * RMSD in coord.:     0.3650023 α      energy gain  -0.1094476E-01 Eh

generating ANC from exact Hessian ...
Using Lindh-Hessian (1995)
 Shifting diagonal of input Hessian by    9.8430524299158353E-003
 Lowest  eigenvalues of input Hessian
    0.000000    0.000000    0.000000    0.000000    0.000000    0.000000
    0.010000    0.010111    0.010162    0.010829    0.010989    0.011496
    0.012091    0.012795    0.012921    0.014440    0.014553    0.014723
 Highest eigenvalues
    1.849437    1.912782    1.958468    2.028888    2.152242    2.197157


........................................................................
.............................. CYCLE   21 ..............................
........................................................................

 iter      E             dE          RMSdq      gap      omega  full diag
   1    -70.1552144 -0.701552E+02  0.129E-02    2.57       0.0  T
   2    -70.1552145 -0.949067E-07  0.759E-03    2.58       1.9  T
   3    -70.1552143  0.175499E-06  0.218E-03    2.57       6.6  T
   4    -70.1552145 -0.211180E-06  0.470E-04    2.57      30.4  T
   5    -70.1552145 -0.542484E-08  0.221E-04    2.57      64.7  T
     SCC iter.                  ...        0 min,  0.014 sec
     gradient                   ...        0 min,  0.038 sec
 * total energy  :   -69.2106665 Eh     change       -0.5102244E-05 Eh
   gradient norm :     0.0007513 Eh/α   predicted     0.0000000E+00 (-100.00%)
   displ. norm   :     0.0148436 α      lambda       -0.1938023E-05
   maximum displ.:     0.0074946 α      in ANC's #2, #3, #7, ...

........................................................................
.............................. CYCLE   22 ..............................
........................................................................

 iter      E             dE          RMSdq      gap      omega  full diag
   1    -70.1554798 -0.701555E+02  0.293E-03    2.57       0.0  T
   2    -70.1554798 -0.842313E-08  0.171E-03    2.57       8.4  T
   3    -70.1554798  0.255393E-08  0.352E-04    2.57      40.6  T
   4    -70.1554798 -0.390094E-08  0.118E-04    2.57     121.2  T
     SCC iter.                  ...        0 min,  0.011 sec
     gradient                   ...        0 min,  0.030 sec
 * total energy  :   -69.2106688 Eh     change       -0.2260265E-05 Eh
   gradient norm :     0.0002829 Eh/α   predicted    -0.9933193E-06 ( -56.05%)
   displ. norm   :     0.0345793 α      lambda       -0.2174186E-05
   maximum displ.:     0.0182720 α      in ANC's #2, #3, #7, ...

   *** GEOMETRY OPTIMIZATION CONVERGED AFTER 22 ITERATIONS ***

------------------------------------------------------------------------
 total energy gain   :        -0.0109521 Eh       -6.8726 kcal/mol
 total RMSD          :         0.3650438 a0        0.1932 Å
 total power (kW/mol):        -1.3070361 (step)  -19.6480 (real)
------------------------------------------------------------------------

 ANCopt (total)                0 d,  0 h,  0 min,  1.464 sec
 optimizer setup                ...        0 min,  0.000 sec (  0.005%)
 model hessian                  ...        0 min,  0.046 sec (  3.140%)
 ANC generation                 ...        0 min,  0.004 sec (  0.292%)
 coordinate transformation      ...        0 min,  0.000 sec (  0.029%)
 single point calculation       ...        0 min,  1.403 sec ( 95.862%)
 optimization log               ...        0 min,  0.005 sec (  0.360%)
 hessian update                 ...        0 min,  0.000 sec (  0.033%)
 rational function              ...        0 min,  0.002 sec (  0.146%)

================
 final structure:
================
49
 xtb: 6.7.1 (edcfbbe)
C            0.88871861721216        2.01353296716717        0.42568948075416
C            0.76737074074947        0.49485027549394        0.57909003490756
N            2.05933838208529       -0.14461990128133        0.44949161248417
C            3.01926919648869       -0.21384239455212        1.40755445024200
C            2.80823424034794        0.18963620834135        2.71929042472761
C            3.82935133501489        0.05048595000616        3.65695662716352
N            5.01481642632647       -0.43807283537518        3.40258582568677
C            5.26402133553306       -0.84509130803408        2.14355368620879
C            4.30620683435512       -0.76472691484245        1.09357677980425
C            4.67769831407687       -1.23287146668266       -0.18089960095063
C            5.92287517024267       -1.74742333653782       -0.42058538223685
C            6.85625634124453       -1.81398456087192        0.62241533202616
Cl           8.42265560568559       -2.46812586520810        0.29182457739271
C            6.54367187060128       -1.37658198172868        1.87805377488047
C           -0.16227980694588       -0.12577305096057       -0.46928289065174
C           -1.61500856674783        0.32117674092262       -0.33310268219521
C           -2.52409688560017       -0.46306973754837       -1.28273463471437
N           -3.89597607646557        0.01050290392214       -1.20542048824094
C           -4.61137206017824       -0.07496125915362       -2.47050288020855
C           -4.29863918917746        1.12330631446598       -3.36171775803762
C           -4.63982424824777       -0.53627205159681       -0.08008356330291
C           -5.56601511569117        0.55369987341927        0.47414544031322
O           -4.83746780992089        1.72347266592704        0.73632664658029
H            1.64647216838789        2.39452698183727        1.10654469388861
H            1.17947200745422        2.26977263883121       -0.59104087092447
H           -0.05475265642078        2.49925092707346        0.65487737963038
H            0.37304600276434        0.26138581444790        1.57351125659416
H            2.36225243723213       -0.28232698147511       -0.50100164452504
H            1.86856936281741        0.61605490900239        3.02895475237936
H            3.66384232833023        0.36773936905338        4.67918878851009
H            3.97632102137799       -1.20303902493972       -1.00277930158437
H            6.19445019704560       -2.10408152660706       -1.40160368560777
H            7.24871274941082       -1.42464086651271        2.69158076258570
H            0.20223925327115        0.12840635002915       -1.46846707357397
H           -0.11369109696225       -1.21278122780520       -0.36334351227110
H           -1.70686801661023        1.38155150112441       -0.56924734005332
H           -1.94388068929651        0.17907241565173        0.69734644582674
H           -2.45366655391742       -1.54126016683442       -1.06213403790323
H           -2.16721207458085       -0.31413844437792       -2.30383116104455
H           -4.37419707454967       -1.01075456020019       -3.00261933511395
H           -5.68229919688089       -0.07935484186048       -2.25885597517540
H           -4.58072602584724        2.04456233451650       -2.85879843417680
H           -4.85486818855941        1.04823639956441       -4.29246757048316
H           -3.23875838288020        1.17215637899751       -3.59762656124655
H           -5.22187792257743       -1.43009486754908       -0.35006716927232
H           -3.93267226933937       -0.81401064517716        0.70292178225381
H           -6.01828084059551        0.23359976227952        1.41520762215342
H           -6.37257204767542        0.76442183400131       -0.24464285139343
H           -4.22915914239084        1.82049830163929       -0.01233177210462

 Bond Distances (Angstroems)
 ---------------------------
C1-C2=1.5312         C1-H24=1.0876        C1-H25=1.0881        C1-H26=1.0856        C2-C1=1.5312         C2-N3=1.4474         
C2-C15=1.5325        C2-H27=1.0949        N3-C2=1.4474         N3-C4=1.3580         N3-H28=1.0071        C4-N3=1.3580         
C4-C5=1.3885         C4-C9=1.4347         C5-C4=1.3885         C5-C6=1.3933         C5-H29=1.0774        C6-C5=1.3933         
C6-N7=1.3072         C6-H30=1.0831        N7-C6=1.3072         N7-C8=1.3465         C8-N7=1.3465         C8-C9=1.4235         
C8-C14=1.4108        C9-C4=1.4347         C9-C8=1.4235         C9-C10=1.4076        C10-C9=1.4076        C10-C11=1.3685       
C10-H31=1.0809       C11-C10=1.3685       C11-C12=1.4012       C11-H32=1.0786       C12-C11=1.4012       C12-Cl13=1.7294      
C12-C14=1.3659       Cl13-C12=1.7294      C14-C8=1.4108        C14-C12=1.3659       C14-H33=1.0776       C15-C2=1.5325        
C15-C16=1.5260       C15-H34=1.0935       C15-H35=1.0932       C16-C15=1.5260       C16-C17=1.5308       C16-H36=1.0902       
C16-H37=1.0910       C17-C16=1.5308       C17-N18=1.4534       C17-H38=1.1028       C17-H39=1.0919       N18-C17=1.4534       
N18-C19=1.4559       N18-C21=1.4556       C19-N18=1.4559       C19-C20=1.5257       C19-H40=1.1023       C19-H41=1.0916       
C20-C19=1.5257       C20-H42=1.0868       C20-H43=1.0869       C20-H44=1.0869       C21-N18=1.4556       C21-C22=1.5340       
C21-H45=1.1003       C21-H46=1.0910       C22-C21=1.5340       C22-O23=1.4028       C22-H47=1.0921       C22-H48=1.1007       
O23-C22=1.4028       O23-H49=0.9695       H24-C1=1.0876        H25-C1=1.0881        H26-C1=1.0856        H27-C2=1.0949        
H28-N3=1.0071        H29-C5=1.0774        H30-C6=1.0831        H31-C10=1.0809       H32-C11=1.0786       H33-C14=1.0776       
H34-C15=1.0935       H35-C15=1.0932       H36-C16=1.0902       H37-C16=1.0910       H38-C17=1.1028       H39-C17=1.0919       
H40-C19=1.1023       H41-C19=1.0916       H42-C20=1.0868       H43-C20=1.0869       H44-C20=1.0869       H45-C21=1.1003       
H46-C21=1.0910       H47-C22=1.0921       H48-C22=1.1007       H49-O23=0.9695       
 C  H  Rav=1.0898 sigma=0.0072  Rmin=1.0774  Rmax=1.1028    24
 C  C  Rav=1.4516 sigma=0.0662  Rmin=1.3659  Rmax=1.5340    15
 N  H  Rav=1.0071 sigma=0.0000  Rmin=1.0071  Rmax=1.0071     1
 N  C  Rav=1.4034 sigma=0.0591  Rmin=1.3072  Rmax=1.4559     7
 O  H  Rav=0.9695 sigma=0.0000  Rmin=0.9695  Rmax=0.9695     1
 O  C  Rav=1.4028 sigma=0.0000  Rmin=1.4028  Rmax=1.4028     1
 Cl C  Rav=1.7294 sigma=0.0000  Rmin=1.7294  Rmax=1.7294     1

 selected bond angles (degree)
 --------------------
H24-C1-C2=109.87               H25-C1-C2=110.39               H25-C1-H24=108.44              H26-C1-C2=110.72               
H26-C1-H24=108.46              H26-C1-H25=108.91              N3-C2-C1=111.01                C15-C2-C1=112.41               
C15-C2-N3=107.54               H27-C2-C1=109.33               H27-C2-N3=107.97               H27-C2-C15=108.45              
C4-N3-C2=126.18                H28-N3-C2=114.42               H28-N3-C4=116.51               C5-C4-N3=122.97                
C9-C4-N3=119.95                C9-C4-C5=117.04                C6-C5-C4=119.69                H29-C5-C4=121.27               
H29-C5-C6=119.03               N7-C6-C5=124.82                H30-C6-C5=119.60               H30-C6-N7=115.58               
C8-N7-C6=117.57                C9-C8-N7=123.24                C14-C8-N7=117.24               C14-C8-C9=119.52               
C8-C9-C4=117.63                C10-C9-C4=124.23               C10-C9-C8=118.13               C11-C10-C9=121.59              
H31-C10-C9=120.53              H31-C10-C11=117.88             

 selected dihedral angles (degree)
 ---------------------------------
N3-C2-C1-H24=307.38           N3-C2-C1-H25= 66.92           N3-C2-C1-H26=187.60           C15-C2-C1-H24=186.88          
C15-C2-C1-H25=306.43          C15-C2-C1-H26= 67.10          H27-C2-C1-H24= 66.39          H27-C2-C1-H25=185.93          
H27-C2-C1-H26=306.61          C4-N3-C2-C1= 78.80            C4-N3-C2-C15=202.14           C4-N3-C2-H27=318.97           
H28-N3-C2-C1=278.86           H28-N3-C2-C15= 42.20          H28-N3-C2-H27=159.04          C5-C4-N3-C2=  8.38            
C5-C4-N3-H28=167.95           C9-C4-N3-C2=186.24            C9-C4-N3-H28=345.80           C6-C5-C4-N3=178.04            
C6-C5-C4-C9=  0.13            H29-C5-C4-N3=357.67           H29-C5-C4-C9=179.76           N7-C6-C5-C4=  0.35            
N7-C6-C5-H29=180.72           H30-C6-C5-C4=179.86           H30-C6-C5-H29=  0.23          C8-N7-C6-C5=359.53            
C8-N7-C6-H30=180.00           C9-C8-N7-C6=  0.11            C14-C8-N7-C6=180.27           C8-C9-C4-N3=181.58            
C8-C9-C4-C5=359.56            C10-C9-C4-N3=  1.35           C10-C9-C4-C5=179.33           C4-C9-C8-N7=  0.34            
C4-C9-C8-C14=180.18           C10-C9-C8-N7=180.56           C10-C9-C8-C14=  0.40          C11-C10-C9-C4=179.92          
C11-C10-C9-C8=359.69          H31-C10-C9-C4=359.38          H31-C10-C9-C8=179.15          
           -------------------------------------------------
          |                Final Singlepoint                |
           -------------------------------------------------

          ...................................................
          :                      SETUP                      :
          :.................................................:
          :  # basis functions                 124          :
          :  # atomic orbitals                 123          :
          :  # shells                           73          :
          :  # electrons                       126          :
          :  max. iterations                   250          :
          :  Hamiltonian                  GFN2-xTB          :
          :  restarted?                      false          :
          :  GBSA solvation                  false          :
          :  PC potential                    false          :
          :  electronic temp.          300.0000000     K    :
          :  accuracy                    1.0000000          :
          :  -> integral cutoff          0.2500000E+02      :
          :  -> integral neglect         0.1000000E-07      :
          :  -> SCF convergence          0.1000000E-05 Eh   :
          :  -> wf. convergence          0.1000000E-03 e    :
          :  Broyden damping             0.4000000          :
          :  net charge                          0          :
          :  unpaired electrons                  0          :
          ...................................................

 iter      E             dE          RMSdq      gap      omega  full diag
   1    -70.1554798 -0.701555E+02  0.668E-05    2.57       0.0  T
   2    -70.1554798 -0.292033E-10  0.494E-05    2.57     289.1  T
   3    -70.1554798 -0.418652E-10  0.368E-05    2.57     388.1  T

   *** convergence criteria satisfied after 3 iterations ***

         #    Occupation            Energy/Eh            Energy/eV
      -------------------------------------------------------------
         1        2.0000           -1.0500023             -28.5720
       ...           ...                  ...                  ...
        57        2.0000           -0.4122088             -11.2168
        58        2.0000           -0.4102687             -11.1640
        59        2.0000           -0.4084741             -11.1151
        60        2.0000           -0.3940697             -10.7232
        61        2.0000           -0.3687501             -10.0342
        62        2.0000           -0.3636195              -9.8946
        63        2.0000           -0.3589252              -9.7669 (HOMO)
        64                         -0.2642989              -7.1919 (LUMO)
        65                         -0.2359340              -6.4201
        66                         -0.1977020              -5.3797
        67                         -0.1525045              -4.1499
        68                         -0.1319956              -3.5918
       ...                                ...                  ...
       123                          0.6831965              18.5907
      -------------------------------------------------------------
                  HL-Gap            0.0946263 Eh            2.5749 eV
             Fermi-level           -0.3116120 Eh           -8.4794 eV

 SCC (total)                   0 d,  0 h,  0 min,  0.049 sec
 SCC setup                      ...        0 min,  0.000 sec (  0.819%)
 Dispersion                     ...        0 min,  0.000 sec (  0.921%)
 classical contributions        ...        0 min,  0.000 sec (  0.410%)
 integral evaluation            ...        0 min,  0.009 sec ( 17.985%)
 iterations                     ...        0 min,  0.009 sec ( 18.194%)
 molecular gradient             ...        0 min,  0.030 sec ( 61.117%)
 printout                       ...        0 min,  0.000 sec (  0.534%)

         :::::::::::::::::::::::::::::::::::::::::::::::::::::
         ::                     SUMMARY                     ::
         :::::::::::::::::::::::::::::::::::::::::::::::::::::
         :: total energy             -69.210668763198 Eh    ::
         :: gradient norm              0.000284152928 Eh/a0 ::
         :: HOMO-LUMO gap              2.574911955939 eV    ::
         ::.................................................::
         :: SCC energy               -70.155536421346 Eh    ::
         :: -> isotropic ES            0.053123083220 Eh    ::
         :: -> anisotropic ES          0.009135649693 Eh    ::
         :: -> anisotropic XC          0.037736843121 Eh    ::
         :: -> dispersion             -0.048164406223 Eh    ::
         :: repulsion energy           0.944867658148 Eh    ::
         :: add. restraining           0.000000000000 Eh    ::
         :: total charge               0.000000000000 e     ::
         :::::::::::::::::::::::::::::::::::::::::::::::::::::

           -------------------------------------------------
          |                Property Printout                |
           -------------------------------------------------

    * Orbital Energies and Occupations

         #    Occupation            Energy/Eh            Energy/eV
      -------------------------------------------------------------
         1        2.0000           -1.0500023             -28.5720
       ...           ...                  ...                  ...
        51        2.0000           -0.4506211             -12.2620
        52        2.0000           -0.4472363             -12.1699
        53        2.0000           -0.4430321             -12.0555
        54        2.0000           -0.4387804             -11.9398
        55        2.0000           -0.4368522             -11.8874
        56        2.0000           -0.4302170             -11.7068
        57        2.0000           -0.4122088             -11.2168
        58        2.0000           -0.4102687             -11.1640
        59        2.0000           -0.4084741             -11.1151
        60        2.0000           -0.3940697             -10.7232
        61        2.0000           -0.3687501             -10.0342
        62        2.0000           -0.3636195              -9.8946
        63        2.0000           -0.3589252              -9.7669 (HOMO)
        64                         -0.2642989              -7.1919 (LUMO)
        65                         -0.2359340              -6.4201
        66                         -0.1977020              -5.3797
        67                         -0.1525045              -4.1499
        68                         -0.1319956              -3.5918
        69                         -0.0675102              -1.8370
        70                         -0.0245068              -0.6669
        71                          0.0008715               0.0237
        72                          0.0215770               0.5871
        73                          0.0264525               0.7198
        74                          0.0265504               0.7225
       ...                                ...                  ...
       123                          0.6831965              18.5907
      -------------------------------------------------------------
                  HL-Gap            0.0946263 Eh            2.5749 eV
             Fermi-level           -0.3116120 Eh           -8.4794 eV

     #   Z          covCN         q      C6AA      α(0)
     1   6 C        3.754    -0.117    22.797     6.808
     2   6 C        3.786     0.045    19.840     6.344
     3   7 N        2.696    -0.172    24.728     7.385
     4   6 C        2.901     0.083    26.140     8.383
     5   6 C        2.913    -0.083    30.065     8.991
     6   6 C        2.906     0.064    26.573     8.452
     7   7 N        1.842    -0.256    27.502     7.772
     8   6 C        2.980     0.093    25.928     8.352
     9   6 C        2.983    -0.028    28.689     8.786
    10   6 C        2.919    -0.036    28.903     8.816
    11   6 C        2.951    -0.046    29.133     8.853
    12   6 C        2.885     0.098    25.830     8.332
    13  17 Cl       0.969    -0.182   104.859    15.666
    14   6 C        2.962    -0.052    29.292     8.877
    15   6 C        3.808    -0.068    21.800     6.646
    16   6 C        3.802    -0.068    21.792     6.646
    17   6 C        3.753     0.009    20.478     6.453
    18   7 N        2.730    -0.187    25.061     7.435
    19   6 C        3.750     0.012    20.432     6.446
    20   6 C        3.752    -0.111    22.674     6.790
    21   6 C        3.750    -0.004    20.717     6.491
    22   6 C        3.676     0.076    19.534     6.332
    23   8 O        1.655    -0.447    21.775     6.299
    24   1 H        0.925     0.047     2.363     2.404
    25   1 H        0.925     0.040     2.445     2.445
    26   1 H        0.925     0.049     2.330     2.387
    27   1 H        0.924     0.049     2.333     2.388
    28   1 H        0.860     0.162     1.320     1.800
    29   1 H        0.926     0.029     2.606     2.524
    30   1 H        0.925     0.034     2.527     2.486
    31   1 H        0.926     0.031     2.571     2.507
    32   1 H        0.926     0.052     2.294     2.369
    33   1 H        0.926     0.073     2.054     2.241
    34   1 H        0.924     0.034     2.529     2.487
    35   1 H        0.924     0.041     2.434     2.440
    36   1 H        0.924     0.047     2.361     2.403
    37   1 H        0.924     0.044     2.402     2.424
    38   1 H        0.923     0.010     2.886     2.657
    39   1 H        0.924     0.037     2.492     2.469
    40   1 H        0.923     0.011     2.880     2.654
    41   1 H        0.924     0.037     2.492     2.469
    42   1 H        0.925     0.046     2.369     2.407
    43   1 H        0.925     0.040     2.445     2.445
    44   1 H        0.925     0.039     2.463     2.454
    45   1 H        0.923     0.013     2.845     2.638
    46   1 H        0.924     0.045     2.383     2.414
    47   1 H        0.924     0.043     2.409     2.427
    48   1 H        0.923     0.019     2.742     2.590
    49   1 H        0.804     0.304     0.709     1.323

 Mol. C6AA /au·bohr⁶  :      25117.533305
 Mol. C8AA /au·bohr⁸  :     598156.962286
 Mol. α(0) /au        :        243.612264


Wiberg/Mayer (AO) data.
largest (>0.10) Wiberg bond orders for each atom

 ---------------------------------------------------------------------------
     #   Z sym  total        # sym  WBO       # sym  WBO       # sym  WBO
 ---------------------------------------------------------------------------
     1   6 C    3.991 --     2 C    0.995    25 H    0.986    24 H    0.984
                            26 H    0.982
     2   6 C    3.973 --     1 C    0.995    15 C    0.991     3 N    0.988
                            27 H    0.957
     3   7 N    3.407 --     4 C    1.219     2 C    0.988    28 H    0.931
     4   6 C    3.970 --     5 C    1.392     3 N    1.219     9 C    1.188
     5   6 C    3.978 --     4 C    1.392     6 C    1.368    29 H    0.965
     6   6 C    3.982 --     7 N    1.503     5 C    1.368    30 H    0.963
     7   7 N    3.047 --     6 C    1.503     8 C    1.283
     8   6 C    3.983 --     7 N    1.283    14 C    1.269     9 C    1.246
     9   6 C    3.986 --    10 C    1.306     8 C    1.246     4 C    1.188
    10   6 C    3.992 --    11 C    1.537     9 C    1.306    31 H    0.958
                            14 C    0.111
    11   6 C    3.987 --    10 C    1.537    12 C    1.302    32 H    0.968
    12   6 C    3.916 --    14 C    1.512    11 C    1.302    13 Cl   0.969
    13  17 Cl   1.100 --    12 C    0.969
    14   6 C    3.986 --    12 C    1.512     8 C    1.269    33 H    0.963
                            10 C    0.111
    15   6 C    3.994 --    16 C    1.006     2 C    0.991    34 H    0.975
                            35 H    0.975
    16   6 C    3.995 --    15 C    1.006    17 C    1.000    36 H    0.975
                            37 H    0.973
    17   6 C    3.987 --    18 N    1.003    16 C    1.000    39 H    0.971
                            38 H    0.967
    18   7 N    3.141 --    21 C    1.004    17 C    1.003    19 C    0.999
    19   6 C    3.986 --    20 C    1.014    18 N    0.999    41 H    0.972
                            40 H    0.969
    20   6 C    3.996 --    19 C    1.014    42 H    0.987    43 H    0.986
                            44 H    0.984
    21   6 C    3.987 --    18 N    1.004    22 C    0.990    46 H    0.970
                            45 H    0.967
    22   6 C    3.965 --    23 O    1.011    21 C    0.990    47 H    0.973
                            48 H    0.966
    23   8 O    1.953 --    22 C    1.011    49 H    0.877
    24   1 H    0.998 --     1 C    0.984
    25   1 H    0.998 --     1 C    0.986
    26   1 H    0.997 --     1 C    0.982
    27   1 H    0.997 --     2 C    0.957
    28   1 H    0.973 --     3 N    0.931
    29   1 H    0.999 --     5 C    0.965
    30   1 H    0.998 --     6 C    0.963
    31   1 H    0.999 --    10 C    0.958
    32   1 H    0.997 --    11 C    0.968
    33   1 H    0.994 --    14 C    0.963
    34   1 H    0.999 --    15 C    0.975
    35   1 H    0.998 --    15 C    0.975
    36   1 H    0.998 --    16 C    0.975
    37   1 H    0.998 --    16 C    0.973
    38   1 H    1.000 --    17 C    0.967
    39   1 H    0.998 --    17 C    0.971
    40   1 H    1.000 --    19 C    0.969
    41   1 H    0.998 --    19 C    0.972
    42   1 H    0.998 --    20 C    0.987
    43   1 H    0.998 --    20 C    0.986
    44   1 H    0.998 --    20 C    0.984
    45   1 H    1.000 --    21 C    0.967
    46   1 H    0.998 --    21 C    0.970
    47   1 H    0.998 --    22 C    0.973
    48   1 H    1.000 --    22 C    0.966
    49   1 H    0.908 --    23 O    0.877
 ---------------------------------------------------------------------------

Topologies differ in total number of bonds
Writing topology from bond orders to xtbtopo.mol

molecular dipole:
                 x           y           z       tot (Debye)
 q only:       -1.884       0.371      -1.257
   full:       -1.955      -0.054      -1.902       6.934
molecular quadrupole (traceless):
                xx          xy          yy          xz          yz          zz
 q only:      -31.893      18.432      14.838      -3.934      -1.339      17.055
  q+dip:      -31.241      20.719      12.981      -7.852       0.481      18.260
   full:      -31.189      22.248      15.582      -8.495      -0.565      15.607

           -------------------------------------------------
          |                Geometry Summary                 |
           -------------------------------------------------

      molecular mass/u    :      335.8721578
   center of mass at/Å    :        1.4740745      -0.3440429       0.3771634
  moments of inertia/u·Å² :        0.8861321E+03   0.7771192E+04   0.8331687E+04
rotational constants/cm⁻¹ :        0.1902384E-01   0.2169247E-02   0.2023316E-02

 * 50 selected distances

     #   Z          #   Z                                           value/Å
     1   6 C        2   6 C                                       1.5312265
     2   6 C        3   7 N                                       1.4473765
     3   7 N        4   6 C                                       1.3579925
     4   6 C        5   6 C                                       1.3885180
     5   6 C        6   6 C                                       1.3932915
     6   6 C        7   7 N                                       1.3071809
     7   7 N        8   6 C                                       1.3464507
     4   6 C        9   6 C                                       1.4346653
     8   6 C        9   6 C                                       1.4234883
     9   6 C       10   6 C                                       1.4076419
    10   6 C       11   6 C                                       1.3684585
    11   6 C       12   6 C                                       1.4012429
    12   6 C       13  17 Cl                                      1.7293925 (max)
     8   6 C       14   6 C                                       1.4108432
    12   6 C       14   6 C                                       1.3658910
     2   6 C       15   6 C                                       1.5324848
    15   6 C       16   6 C                                       1.5260178
    16   6 C       17   6 C                                       1.5307793
    17   6 C       18   7 N                                       1.4533759
    18   7 N       19   6 C                                       1.4558604
    19   6 C       20   6 C                                       1.5257495
    18   7 N       21   6 C                                       1.4555606
    21   6 C       22   6 C                                       1.5339617
    22   6 C       23   8 O                                       1.4028146
     1   6 C       24   1 H                                       1.0876171
     1   6 C       25   1 H                                       1.0880888
     1   6 C       26   1 H                                       1.0856276
     2   6 C       27   1 H                                       1.0949299
     3   7 N       28   1 H                                       1.0070540
     5   6 C       29   1 H                                       1.0773557
     6   6 C       30   1 H                                       1.0830521
    10   6 C       31   1 H                                       1.0808823
    11   6 C       32   1 H                                       1.0785894
    14   6 C       33   1 H                                       1.0775986
    15   6 C       34   1 H                                       1.0935495
    15   6 C       35   1 H                                       1.0932388
    16   6 C       36   1 H                                       1.0902281
    16   6 C       37   1 H                                       1.0909519
    17   6 C       38   1 H                                       1.1027783
    17   6 C       39   1 H                                       1.0918725
    19   6 C       40   1 H                                       1.1023199
    19   6 C       41   1 H                                       1.0916496
    20   6 C       42   1 H                                       1.0868366
    20   6 C       43   1 H                                       1.0868862
    20   6 C       44   1 H                                       1.0869162
    21   6 C       45   1 H                                       1.1002714
    21   6 C       46   1 H                                       1.0910088
    22   6 C       47   1 H                                       1.0920653
    22   6 C       48   1 H                                       1.1007246
    23   8 O       49   1 H                                       0.9695066 (min)

 * 7 distinct bonds (by element types)

   Z      Z             #   av. dist./Å        max./Å        min./Å
   1 H    6 C          24     1.0897933     1.1027783     1.0773557
   6 C    6 C          15     1.4516174     1.5339617     1.3658910
   1 H    7 N           1     1.0070540     1.0070540     1.0070540
   6 C    7 N           7     1.4033996     1.4558604     1.3071809
   1 H    8 O           1     0.9695066     0.9695066     0.9695066
   6 C    8 O           1     1.4028146     1.4028146     1.4028146
   6 C   17 Cl          1     1.7293925     1.7293925     1.7293925


optimized geometry written to: xtbopt.xyz


           -------------------------------------------------
          | TOTAL ENERGY              -69.210668763198 Eh   |
          | GRADIENT NORM               0.000284152928 Eh/α |
          | HOMO-LUMO GAP               2.574911955939 eV   |
           -------------------------------------------------

------------------------------------------------------------------------
 * finished run on 2025/05/15 at 16:13:10.208     
------------------------------------------------------------------------
 total:
 * wall-time:     0 d,  0 h,  0 min,  1.606 sec
 *  cpu-time:     0 d,  0 h,  0 min,  1.362 sec
 * ratio c/w:     0.848 speedup
 SCF:
 * wall-time:     0 d,  0 h,  0 min,  0.076 sec
 *  cpu-time:     0 d,  0 h,  0 min,  0.074 sec
 * ratio c/w:     0.981 speedup
 ANC optimizer:
 * wall-time:     0 d,  0 h,  0 min,  1.514 sec
 *  cpu-time:     0 d,  0 h,  0 min,  1.274 sec
 * ratio c/w:     0.841 speedup



----- Single-point -----
      -----------------------------------------------------------      
     |                   =====================                   |     
     |                           x T B                           |     
     |                   =====================                   |     
     |                         S. Grimme                         |     
     |          Mulliken Center for Theoretical Chemistry        |     
     |                    University of Bonn                     |     
      -----------------------------------------------------------      

   * xtb version 6.7.1 (edcfbbe) compiled by 'conda@3ef47c1a292c' on 2024-11-25

   xtb is free software: you can redistribute it and/or modify it under
   the terms of the GNU Lesser General Public License as published by
   the Free Software Foundation, either version 3 of the License, or
   (at your option) any later version.
   
   xtb is distributed in the hope that it will be useful,
   but WITHOUT ANY WARRANTY; without even the implied warranty of
   MERCHANTABILITY or FITNESS FOR A PARTICULAR PURPOSE.  See the
   GNU Lesser General Public License for more details.
   
   Cite this work as:
   * C. Bannwarth, E. Caldeweyher, S. Ehlert, A. Hansen, P. Pracht,
     J. Seibert, S. Spicher, S. Grimme, WIREs Comput. Mol. Sci., 2020, 11,
     e01493. DOI: 10.1002/wcms.1493
   
   for GFN2-xTB:
   * C. Bannwarth, S. Ehlert and S. Grimme., J. Chem. Theory Comput., 2019,
     15, 1652-1671. DOI: 10.1021/acs.jctc.8b01176
   for GFN1-xTB:
   * S. Grimme, C. Bannwarth, P. Shushkov, J. Chem. Theory Comput., 2017,
     13, 1989-2009. DOI: 10.1021/acs.jctc.7b00118
   for GFN0-xTB:
   * P. Pracht, E. Caldeweyher, S. Ehlert, S. Grimme, ChemRxiv, 2019, preprint.
     DOI: 10.26434/chemrxiv.8326202.v1
   for GFN-FF:
   * S. Spicher and S. Grimme, Angew. Chem. Int. Ed., 2020, 59, 15665-15673.
     DOI: 10.1002/anie.202004239
   
   for ALPB and GBSA implicit solvation:
   * S. Ehlert, M. Stahn, S. Spicher, S. Grimme, J. Chem. Theory Comput.,
     2021, 17, 4250-4261. DOI: 10.1021/acs.jctc.1c00471
   
   for ddCOSMO and CPCM-X implicit solvation:
   * M. Stahn, S. Ehlert, S. Grimme, J. Phys. Chem. A,
     2023, XX, XXXX-XXXX. DOI: 10.1021/acs.jpca.3c04382
   
   for DFT-D4:
   * E. Caldeweyher, C. Bannwarth and S. Grimme, J. Chem. Phys., 2017,
     147, 034112. DOI: 10.1063/1.4993215
   * E. Caldeweyher, S. Ehlert, A. Hansen, H. Neugebauer, S. Spicher,
     C. Bannwarth and S. Grimme, J. Chem. Phys., 2019, 150, 154122.
     DOI: 10.1063/1.5090222
   * E. Caldeweyher, J.-M. Mewes, S. Ehlert and S. Grimme, Phys. Chem. Chem. Phys.
     2020, 22, 8499-8512. DOI: 10.1039/D0CP00502A
   
   for sTDA-xTB:
   * S. Grimme and C. Bannwarth, J. Chem. Phys., 2016, 145, 054103.
     DOI: 10.1063/1.4959605
   
   in the mass-spec context:
   * V. Asgeirsson, C. Bauer and S. Grimme, Chem. Sci., 2017, 8, 4879.
     DOI: 10.1039/c7sc00601b
   * J. Koopman and S. Grimme, ACS Omega 2019, 4, 12, 15120-15133.
     DOI: 10.1021/acsomega.9b02011
   
   for metadynamics refer to:
   * S. Grimme, J. Chem. Theory Comput., 2019, 155, 2847-2862
     DOI: 10.1021/acs.jctc.9b00143
   
   for SPH calculations refer to:
   * S. Spicher and S. Grimme, J. Chem. Theory Comput., 2021, 17, 1701-1714
     DOI: 10.1021/acs.jctc.0c01306
   
   for ONIOM refer to:
   * C. Plett, A. Katbashev, S. Ehlert, S. Grimme, M. Bursch,
     Phys. Chem. Chem. Phys., 2023, 25, 17860-17868. DOI: 10.1039/D3CP02178E
   
   for DIPRO refer to:
   * J. Kohn, N. Gildemeister, S. Grimme, D. Fazzi, A. Hansen,
     J. Chem. Phys., 2023, just accepted.
   
   for PTB refer to:
   * S. Grimme, M. Mueller, A. Hansen, J. Chem. Phys., 2023, 158, 124111.
     DOI: 10.1063/5.0137838
   
   with help from (in alphabetical order)
   P. Atkinson, C. Bannwarth, F. Bohle, G. Brandenburg, E. Caldeweyher
   M. Checinski, S. Dohm, S. Ehlert, S. Ehrlich, I. Gerasimov, C. Hölzer
   A. Katbashev, J. Kohn, J. Koopman, C. Lavigne, S. Lehtola, F. März, M. Müller,
   F. Musil, H. Neugebauer, J. Pisarek, C. Plett, P. Pracht, F. Pultar,
   J. Seibert, P. Shushkov, S. Spicher, M. Stahn, M. Steiner, T. Strunk,
   J. Stückrath, T. Rose, and J. Unsleber
   
 * started run on 2025/05/15 at 16:13:10.234     
   ID    Z sym.   atoms
    1    6 C      1, 2, 4-6, 8-12, 14-17, 19-22
    2    7 N      3, 7, 18
    3   17 Cl     13
    4    8 O      23
    5    1 H      24-49

           -------------------------------------------------
          |                Calculation Setup                |
           -------------------------------------------------

          program call               : xtb /rds/general/user/hgt20/home/callum/QDESCP/Hydroxychloroquine_rdkit_conf_3/Hydroxychloroquine_rdkit_conf_3.xyz --acc 1 --gfn 2 --chrg 0 --uhf 0 --etemp 300 --input /rds/general/user/hgt20/home/callum/QDESCP/Hydroxychloroquine_rdkit_conf_3/Hydroxychloroquine_rdkit_conf_3_xtb.inp -P 1
          hostname                   : login-c
          coordinate file            : /rds/general/user/hgt20/home/callum/QDESCP/Hydroxychloroquine_rdkit_conf_3/Hydroxychloroquine_rdkit_conf_3.xyz
          omp threads                :                     1


           -------------------------------------------------
          |                 G F N 2 - x T B                 |
           -------------------------------------------------

        Reference                      10.1021/acs.jctc.8b01176
      * Hamiltonian:
        H0-scaling (s, p, d)           1.850000    2.230000    2.230000
        zeta-weighting                 0.500000
      * Dispersion:
        s8                             2.700000
        a1                             0.520000
        a2                             5.000000
        s9                             5.000000
      * Repulsion:
        kExp                           1.500000    1.000000
        rExp                           1.000000
      * Coulomb:
        alpha                          2.000000
        third order                    shell-resolved
        anisotropic                    true
        a3                             3.000000
        a5                             4.000000
        cn-shift                       1.200000
        cn-exp                         4.000000
        max-rad                        5.000000

q/qsh data taken from xtbrestart
CAMM data taken from xtbrestart

          ...................................................
          :                      SETUP                      :
          :.................................................:
          :  # basis functions                 124          :
          :  # atomic orbitals                 123          :
          :  # shells                           73          :
          :  # electrons                       126          :
          :  max. iterations                   250          :
          :  Hamiltonian                  GFN2-xTB          :
          :  restarted?                       true          :
          :  GBSA solvation                  false          :
          :  PC potential                    false          :
          :  electronic temp.          300.0000000     K    :
          :  accuracy                    1.0000000          :
          :  -> integral cutoff          0.2500000E+02      :
          :  -> integral neglect         0.1000000E-07      :
          :  -> SCF convergence          0.1000000E-05 Eh   :
          :  -> wf. convergence          0.1000000E-03 e    :
          :  Broyden damping             0.4000000          :
          :  net charge                          0          :
          :  unpaired electrons                  0          :
          ...................................................

 iter      E             dE          RMSdq      gap      omega  full diag
   1    -70.1554798 -0.701555E+02  0.204E-05    2.57       0.0  T
   2    -70.1554798 -0.299849E-11  0.173E-05    2.57     826.5  T
   3    -70.1554798 -0.291323E-11  0.128E-05    2.57    1120.3  T

   *** convergence criteria satisfied after 3 iterations ***

         #    Occupation            Energy/Eh            Energy/eV
      -------------------------------------------------------------
         1        2.0000           -1.0500023             -28.5720
       ...           ...                  ...                  ...
        57        2.0000           -0.4122086             -11.2168
        58        2.0000           -0.4102684             -11.1640
        59        2.0000           -0.4084741             -11.1151
        60        2.0000           -0.3940694             -10.7232
        61        2.0000           -0.3687499             -10.0342
        62        2.0000           -0.3636195              -9.8946
        63        2.0000           -0.3589248              -9.7668 (HOMO)
        64                         -0.2642987              -7.1919 (LUMO)
        65                         -0.2359337              -6.4201
        66                         -0.1977018              -5.3797
        67                         -0.1525043              -4.1499
        68                         -0.1319946              -3.5918
       ...                                ...                  ...
       123                          0.6831968              18.5907
      -------------------------------------------------------------
                  HL-Gap            0.0946262 Eh            2.5749 eV
             Fermi-level           -0.3116118 Eh           -8.4794 eV

 SCC (total)                   0 d,  0 h,  0 min,  0.049 sec
 SCC setup                      ...        0 min,  0.000 sec (  0.977%)
 Dispersion                     ...        0 min,  0.001 sec (  1.414%)
 classical contributions        ...        0 min,  0.000 sec (  0.399%)
 integral evaluation            ...        0 min,  0.009 sec ( 17.811%)
 iterations                     ...        0 min,  0.010 sec ( 20.097%)
 molecular gradient             ...        0 min,  0.029 sec ( 58.763%)
 printout                       ...        0 min,  0.000 sec (  0.524%)

         :::::::::::::::::::::::::::::::::::::::::::::::::::::
         ::                     SUMMARY                     ::
         :::::::::::::::::::::::::::::::::::::::::::::::::::::
         :: total energy             -69.210668763225 Eh    ::
         :: gradient norm              0.000284213341 Eh/a0 ::
         :: HOMO-LUMO gap              2.574909287731 eV    ::
         ::.................................................::
         :: SCC energy               -70.155536421374 Eh    ::
         :: -> isotropic ES            0.053122988285 Eh    ::
         :: -> anisotropic ES          0.009135524521 Eh    ::
         :: -> anisotropic XC          0.037736821795 Eh    ::
         :: -> dispersion             -0.048164404341 Eh    ::
         :: repulsion energy           0.944867658148 Eh    ::
[...]
     DOI: 10.1063/1.4959605
   
   in the mass-spec context:
   * V. Asgeirsson, C. Bauer and S. Grimme, Chem. Sci., 2017, 8, 4879.
     DOI: 10.1039/c7sc00601b
   * J. Koopman and S. Grimme, ACS Omega 2019, 4, 12, 15120-15133.
     DOI: 10.1021/acsomega.9b02011
   
   for metadynamics refer to:
   * S. Grimme, J. Chem. Theory Comput., 2019, 155, 2847-2862
     DOI: 10.1021/acs.jctc.9b00143
   
   for SPH calculations refer to:
   * S. Spicher and S. Grimme, J. Chem. Theory Comput., 2021, 17, 1701-1714
     DOI: 10.1021/acs.jctc.0c01306
   
   for ONIOM refer to:
   * C. Plett, A. Katbashev, S. Ehlert, S. Grimme, M. Bursch,
     Phys. Chem. Chem. Phys., 2023, 25, 17860-17868. DOI: 10.1039/D3CP02178E
   
   for DIPRO refer to:
   * J. Kohn, N. Gildemeister, S. Grimme, D. Fazzi, A. Hansen,
     J. Chem. Phys., 2023, just accepted.
   
   for PTB refer to:
   * S. Grimme, M. Mueller, A. Hansen, J. Chem. Phys., 2023, 158, 124111.
     DOI: 10.1063/5.0137838
   
   with help from (in alphabetical order)
   P. Atkinson, C. Bannwarth, F. Bohle, G. Brandenburg, E. Caldeweyher
   M. Checinski, S. Dohm, S. Ehlert, S. Ehrlich, I. Gerasimov, C. Hölzer
   A. Katbashev, J. Kohn, J. Koopman, C. Lavigne, S. Lehtola, F. März, M. Müller,
   F. Musil, H. Neugebauer, J. Pisarek, C. Plett, P. Pracht, F. Pultar,
   J. Seibert, P. Shushkov, S. Spicher, M. Stahn, M. Steiner, T. Strunk,
   J. Stückrath, T. Rose, and J. Unsleber
   
 * started run on 2025/05/15 at 16:13:12.228     
   ID    Z sym.   atoms
    1    6 C      1, 2, 4-6, 8-12, 14-17, 19-22
    2    7 N      3, 7, 18
    3   17 Cl     13
    4    8 O      23
    5    1 H      24-49

           -------------------------------------------------
          |                Calculation Setup                |
           -------------------------------------------------

          program call               : xtb /rds/general/user/hgt20/home/callum/QDESCP/Hydroxychloroquine_rdkit_conf_3/Hydroxychloroquine_rdkit_conf_3.xyz --acc 1 --gfn 2 --chrg 0 --uhf 2 --etemp 300 --input /rds/general/user/hgt20/home/callum/QDESCP/Hydroxychloroquine_rdkit_conf_3/Hydroxychloroquine_rdkit_conf_3_xtb.inp -P 1
          hostname                   : login-c
          coordinate file            : /rds/general/user/hgt20/home/callum/QDESCP/Hydroxychloroquine_rdkit_conf_3/Hydroxychloroquine_rdkit_conf_3.xyz
          omp threads                :                     1


           -------------------------------------------------
          |                 G F N 2 - x T B                 |
           -------------------------------------------------

        Reference                      10.1021/acs.jctc.8b01176
      * Hamiltonian:
        H0-scaling (s, p, d)           1.850000    2.230000    2.230000
        zeta-weighting                 0.500000
      * Dispersion:
        s8                             2.700000
        a1                             0.520000
        a2                             5.000000
        s9                             5.000000
      * Repulsion:
        kExp                           1.500000    1.000000
        rExp                           1.000000
      * Coulomb:
        alpha                          2.000000
        third order                    shell-resolved
        anisotropic                    true
        a3                             3.000000
        a5                             4.000000
        cn-shift                       1.200000
        cn-exp                         4.000000
        max-rad                        5.000000


          ...................................................
          :                      SETUP                      :
          :.................................................:
          :  # basis functions                 124          :
          :  # atomic orbitals                 123          :
          :  # shells                           73          :
          :  # electrons                       126          :
          :  max. iterations                   250          :
          :  Hamiltonian                  GFN2-xTB          :
          :  restarted?                      false          :
          :  GBSA solvation                  false          :
          :  PC potential                    false          :
          :  electronic temp.          300.0000000     K    :
          :  accuracy                    1.0000000          :
          :  -> integral cutoff          0.2500000E+02      :
          :  -> integral neglect         0.1000000E-07      :
          :  -> SCF convergence          0.1000000E-05 Eh   :
          :  -> wf. convergence          0.1000000E-03 e    :
          :  Broyden damping             0.4000000          :
          :  net charge                          0          :
          :  unpaired electrons                  2          :
          ...................................................

 iter      E             dE          RMSdq      gap      omega  full diag
   1    -69.8654233 -0.698654E+02  0.350E+00    0.48       0.0  T
   2    -69.9158682 -0.504450E-01  0.244E+00    0.87       1.0  T
   3    -69.9373200 -0.214518E-01  0.186E+00    0.67       1.0  T
   4    -70.0177577 -0.804377E-01  0.876E-01    0.74       1.0  T
   5    -70.0352634 -0.175057E-01  0.627E-01    0.70       1.0  T
   6    -70.0334059  0.185748E-02  0.453E-01    0.70       1.0  T
   7    -70.0354627 -0.205685E-02  0.481E-01    0.69       1.0  T
   8    -70.0333762  0.208653E-02  0.406E-01    0.70       1.0  T
   9    -70.0453634 -0.119872E-01  0.228E-01    0.70       1.0  T
  10    -70.0466718 -0.130833E-02  0.135E-01    0.70       1.0  T
  11    -70.0464709  0.200910E-03  0.133E-01    0.70       1.0  T
  12    -70.0475544 -0.108355E-02  0.219E-02    0.70       1.0  T
  13    -70.0475807 -0.262607E-04  0.170E-02    0.70       1.0  T
  14    -70.0475948 -0.141057E-04  0.444E-03    0.70       3.2  T
  15    -70.0475949 -0.178525E-06  0.404E-03    0.70       3.5  T
  16    -70.0475938  0.116322E-05  0.476E-03    0.70       3.0  T
  17    -70.0475956 -0.179236E-05  0.134E-03    0.70      10.6  T
  18    -70.0475956 -0.688701E-07  0.108E-03    0.70      13.3  T
  19    -70.0475957 -0.770281E-07  0.621E-04    0.70      23.0  T
  20    -70.0475957 -0.625150E-09  0.625E-04    0.70      22.9  T

   *** convergence criteria satisfied after 20 iterations ***

         #    Occupation            Energy/Eh            Energy/eV
      -------------------------------------------------------------
         1        2.0000           -1.0399474             -28.2984
       ...           ...                  ...                  ...
        58        2.0000           -0.4036882             -10.9849
        59        2.0000           -0.4016879             -10.9305
        60        2.0000           -0.3839075             -10.4467
        61        1.9730           -0.3727840             -10.1440
        62        1.7657           -0.3705022             -10.0819
        63        1.2612           -0.3683894             -10.0244
        64        1.0000           -0.2544088              -6.9228 (HOMO)
        65        0.0000           -0.2287008              -6.2233 (LUMO)
        66                         -0.1896837              -5.1616
        67                         -0.1440707              -3.9204
        68                         -0.1204020              -3.2763
        69                         -0.0600547              -1.6342
       ...                                ...                  ...
       123                          0.6917683              18.8240
      -------------------------------------------------------------
                  HL-Gap            0.0257080 Eh            0.6996 eV
             Fermi-level           -0.3054659 Eh           -8.3122 eV

 transition dipole moment (au) for excitation:          63          64
     X       Y       Z   
   1.2827  -0.1625   1.1366  total (au/Debye):    1.722   4.376
 dE (eV)             :    3.102
 oscillator strength :  0.31849E+00

 SCC (total)                   0 d,  0 h,  0 min,  0.116 sec
 SCC setup                      ...        0 min,  0.000 sec (  0.375%)
 Dispersion                     ...        0 min,  0.001 sec (  0.530%)
 classical contributions        ...        0 min,  0.000 sec (  0.166%)
 integral evaluation            ...        0 min,  0.008 sec (  7.311%)
 iterations                     ...        0 min,  0.070 sec ( 60.568%)
 molecular gradient             ...        0 min,  0.029 sec ( 24.711%)
 printout                       ...        0 min,  0.007 sec (  6.333%)

         :::::::::::::::::::::::::::::::::::::::::::::::::::::
         ::                     SUMMARY                     ::
         :::::::::::::::::::::::::::::::::::::::::::::::::::::
         :: total energy             -69.102784695397 Eh    ::
         :: gradient norm              0.108784105006 Eh/a0 ::
         :: HOMO-LUMO gap              0.699550133796 eV    ::
         ::.................................................::
         :: SCC energy               -70.047652353545 Eh    ::
         :: -> isotropic ES            0.049897346008 Eh    ::
         :: -> anisotropic ES          0.009264156118 Eh    ::
         :: -> anisotropic XC          0.033698818965 Eh    ::
         :: -> dispersion             -0.048108136116 Eh    ::
         :: repulsion energy           0.944867658148 Eh    ::
         :: add. restraining           0.000000000000 Eh    ::
         :: total charge               0.000000000408 e     ::
         :::::::::::::::::::::::::::::::::::::::::::::::::::::

           -------------------------------------------------
          |                Property Printout                |
           -------------------------------------------------

    * Orbital Energies and Occupations

         #    Occupation            Energy/Eh            Energy/eV
      -------------------------------------------------------------
         1        2.0000           -1.0399474             -28.2984
       ...           ...                  ...                  ...
        52        2.0000           -0.4505148             -12.2591
        53        2.0000           -0.4444722             -12.0947
        54        2.0000           -0.4355718             -11.8525
        55        2.0000           -0.4274836             -11.6324
        56        2.0000           -0.4243020             -11.5458
        57        2.0000           -0.4140660             -11.2673
        58        2.0000           -0.4036882             -10.9849
        59        2.0000           -0.4016879             -10.9305
        60        2.0000           -0.3839075             -10.4467
        61        1.9730           -0.3727840             -10.1440
        62        1.7657           -0.3705022             -10.0819
        63        1.2612           -0.3683894             -10.0244
        64        1.0000           -0.2544088              -6.9228 (HOMO)
        65        0.0000           -0.2287008              -6.2233 (LUMO)
        66                         -0.1896837              -5.1616
        67                         -0.1440707              -3.9204
        68                         -0.1204020              -3.2763
        69                         -0.0600547              -1.6342
        70                         -0.0287658              -0.7828
        71                         -0.0038084              -0.1036
        72                          0.0321149               0.8739
        73                          0.0369647               1.0059
        74                          0.0371019               1.0096
        75                          0.0382062               1.0396
       ...                                ...                  ...
       123                          0.6917683              18.8240
      -------------------------------------------------------------
                  HL-Gap            0.0257080 Eh            0.6996 eV
             Fermi-level           -0.3054659 Eh           -8.3122 eV

     #   Z          covCN         q      C6AA      α(0)
     1   6 C        3.754    -0.116    22.784     6.807
     2   6 C        3.786     0.044    19.853     6.346
     3   7 N        2.696    -0.150    24.241     7.312
     4   6 C        2.901     0.045    26.984     8.517
     5   6 C        2.913    -0.058    29.435     8.897
     6   6 C        2.906     0.035    27.219     8.555
     7   7 N        1.842    -0.204    26.254     7.594
     8   6 C        2.980     0.091    25.978     8.361
     9   6 C        2.983    -0.022    28.549     8.765
    10   6 C        2.919    -0.062    29.545     8.913
    11   6 C        2.951    -0.046    29.153     8.856
    12   6 C        2.885     0.085    26.102     8.376
    13  17 Cl       0.969    -0.190   105.143    15.687
    14   6 C        2.962    -0.065    29.615     8.926
    15   6 C        3.808    -0.069    21.812     6.648
    16   6 C        3.802    -0.067    21.792     6.646
    17   6 C        3.753     0.007    20.511     6.458
    18   7 N        2.730    -0.177    24.819     7.399
    19   6 C        3.750     0.010    20.463     6.451
    20   6 C        3.752    -0.111    22.687     6.792
    21   6 C        3.750    -0.006    20.749     6.496
    22   6 C        3.676     0.075    19.539     6.333
    23   8 O        1.655    -0.445    21.750     6.296
    24   1 H        0.925     0.050     2.323     2.383
    25   1 H        0.925     0.043     2.408     2.427
    26   1 H        0.925     0.051     2.307     2.375
    27   1 H        0.924     0.052     2.290     2.367
    28   1 H        0.860     0.168     1.285     1.775
    29   1 H        0.926     0.033     2.538     2.491
    30   1 H        0.925     0.034     2.534     2.489
    31   1 H        0.926     0.018     2.758     2.597
    32   1 H        0.926     0.043     2.415     2.430
    33   1 H        0.926     0.060     2.195     2.317
    34   1 H        0.924     0.036     2.497     2.471
    35   1 H        0.924     0.043     2.406     2.426
    36   1 H        0.924     0.048     2.349     2.397
    37   1 H        0.924     0.045     2.389     2.417
    38   1 H        0.923     0.015     2.817     2.625
    39   1 H        0.924     0.040     2.455     2.450
    40   1 H        0.923     0.015     2.814     2.623
    41   1 H        0.924     0.039     2.460     2.453
    42   1 H        0.925     0.047     2.356     2.400
    43   1 H        0.925     0.042     2.418     2.432
    44   1 H        0.925     0.040     2.446     2.446
    45   1 H        0.923     0.017     2.780     2.608
    46   1 H        0.924     0.047     2.353     2.399
    47   1 H        0.924     0.045     2.382     2.414
    48   1 H        0.923     0.021     2.720     2.579
    49   1 H        0.804     0.304     0.710     1.324

 Mol. C6AA /au·bohr⁶  :      25098.662033
 Mol. C8AA /au·bohr⁸  :     598147.965579
 Mol. α(0) /au        :        243.547405


Wiberg/Mayer (AO) data.
largest (>0.10) Wiberg bond orders for each atom

 ---------------------------------------------------------------------------
     #   Z sym  total        # sym  WBO       # sym  WBO       # sym  WBO
 ---------------------------------------------------------------------------
     1   6 C    3.981 --     2 C    0.987    25 H    0.986    24 H    0.984
                            26 H    0.981
     2   6 C    3.970 --     3 N    0.995    15 C    0.989     1 C    0.987
                            27 H    0.955
     3   7 N    3.344 --     4 C    1.204     2 C    0.995    28 H    0.929
     4   6 C    3.874 --     5 C    1.233     3 N    1.204     9 C    1.185
     5   6 C    3.863 --     6 C    1.452     4 C    1.233    29 H    0.962
     6   6 C    3.947 --     5 C    1.452     7 N    1.334    30 H    0.957
     7   7 N    2.878 --     6 C    1.334     8 C    1.280
     8   6 C    3.959 --     7 N    1.280    14 C    1.266     9 C    1.228
     9   6 C    3.953 --    10 C    1.312     8 C    1.228     4 C    1.185
    10   6 C    3.899 --    11 C    1.342     9 C    1.312    31 H    0.956
    11   6 C    3.947 --    12 C    1.418    10 C    1.342    32 H    0.969
    12   6 C    3.887 --    11 C    1.418    14 C    1.330    13 Cl   0.960
    13  17 Cl   1.083 --    12 C    0.960
    14   6 C    3.854 --    12 C    1.330     8 C    1.266    33 H    0.964
    15   6 C    3.992 --    16 C    1.006     2 C    0.989    34 H    0.975
                            35 H    0.975
    16   6 C    3.993 --    15 C    1.006    17 C    0.999    36 H    0.975
                            37 H    0.973
    17   6 C    3.984 --    18 N    1.003    16 C    0.999    39 H    0.970
                            38 H    0.966
    18   7 N    3.132 --    21 C    1.004    17 C    1.003    19 C    0.999
    19   6 C    3.983 --    20 C    1.014    18 N    0.999    41 H    0.972
                            40 H    0.967
    20   6 C    3.994 --    19 C    1.014    42 H    0.987    43 H    0.985
                            44 H    0.984
    21   6 C    3.984 --    18 N    1.004    22 C    0.990    46 H    0.970
                            45 H    0.966
    22   6 C    3.963 --    23 O    1.011    21 C    0.990    47 H    0.973
                            48 H    0.966
    23   8 O    1.953 --    22 C    1.011    49 H    0.878
    24   1 H    0.997 --     1 C    0.984
    25   1 H    0.998 --     1 C    0.986
    26   1 H    0.996 --     1 C    0.981
    27   1 H    0.995 --     2 C    0.955
    28   1 H    0.971 --     3 N    0.929
    29   1 H    0.995 --     5 C    0.962
    30   1 H    0.989 --     6 C    0.957
    31   1 H    0.995 --    10 C    0.956
    32   1 H    0.997 --    11 C    0.969
    33   1 H    0.994 --    14 C    0.964
    34   1 H    0.999 --    15 C    0.975
    35   1 H    0.998 --    15 C    0.975
    36   1 H    0.998 --    16 C    0.975
    37   1 H    0.998 --    16 C    0.973
    38   1 H    0.997 --    17 C    0.966
    39   1 H    0.998 --    17 C    0.970
    40   1 H    0.996 --    19 C    0.967
    41   1 H    0.998 --    19 C    0.972
    42   1 H    0.998 --    20 C    0.987
    43   1 H    0.998 --    20 C    0.985
    44   1 H    0.998 --    20 C    0.984
    45   1 H    0.996 --    21 C    0.966
    46   1 H    0.997 --    21 C    0.970
    47   1 H    0.998 --    22 C    0.973
    48   1 H    0.999 --    22 C    0.966
    49   1 H    0.908 --    23 O    0.878
 ---------------------------------------------------------------------------

Topologies differ in total number of bonds
Writing topology from bond orders to xtbtopo.mol

molecular dipole:
                 x           y           z       tot (Debye)
 q only:       -2.870       0.642      -1.205
   full:       -2.931       0.247      -1.758       8.709
molecular quadrupole (traceless):
                xx          xy          yy          xz          yz          zz
 q only:      -39.465      23.154      17.323      -1.767      -1.261      22.141
  q+dip:      -39.661      26.292      15.075      -3.611       0.327      24.586
   full:      -39.484      27.604      17.408      -4.361      -0.514      22.076


           -------------------------------------------------
          | TOTAL ENERGY              -69.102784695397 Eh   |
          | GRADIENT NORM               0.108784105006 Eh/α |
          | HOMO-LUMO GAP               0.699550133796 eV   |
           -------------------------------------------------

------------------------------------------------------------------------
 * finished run on 2025/05/15 at 16:13:12.359     
------------------------------------------------------------------------
 total:
 * wall-time:     0 d,  0 h,  0 min,  0.131 sec
 *  cpu-time:     0 d,  0 h,  0 min,  0.111 sec
 * ratio c/w:     0.849 speedup
 SCF:
 * wall-time:     0 d,  0 h,  0 min,  0.116 sec
 *  cpu-time:     0 d,  0 h,  0 min,  0.098 sec
 * ratio c/w:     0.841 speedup


