49
 energy: -69.210668763198 gnorm: 0.000284152928 xtb: 6.7.1 (edcfbbe)
C            0.88871861721216        2.01353296716717        0.42568948075416
C            0.76737074074947        0.49485027549394        0.57909003490756
N            2.05933838208529       -0.14461990128133        0.44949161248417
C            3.01926919648869       -0.21384239455212        1.40755445024200
C            2.80823424034794        0.18963620834135        2.71929042472761
C            3.82935133501489        0.05048595000616        3.65695662716352
N            5.01481642632647       -0.43807283537518        3.40258582568677
C            5.26402133553306       -0.84509130803408        2.14355368620879
C            4.30620683435512       -0.76472691484245        1.09357677980425
C            4.67769831407687       -1.23287146668266       -0.18089960095063
C            5.92287517024267       -1.74742333653782       -0.42058538223685
C            6.85625634124453       -1.81398456087192        0.62241533202616
Cl           8.42265560568559       -2.46812586520810        0.29182457739271
C            6.54367187060128       -1.37658198172868        1.87805377488047
C           -0.16227980694588       -0.12577305096057       -0.46928289065174
C           -1.61500856674783        0.32117674092262       -0.33310268219521
C           -2.52409688560017       -0.46306973754837       -1.28273463471437
N           -3.89597607646557        0.01050290392214       -1.20542048824094
C           -4.61137206017824       -0.07496125915362       -2.47050288020855
C           -4.29863918917746        1.12330631446598       -3.36171775803762
C           -4.63982424824777       -0.53627205159681       -0.08008356330291
C           -5.56601511569117        0.55369987341927        0.47414544031322
O           -4.83746780992089        1.72347266592704        0.73632664658029
H            1.64647216838789        2.39452698183727        1.10654469388861
H            1.17947200745422        2.26977263883121       -0.59104087092447
H           -0.05475265642078        2.49925092707346        0.65487737963038
H            0.37304600276434        0.26138581444790        1.57351125659416
H            2.36225243723213       -0.28232698147511       -0.50100164452504
H            1.86856936281741        0.61605490900239        3.02895475237936
H            3.66384232833023        0.36773936905338        4.67918878851009
H            3.97632102137799       -1.20303902493972       -1.00277930158437
H            6.19445019704560       -2.10408152660706       -1.40160368560777
H            7.24871274941082       -1.42464086651271        2.69158076258570
H            0.20223925327115        0.12840635002915       -1.46846707357397
H           -0.11369109696225       -1.21278122780520       -0.36334351227110
H           -1.70686801661023        1.38155150112441       -0.56924734005332
H           -1.94388068929651        0.17907241565173        0.69734644582674
H           -2.45366655391742       -1.54126016683442       -1.06213403790323
H           -2.16721207458085       -0.31413844437792       -2.30383116104455
H           -4.37419707454967       -1.01075456020019       -3.00261933511395
H           -5.68229919688089       -0.07935484186048       -2.25885597517540
H           -4.58072602584724        2.04456233451650       -2.85879843417680
H           -4.85486818855941        1.04823639956441       -4.29246757048316
H           -3.23875838288020        1.17215637899751       -3.59762656124655
H           -5.22187792257743       -1.43009486754908       -0.35006716927232
H           -3.93267226933937       -0.81401064517716        0.70292178225381
H           -6.01828084059551        0.23359976227952        1.41520762215342
H           -6.37257204767542        0.76442183400131       -0.24464285139343
H           -4.22915914239084        1.82049830163929       -0.01233177210462
