52
 energy: -76.358826716777 gnorm: 0.000742263674 xtb: 6.7.1 (edcfbbe)
H            0.85409114461337        0.97286665113859       -1.59397126178358
C            0.95319849310621        0.20656913288031       -0.81092999650639
C            2.17091633225416        0.46960698092937        0.00394835281658
N            2.45616040454422        1.66441788653720        0.61382102499851
C            3.63710879748949        1.53962123865317        1.29056470131685
C            4.11184136200357        0.21563349927724        1.09975140582519
C            5.31288044416035       -0.17110256429065        1.69280247303296
C            6.00240781024177        0.74996249870229        2.44921551510176
C            5.52239938392750        2.04968705234433        2.62894031775348
C            4.33801552608220        2.46153409107131        2.05510668626677
C            3.14966320656455       -0.44009849594967        0.27760638978983
C            3.09111971327524       -1.82773273971909       -0.26446061928853
C            1.63718606383458       -2.12827772148900       -0.64256588164457
N            1.12030059609829       -1.06953814655800       -1.49232967344956
C           -0.06053718564981       -1.40686282277870       -2.25401417948267
C           -1.35943835368405       -1.42764057998839       -1.43015699428831
C           -2.56389111865956       -1.77055991761511       -2.30037338259749
C           -3.83585249610742       -1.78236678615655       -1.45840450816035
C           -4.05568155161671       -0.42170070537160       -0.79232349614644
C           -2.83309837238519       -0.03220319679572        0.06197968865248
C           -1.54820290735477       -0.05787407037899       -0.77159009412572
C           -0.31428360581985        0.26435951223607        0.06905770298145
H           -1.65200804416613        0.70355395274995       -1.55132017693982
C           -3.10439313760577        1.34638453128568        0.63827724571397
O           -4.12906582121757        1.29679374559236        1.50051657432677
C           -4.52080745808655        2.53709666355024        2.07356891471928
O           -2.50575827680033        2.35582191865377        0.38597396908397
O           -4.25558642247737        0.60654720254707       -1.73789186116506
H           -1.26420972926161       -2.18775521158590       -0.64537456174618
H            1.88950836666853        2.49346652093444        0.56242626802420
H            5.69094370819205       -1.17368666094075        1.55709400901334
H            6.93546228241211        0.46907523501721        2.91605803017403
H            6.09261320111906        2.74335412923163        3.22940156130947
H            3.96691146365388        3.46671722705055        2.19396947541099
H            3.72314046356102       -1.90784925880006       -1.15334584687861
H            3.44556972692225       -2.55295665930986        0.47095108171295
H            1.58716780037921       -3.06379453518899       -1.20466509258692
H            1.05127181408460       -2.25602118971305        0.28239205953056
H           -0.16138578871181       -0.65862207134938       -3.04845304337000
H            0.09865181286355       -2.37940852081922       -2.72698997273609
H           -2.42257640351580       -2.74544829333516       -2.77173508520874
H           -2.65933005103089       -1.02214118490119       -3.08990563879653
H           -3.76320748259131       -2.54543496628510       -0.68142134337900
H           -4.70123008598901       -2.02144845192411       -2.08330904474221
H           -4.93450430278137       -0.48241031703903       -0.12713017810190
H           -2.76638818854322       -0.73767804160557        0.89616179354261
H           -0.40540380490798        1.26006825461865        0.50068510331377
H           -0.22090670406497       -0.45439387385138        0.88744537168945
H           -5.33958813756740        2.31399593229472        2.75278944870891
H           -3.68453374730699        2.98553762274690        2.61370033553404
H           -4.84527255180533        3.22697045794534        1.29227468687834
H           -4.93108818834312        0.32526504575375       -2.36381825410487
