57
 energy: -90.578107477652 gnorm: 0.000327369093 xtb: 6.7.1 (edcfbbe)
C            3.49412622944753       -2.01400664977554       -0.28699629988644
N            3.56931001184989       -0.57185324069800       -0.39918266698843
C            4.74502998323987        0.03078025997291       -0.11687883572347
N            5.80922110322955       -0.71368413397804        0.07549618924846
C            6.97311595203194       -0.09246497582032        0.33433641924733
C            7.13546721813944        1.25470937172918        0.40666759412298
C            6.00115922421603        2.10643135104617        0.21352448868176
N            4.81705777421418        1.38854315002996       -0.04363025251969
O            5.94476441269997        3.31992133413356        0.25405362226412
C            2.33982063812465        0.17588595962617       -0.61193385953376
C            1.66331817853370        0.53724951837769        0.71941340578395
C            0.39425813800187        1.35396486902049        0.45577186330285
C            1.34049150360402       -0.58132638734647       -1.48784873145771
C            0.08031358451367        0.27110816161000       -1.66420496211503
N           -0.53824748792881        0.63594134354644       -0.40057306206819
C           -1.22845836138093       -0.39545620709491        0.22145841284595
N           -0.99975842240616       -1.67138151920706        0.08365611060278
C           -1.95835171681995       -2.30439499084705        0.83450400385704
C           -2.78929508793861       -1.33716066799719        1.44489531712370
N           -2.29206616977794       -0.11550957483391        1.04705702761625
C           -2.95148911718997        1.16088845229801        1.18951375163396
C           -3.63023923625384        1.53268184785226       -0.10595792571434
C           -3.13200333789019        2.55306211055943       -0.90370461075388
C           -3.73035179278591        2.85831153307599       -2.11293463669010
C           -4.82967964489416        2.12236518360509       -2.51437724776082
F           -5.41855403919123        2.41434317021616       -3.69156112206123
C           -5.34176336523403        1.09416565373983       -1.74369377459731
C           -4.73272125741107        0.80407915178880       -0.53730160056272
C           -3.84038901307132       -1.70192319987680        2.26865536719935
C           -4.04535237229625       -3.05368941176301        2.46919565091770
C           -3.22679117002136       -4.01295579040813        1.87387944020074
C           -2.17625147776858       -3.65818796012477        1.05253028450324
H            4.45392268412306       -2.36453388919787        0.08280806167937
H            3.30005127468932       -2.46721995511751       -1.25931174476665
H            2.70493900429496       -2.30104473575068        0.40833227170475
H            7.80523917743628       -0.76805314274252        0.48345363955597
H            8.08706183435367        1.71238134859840        0.61373786717071
H            4.00159552415292        1.97305564175100       -0.16937168974927
H            2.59211640270443        1.10116466459981       -1.14855818733775
H            1.39007605877343       -0.38290544616715        1.23991960813049
H            2.34354391772967        1.10305522391340        1.35880534199519
H            0.64789605383800        2.29245832635768       -0.04829060248613
H           -0.09057024585049        1.58993511104713        1.40460704792513
H            1.77798098083187       -0.79533358040412       -2.46314269873978
H            1.03340797561227       -1.51238804733915       -1.01451067169039
H            0.31706861790395        1.20575101821286       -2.18317796243749
H           -0.65753375849071       -0.27733923689314       -2.25041412866604
H           -2.22531898482068        1.92878939667054        1.46620155967262
H           -3.68479308874618        1.06668483938679        1.99449699909302
H           -2.26952620247872        3.11444779913804       -0.57901173467535
H           -3.35663815013079        3.65046744603816       -2.74194042302853
H           -6.19899908686202        0.53874647261382       -2.08911236037966
H           -5.11548398318685       -0.00070544491898        0.07291299869713
H           -4.47955087730839       -0.96847373725109        2.73909442054973
H           -4.85871073562038       -3.37536257711140        3.10243049118890
H           -3.42386581482380       -5.05748199649172        2.06397463183673
H           -1.53959945970939       -4.39653321139299        0.59223790410841
