----- Optimization -----
      -----------------------------------------------------------      
     |                   =====================                   |     
     |                           x T B                           |     
     |                   =====================                   |     
     |                         S. Grimme                         |     
     |          Mulliken Center for Theoretical Chemistry        |     
     |                    University of Bonn                     |     
      -----------------------------------------------------------      

   * xtb version 6.7.1 (edcfbbe) compiled by 'conda@3ef47c1a292c' on 2024-11-25

   xtb is free software: you can redistribute it and/or modify it under
   the terms of the GNU Lesser General Public License as published by
   the Free Software Foundation, either version 3 of the License, or
   (at your option) any later version.
   
   xtb is distributed in the hope that it will be useful,
   but WITHOUT ANY WARRANTY; without even the implied warranty of
   MERCHANTABILITY or FITNESS FOR A PARTICULAR PURPOSE.  See the
   GNU Lesser General Public License for more details.
   
   Cite this work as:
   * C. Bannwarth, E. Caldeweyher, S. Ehlert, A. Hansen, P. Pracht,
     J. Seibert, S. Spicher, S. Grimme, WIREs Comput. Mol. Sci., 2020, 11,
     e01493. DOI: 10.1002/wcms.1493
   
   for GFN2-xTB:
   * C. Bannwarth, S. Ehlert and S. Grimme., J. Chem. Theory Comput., 2019,
     15, 1652-1671. DOI: 10.1021/acs.jctc.8b01176
   for GFN1-xTB:
   * S. Grimme, C. Bannwarth, P. Shushkov, J. Chem. Theory Comput., 2017,
     13, 1989-2009. DOI: 10.1021/acs.jctc.7b00118
   for GFN0-xTB:
   * P. Pracht, E. Caldeweyher, S. Ehlert, S. Grimme, ChemRxiv, 2019, preprint.
     DOI: 10.26434/chemrxiv.8326202.v1
   for GFN-FF:
   * S. Spicher and S. Grimme, Angew. Chem. Int. Ed., 2020, 59, 15665-15673.
     DOI: 10.1002/anie.202004239
   
   for ALPB and GBSA implicit solvation:
   * S. Ehlert, M. Stahn, S. Spicher, S. Grimme, J. Chem. Theory Comput.,
     2021, 17, 4250-4261. DOI: 10.1021/acs.jctc.1c00471
   
   for ddCOSMO and CPCM-X implicit solvation:
   * M. Stahn, S. Ehlert, S. Grimme, J. Phys. Chem. A,
     2023, XX, XXXX-XXXX. DOI: 10.1021/acs.jpca.3c04382
   
   for DFT-D4:
   * E. Caldeweyher, C. Bannwarth and S. Grimme, J. Chem. Phys., 2017,
     147, 034112. DOI: 10.1063/1.4993215
   * E. Caldeweyher, S. Ehlert, A. Hansen, H. Neugebauer, S. Spicher,
     C. Bannwarth and S. Grimme, J. Chem. Phys., 2019, 150, 154122.
     DOI: 10.1063/1.5090222
   * E. Caldeweyher, J.-M. Mewes, S. Ehlert and S. Grimme, Phys. Chem. Chem. Phys.
     2020, 22, 8499-8512. DOI: 10.1039/D0CP00502A
   
   for sTDA-xTB:
   * S. Grimme and C. Bannwarth, J. Chem. Phys., 2016, 145, 054103.
     DOI: 10.1063/1.4959605
   
   in the mass-spec context:
   * V. Asgeirsson, C. Bauer and S. Grimme, Chem. Sci., 2017, 8, 4879.
     DOI: 10.1039/c7sc00601b
   * J. Koopman and S. Grimme, ACS Omega 2019, 4, 12, 15120-15133.
     DOI: 10.1021/acsomega.9b02011
   
   for metadynamics refer to:
   * S. Grimme, J. Chem. Theory Comput., 2019, 155, 2847-2862
     DOI: 10.1021/acs.jctc.9b00143
   
   for SPH calculations refer to:
   * S. Spicher and S. Grimme, J. Chem. Theory Comput., 2021, 17, 1701-1714
     DOI: 10.1021/acs.jctc.0c01306
   
   for ONIOM refer to:
   * C. Plett, A. Katbashev, S. Ehlert, S. Grimme, M. Bursch,
     Phys. Chem. Chem. Phys., 2023, 25, 17860-17868. DOI: 10.1039/D3CP02178E
   
   for DIPRO refer to:
   * J. Kohn, N. Gildemeister, S. Grimme, D. Fazzi, A. Hansen,
     J. Chem. Phys., 2023, just accepted.
   
   for PTB refer to:
   * S. Grimme, M. Mueller, A. Hansen, J. Chem. Phys., 2023, 158, 124111.
     DOI: 10.1063/5.0137838
   
   with help from (in alphabetical order)
   P. Atkinson, C. Bannwarth, F. Bohle, G. Brandenburg, E. Caldeweyher
   M. Checinski, S. Dohm, S. Ehlert, S. Ehrlich, I. Gerasimov, C. Hölzer
   A. Katbashev, J. Kohn, J. Koopman, C. Lavigne, S. Lehtola, F. März, M. Müller,
   F. Musil, H. Neugebauer, J. Pisarek, C. Plett, P. Pracht, F. Pultar,
   J. Seibert, P. Shushkov, S. Spicher, M. Stahn, M. Steiner, T. Strunk,
   J. Stückrath, T. Rose, and J. Unsleber
   
 * started run on 2025/05/15 at 16:28:20.715     
   ID    Z sym.   atoms
    1    6 C      1-5, 7-11, 13, 14, 16-18, 20-23
    2    7 N      6
    3   17 Cl     12
    4    8 O      15, 19, 24, 25
    5    1 H      26-41

           -------------------------------------------------
          |                Calculation Setup                |
           -------------------------------------------------

          program call               : xtb /rds/general/user/hgt20/home/callum/QDESCP/Indomethacin_rdkit_conf_5/Indomethacin_rdkit_conf_5.xyz --opt normal --acc 1 --gfn 2 --chrg 0 --uhf 0 -P 1
          hostname                   : login-c
          coordinate file            : /rds/general/user/hgt20/home/callum/QDESCP/Indomethacin_rdkit_conf_5/Indomethacin_rdkit_conf_5.xyz
          omp threads                :                     1


           -------------------------------------------------
          |                 G F N 2 - x T B                 |
           -------------------------------------------------

        Reference                      10.1021/acs.jctc.8b01176
      * Hamiltonian:
        H0-scaling (s, p, d)           1.850000    2.230000    2.230000
        zeta-weighting                 0.500000
      * Dispersion:
        s8                             2.700000
        a1                             0.520000
        a2                             5.000000
        s9                             5.000000
      * Repulsion:
        kExp                           1.500000    1.000000
        rExp                           1.000000
      * Coulomb:
        alpha                          2.000000
        third order                    shell-resolved
        anisotropic                    true
        a3                             3.000000
        a5                             4.000000
        cn-shift                       1.200000
        cn-exp                         4.000000
        max-rad                        5.000000


          ...................................................
          :                      SETUP                      :
          :.................................................:
          :  # basis functions                 122          :
          :  # atomic orbitals                 121          :
          :  # shells                           67          :
          :  # electrons                       128          :
          :  max. iterations                   250          :
          :  Hamiltonian                  GFN2-xTB          :
          :  restarted?                      false          :
          :  GBSA solvation                  false          :
          :  PC potential                    false          :
          :  electronic temp.          300.0000000     K    :
          :  accuracy                    1.0000000          :
          :  -> integral cutoff          0.2500000E+02      :
          :  -> integral neglect         0.1000000E-07      :
          :  -> SCF convergence          0.1000000E-05 Eh   :
          :  -> wf. convergence          0.1000000E-03 e    :
          :  Broyden damping             0.4000000          :
          :  net charge                          0          :
          :  unpaired electrons                  0          :
          ...................................................

 iter      E             dE          RMSdq      gap      omega  full diag
   1    -73.3961474 -0.733961E+02  0.453E+00    2.71       0.0  T
   2    -73.5050172 -0.108870E+00  0.259E+00    2.16       1.0  T
   3    -73.4987966  0.622067E-02  0.148E+00    2.61       1.0  T
   4    -73.5226900 -0.238935E-01  0.534E-01    2.17       1.0  T
   5    -73.5317450 -0.905495E-02  0.147E-01    2.31       1.0  T
   6    -73.5322902 -0.545217E-03  0.613E-02    2.30       1.0  T
   7    -73.5323165 -0.263156E-04  0.316E-02    2.30       1.0  T
   8    -73.5323296 -0.130834E-04  0.151E-02    2.30       1.0  T
   9    -73.5323324 -0.279283E-05  0.954E-03    2.30       1.6  T
  10    -73.5323332 -0.768650E-06  0.690E-03    2.30       2.3  T
  11    -73.5323339 -0.732844E-06  0.466E-03    2.30       3.3  T
  12    -73.5323343 -0.429502E-06  0.195E-03    2.30       8.0  T
  13    -73.5323344 -0.621648E-07  0.995E-04    2.30      15.7  T
  14    -73.5323344 -0.164416E-07  0.430E-04    2.30      36.4  T

   *** convergence criteria satisfied after 14 iterations ***

         #    Occupation            Energy/Eh            Energy/eV
      -------------------------------------------------------------
         1        2.0000           -1.0658809             -29.0041
       ...           ...                  ...                  ...
        58        2.0000           -0.4284588             -11.6590
        59        2.0000           -0.4279712             -11.6457
        60        2.0000           -0.4196418             -11.4190
        61        2.0000           -0.4135126             -11.2523
        62        2.0000           -0.4065044             -11.0615
        63        2.0000           -0.3785269             -10.3002
        64        2.0000           -0.3700693             -10.0701 (HOMO)
        65                         -0.2854815              -7.7683 (LUMO)
        66                         -0.2569145              -6.9910
        67                         -0.2488963              -6.7728
        68                         -0.2437032              -6.6315
        69                         -0.2328996              -6.3375
       ...                                ...                  ...
       121                          0.6818303              18.5535
      -------------------------------------------------------------
                  HL-Gap            0.0845878 Eh            2.3018 eV
             Fermi-level           -0.3277754 Eh           -8.9192 eV

 SCC (total)                   0 d,  0 h,  0 min,  0.075 sec
 SCC setup                      ...        0 min,  0.000 sec (  0.486%)
 Dispersion                     ...        0 min,  0.000 sec (  0.582%)
 classical contributions        ...        0 min,  0.000 sec (  0.186%)
 integral evaluation            ...        0 min,  0.008 sec ( 11.259%)
 iterations                     ...        0 min,  0.034 sec ( 45.645%)
 molecular gradient             ...        0 min,  0.031 sec ( 41.558%)
 printout                       ...        0 min,  0.000 sec (  0.275%)

         :::::::::::::::::::::::::::::::::::::::::::::::::::::
         ::                     SUMMARY                     ::
         :::::::::::::::::::::::::::::::::::::::::::::::::::::
         :: total energy             -72.614049410288 Eh    ::
         :: gradient norm              0.097150754131 Eh/a0 ::
         :: HOMO-LUMO gap              2.301751607635 eV    ::
         ::.................................................::
         :: SCC energy               -73.532152086093 Eh    ::
         :: -> isotropic ES            0.099319490245 Eh    ::
         :: -> anisotropic ES          0.003597152537 Eh    ::
         :: -> anisotropic XC          0.020473753083 Eh    ::
         :: -> dispersion             -0.047880410474 Eh    ::
         :: repulsion energy           0.918102675805 Eh    ::
         :: add. restraining           0.000000000000 Eh    ::
         :: total charge              -0.000000000000 e     ::
         :::::::::::::::::::::::::::::::::::::::::::::::::::::

      ----------------------------------------------------------- 
     |                   =====================                   |
     |                        A N C O P T                        |
     |                   =====================                   |
     |               Approximate Normal Coordinate               |
     |                Rational Function Optimizer                |
      ----------------------------------------------------------- 
      ----------------------------------------------------------- 
     |                   =====================                   |
     |                        A N C O P T                        |
     |                   =====================                   |
     |               Approximate Normal Coordinate               |
     |                Rational Function Optimizer                |
      ----------------------------------------------------------- 

          ...................................................
          :                      SETUP                      :
          :.................................................:
          :   optimization level            normal          :
          :   max. optcycles                   200          :
          :   ANC micro-cycles                  20          :
          :   degrees of freedom               117          :
          :.................................................:
          :   RF solver                   davidson          :
          :   write xtbopt.log                true          :
          :   linear?                        false          :
          :   energy convergence         0.5000000E-05 Eh   :
          :   grad. convergence          0.1000000E-02 Eh/α :
          :   maxmium RF displ.          1.0000000          :
          :   Hlow (freq-cutoff)         0.1000000E-01      :
          :   Hmax (freq-cutoff)         5.0000000          :
          :   S6 in model hess.         20.0000000          :
          ...................................................

generating ANC from exact Hessian ...
Using Lindh-Hessian (1995)
 Shifting diagonal of input Hessian by    9.5868281181077375E-003
 Lowest  eigenvalues of input Hessian
    0.000000    0.000000    0.000000    0.000000    0.000000    0.000000
    0.010000    0.010162    0.010405    0.010645    0.010965    0.011637
    0.012697    0.013636    0.013910    0.014775    0.016254    0.016827
 Highest eigenvalues
    1.923495    1.998888    2.049911    2.087577    2.202212    2.259085


........................................................................
.............................. CYCLE    1 ..............................
........................................................................

 iter      E             dE          RMSdq      gap      omega  full diag
   1    -73.5323344 -0.735323E+02  0.196E-04    2.30       0.0  T
   2    -73.5323344 -0.294008E-09  0.134E-04    2.30     116.8  T
   3    -73.5323344 -0.299622E-09  0.875E-05    2.30     178.5  T
     SCC iter.                  ...        0 min,  0.008 sec
     gradient                   ...        0 min,  0.024 sec
 * total energy  :   -72.6140494 Eh     change       -0.1934183E-08 Eh
   gradient norm :     0.0971490 Eh/α   predicted     0.0000000E+00 (-100.00%)
   displ. norm   :     0.3236597 α      lambda       -0.1396732E-01
   maximum displ.:     0.1307974 α      in ANC's #23, #29, #7, ...

........................................................................
.............................. CYCLE    2 ..............................
........................................................................

 iter      E             dE          RMSdq      gap      omega  full diag
   1    -73.5812288 -0.735812E+02  0.212E-01    2.41       0.0  T
   2    -73.5813272 -0.984359E-04  0.127E-01    2.43       1.0  T
   3    -73.5812854  0.418098E-04  0.476E-02    2.43       1.0  T
   4    -73.5813428 -0.573350E-04  0.102E-02    2.44       1.5  T
   5    -73.5813464 -0.362557E-05  0.412E-03    2.43       3.8  T
   6    -73.5813468 -0.425833E-06  0.222E-03    2.43       7.0  T
   7    -73.5813469 -0.504227E-07  0.113E-03    2.43      13.8  T
   8    -73.5813469 -0.201009E-07  0.527E-04    2.43      29.6  T
   9    -73.5813469 -0.250719E-08  0.329E-04    2.43      47.5  T
     SCC iter.                  ...        0 min,  0.038 sec
     gradient                   ...        0 min,  0.024 sec
 * total energy  :   -72.6238227 Eh     change       -0.9773310E-02 Eh
   gradient norm :     0.0392712 Eh/α   predicted    -0.7725416E-02 ( -20.95%)
   displ. norm   :     0.3277447 α      lambda       -0.4829210E-02
   maximum displ.:     0.1275464 α      in ANC's #23, #7, #14, ...

........................................................................
.............................. CYCLE    3 ..............................
........................................................................

 iter      E             dE          RMSdq      gap      omega  full diag
   1    -73.6070795 -0.736071E+02  0.145E-01    2.52       0.0  T
   2    -73.6071202 -0.406964E-04  0.861E-02    2.53       1.0  T
   3    -73.6071014  0.188726E-04  0.321E-02    2.53       1.0  T
   4    -73.6071283 -0.269851E-04  0.636E-03    2.54       2.5  T
   5    -73.6071295 -0.117458E-05  0.310E-03    2.54       5.0  T
   6    -73.6071298 -0.231997E-06  0.154E-03    2.54      10.1  T
   7    -73.6071298 -0.225529E-07  0.741E-04    2.54      21.1  T
   8    -73.6071298 -0.917998E-08  0.383E-04    2.54      40.8  T
     SCC iter.                  ...        0 min,  0.019 sec
     gradient                   ...        0 min,  0.038 sec
 * total energy  :   -72.6266845 Eh     change       -0.2861737E-02 Eh
   gradient norm :     0.0109315 Eh/α   predicted    -0.2675246E-02 (  -6.52%)
   displ. norm   :     0.2048999 α      lambda       -0.7417829E-03
   maximum displ.:     0.1103889 α      in ANC's #7, #9, #14, ...

........................................................................
.............................. CYCLE    4 ..............................
........................................................................

 iter      E             dE          RMSdq      gap      omega  full diag
   1    -73.6090357 -0.736090E+02  0.554E-02    2.55       0.0  T
   2    -73.6090397 -0.401603E-05  0.332E-02    2.56       1.0  T
   3    -73.6090367  0.304007E-05  0.113E-02    2.55       1.4  T
   4    -73.6090405 -0.381468E-05  0.297E-03    2.56       5.3  T
   5    -73.6090408 -0.295587E-06  0.114E-03    2.56      13.7  T
   6    -73.6090408 -0.182802E-07  0.586E-04    2.56      26.6  T
   7    -73.6090408 -0.266581E-08  0.231E-04    2.56      67.6  T
     SCC iter.                  ...        0 min,  0.017 sec
     gradient                   ...        0 min,  0.025 sec
 * total energy  :   -72.6272120 Eh     change       -0.5275544E-03 Eh
   gradient norm :     0.0077090 Eh/α   predicted    -0.3864677E-03 ( -26.74%)
   displ. norm   :     0.2341433 α      lambda       -0.4520846E-03
   maximum displ.:     0.1413654 α      in ANC's #7, #9, #2, ...

........................................................................
.............................. CYCLE    5 ..............................
........................................................................

 iter      E             dE          RMSdq      gap      omega  full diag
   1    -73.6085345 -0.736085E+02  0.567E-02    2.55       0.0  T
   2    -73.6085378 -0.322307E-05  0.337E-02    2.55       1.0  T
   3    -73.6085363  0.141765E-05  0.833E-03    2.55       1.9  T
   4    -73.6085382 -0.186228E-05  0.242E-03    2.55       6.4  T
   5    -73.6085384 -0.155038E-06  0.113E-03    2.55      13.9  T
   6    -73.6085384 -0.972881E-08  0.722E-04    2.55      21.6  T
   7    -73.6085384 -0.516226E-08  0.405E-04    2.55      38.6  T
     SCC iter.                  ...        0 min,  0.017 sec
     gradient                   ...        0 min,  0.033 sec
 * total energy  :   -72.6275054 Eh     change       -0.2933743E-03 Eh
   gradient norm :     0.0045871 Eh/α   predicted    -0.2385609E-03 ( -18.68%)
   displ. norm   :     0.1719083 α      lambda       -0.1698649E-03
   maximum displ.:     0.1039549 α      in ANC's #7, #2, #3, ...

........................................................................
.............................. CYCLE    6 ..............................
........................................................................

 iter      E             dE          RMSdq      gap      omega  full diag
   1    -73.6081031 -0.736081E+02  0.387E-02    2.54       0.0  T
   2    -73.6081037 -0.610234E-06  0.228E-02    2.54       1.0  T
   3    -73.6081032  0.504189E-06  0.417E-03    2.54       3.7  T
   4    -73.6081039 -0.682563E-06  0.116E-03    2.54      13.4  T
   5    -73.6081039 -0.175494E-07  0.780E-04    2.54      20.0  T
   6    -73.6081039 -0.556501E-08  0.499E-04    2.54      31.3  T
     SCC iter.                  ...        0 min,  0.015 sec
     gradient                   ...        0 min,  0.024 sec
 * total energy  :   -72.6276290 Eh     change       -0.1236117E-03 Eh
   gradient norm :     0.0038172 Eh/α   predicted    -0.8744262E-04 ( -29.26%)
   displ. norm   :     0.2087023 α      lambda       -0.1576550E-03
   maximum displ.:     0.1101628 α      in ANC's #7, #4, #2, ...

........................................................................
.............................. CYCLE    7 ..............................
........................................................................

 iter      E             dE          RMSdq      gap      omega  full diag
   1    -73.6078369 -0.736078E+02  0.484E-02    2.53       0.0  T
   2    -73.6078378 -0.926228E-06  0.286E-02    2.52       1.0  T
   3    -73.6078359  0.191549E-05  0.733E-03    2.52       2.1  T
   4    -73.6078381 -0.225068E-05  0.168E-03    2.52       9.3  T
   5    -73.6078382 -0.689781E-07  0.929E-04    2.52      16.8  T
   6    -73.6078382 -0.816773E-08  0.558E-04    2.52      28.0  T
     SCC iter.                  ...        0 min,  0.015 sec
     gradient                   ...        0 min,  0.024 sec
 * total energy  :   -72.6277479 Eh     change       -0.1188719E-03 Eh
   gradient norm :     0.0044493 Eh/α   predicted    -0.8226328E-04 ( -30.80%)
   displ. norm   :     0.2617555 α      lambda       -0.1620070E-03
   maximum displ.:     0.1177989 α      in ANC's #7, #4, #2, ...

........................................................................
.............................. CYCLE    8 ..............................
........................................................................

 iter      E             dE          RMSdq      gap      omega  full diag
   1    -73.6076967 -0.736077E+02  0.630E-02    2.50       0.0  T
   2    -73.6076988 -0.213648E-05  0.371E-02    2.50       1.0  T
   3    -73.6076962  0.258970E-05  0.901E-03    2.50       1.7  T
   4    -73.6076992 -0.297144E-05  0.255E-03    2.49       6.1  T
   5    -73.6076994 -0.217537E-06  0.104E-03    2.49      15.0  T
   6    -73.6076994 -0.892062E-08  0.622E-04    2.49      25.1  T
   7    -73.6076994 -0.393116E-08  0.273E-04    2.49      57.1  T
     SCC iter.                  ...        0 min,  0.017 sec
     gradient                   ...        0 min,  0.040 sec
 * total energy  :   -72.6278674 Eh     change       -0.1194789E-03 Eh
   gradient norm :     0.0050349 Eh/α   predicted    -0.8655558E-04 ( -27.56%)
   displ. norm   :     0.2467952 α      lambda       -0.1305504E-03
   maximum displ.:     0.1138231 α      in ANC's #4, #2, #5, ...

........................................................................
.............................. CYCLE    9 ..............................
........................................................................

 iter      E             dE          RMSdq      gap      omega  full diag
   1    -73.6079595 -0.736080E+02  0.643E-02    2.48       0.0  T
   2    -73.6079622 -0.270885E-05  0.378E-02    2.47       1.0  T
   3    -73.6079592  0.305709E-05  0.989E-03    2.48       1.6  T
   4    -73.6079625 -0.337798E-05  0.305E-03    2.47       5.1  T
   5    -73.6079629 -0.332260E-06  0.109E-03    2.47      14.3  T
   6    -73.6079629 -0.747505E-08  0.714E-04    2.47      21.9  T
   7    -73.6079629 -0.574983E-08  0.360E-04    2.47      43.3  T
     SCC iter.                  ...        0 min,  0.017 sec
     gradient                   ...        0 min,  0.024 sec
 * total energy  :   -72.6279618 Eh     change       -0.9442740E-04 Eh
   gradient norm :     0.0039871 Eh/α   predicted    -0.6925215E-04 ( -26.66%)
   displ. norm   :     0.1829596 α      lambda       -0.8291581E-04
   maximum displ.:     0.0913169 α      in ANC's #4, #2, #5, ...

........................................................................
.............................. CYCLE   10 ..............................
........................................................................

 iter      E             dE          RMSdq      gap      omega  full diag
   1    -73.6088733 -0.736089E+02  0.522E-02    2.47       0.0  T
   2    -73.6088751 -0.184716E-05  0.307E-02    2.47       1.0  T
   3    -73.6088732  0.190715E-05  0.767E-03    2.47       2.0  T
   4    -73.6088753 -0.208890E-05  0.253E-03    2.47       6.2  T
   5    -73.6088755 -0.223864E-06  0.946E-04    2.47      16.5  T
   6    -73.6088755 -0.568224E-08  0.646E-04    2.47      24.2  T
     SCC iter.                  ...        0 min,  0.015 sec
     gradient                   ...        0 min,  0.039 sec
 * total energy  :   -72.6280186 Eh     change       -0.5682850E-04 Eh
   gradient norm :     0.0021755 Eh/α   predicted    -0.4284684E-04 ( -24.60%)
   displ. norm   :     0.1156234 α      lambda       -0.3568756E-04
   maximum displ.:     0.0622966 α      in ANC's #4, #2, #5, ...

........................................................................
.............................. CYCLE   11 ..............................
........................................................................

 iter      E             dE          RMSdq      gap      omega  full diag
   1    -73.6092915 -0.736093E+02  0.347E-02    2.47       0.0  T
   2    -73.6092920 -0.511970E-06  0.205E-02    2.46       1.0  T
   3    -73.6092910  0.947701E-06  0.498E-03    2.47       3.1  T
   4    -73.6092921 -0.107036E-05  0.124E-03    2.46      12.6  T
   5    -73.6092922 -0.442509E-07  0.570E-04    2.46      27.4  T
   6    -73.6092922 -0.219656E-08  0.364E-04    2.46      42.9  T
     SCC iter.                  ...        0 min,  0.015 sec
     gradient                   ...        0 min,  0.025 sec
 * total energy  :   -72.6280440 Eh     change       -0.2540257E-04 Eh
   gradient norm :     0.0015889 Eh/α   predicted    -0.1808444E-04 ( -28.81%)
   displ. norm   :     0.1395738 α      lambda       -0.2324584E-04
   maximum displ.:     0.0753734 α      in ANC's #4, #2, #5, ...

........................................................................
.............................. CYCLE   12 ..............................
........................................................................

 iter      E             dE          RMSdq      gap      omega  full diag
   1    -73.6095779 -0.736096E+02  0.430E-02    2.47       0.0  T
   2    -73.6095783 -0.391762E-06  0.254E-02    2.47       1.0  T
   3    -73.6095771  0.114937E-05  0.530E-03    2.47       2.9  T
   4    -73.6095785 -0.132845E-05  0.102E-03    2.47      15.2  T
   5    -73.6095785 -0.178346E-07  0.570E-04    2.47      27.4  T
   6    -73.6095785 -0.289162E-08  0.289E-04    2.47      54.1  T
     SCC iter.                  ...        0 min,  0.030 sec
     gradient                   ...        0 min,  0.024 sec
 * total energy  :   -72.6280660 Eh     change       -0.2196314E-04 Eh
   gradient norm :     0.0020350 Eh/α   predicted    -0.1172735E-04 ( -46.60%)
   displ. norm   :     0.0597873 α      lambda       -0.1584249E-04
   maximum displ.:     0.0297459 α      in ANC's #4, #1, #13, ...

........................................................................
.............................. CYCLE   13 ..............................
........................................................................

 iter      E             dE          RMSdq      gap      omega  full diag
   1    -73.6095032 -0.736095E+02  0.185E-02    2.47       0.0  T
   2    -73.6095032 -0.546692E-07  0.109E-02    2.47       1.4  T
   3    -73.6095030  0.246702E-06  0.259E-03    2.47       6.0  T
   4    -73.6095033 -0.286772E-06  0.465E-04    2.47      33.6  T
   5    -73.6095033 -0.256216E-08  0.297E-04    2.47      52.6  T
     SCC iter.                  ...        0 min,  0.012 sec
     gradient                   ...        0 min,  0.024 sec
 * total energy  :   -72.6280800 Eh     change       -0.1403562E-04 Eh
   gradient norm :     0.0018119 Eh/α   predicted    -0.7953848E-05 ( -43.33%)
   displ. norm   :     0.2925496 α      lambda       -0.4815442E-04
   maximum displ.:     0.1372882 α      in ANC's #4, #1, #13, ...

........................................................................
.............................. CYCLE   14 ..............................
........................................................................

 iter      E             dE          RMSdq      gap      omega  full diag
   1    -73.6085694 -0.736086E+02  0.890E-02    2.48       0.0  T
   2    -73.6085708 -0.136136E-05  0.523E-02    2.48       1.0  T
   3    -73.6085642  0.659678E-05  0.137E-02    2.49       1.1  T
   4    -73.6085719 -0.767544E-05  0.225E-03    2.48       6.9  T
   5    -73.6085719 -0.537011E-07  0.143E-03    2.48      11.0  T
   6    -73.6085719 -0.165396E-07  0.692E-04    2.48      22.6  T
   7    -73.6085719 -0.529133E-08  0.359E-04    2.48      43.5  T
     SCC iter.                  ...        0 min,  0.017 sec
     gradient                   ...        0 min,  0.024 sec
 * total energy  :   -72.6281156 Eh     change       -0.3555423E-04 Eh
   gradient norm :     0.0024321 Eh/α   predicted    -0.2500247E-04 ( -29.68%)
   displ. norm   :     0.0290986 α      lambda       -0.1333183E-04
   maximum displ.:     0.0156468 α      in ANC's #1, #7, #10, ...

........................................................................
.............................. CYCLE   15 ..............................
........................................................................

 iter      E             dE          RMSdq      gap      omega  full diag
   1    -73.6094426 -0.736094E+02  0.986E-03    2.49       0.0  T
   2    -73.6094426 -0.739437E-07  0.573E-03    2.49       2.7  T
   3    -73.6094426  0.775984E-07  0.182E-03    2.49       8.6  T
   4    -73.6094427 -0.980685E-07  0.430E-04    2.49      36.3  T
   5    -73.6094427 -0.440728E-08  0.199E-04    2.49      78.6  T
     SCC iter.                  ...        0 min,  0.012 sec
     gradient                   ...        0 min,  0.034 sec
 * total energy  :   -72.6281256 Eh     change       -0.1004350E-04 Eh
   gradient norm :     0.0014688 Eh/α   predicted    -0.6673390E-05 ( -33.56%)
   displ. norm   :     0.1577837 α      lambda       -0.2465706E-04
   maximum displ.:     0.0734285 α      in ANC's #1, #10, #4, ...

........................................................................
.............................. CYCLE   16 ..............................
........................................................................

 iter      E             dE          RMSdq      gap      omega  full diag
   1    -73.6097154 -0.736097E+02  0.466E-02    2.50       0.0  T
   2    -73.6097161 -0.737313E-06  0.273E-02    2.49       1.0  T
   3    -73.6097127  0.340646E-05  0.102E-02    2.50       1.5  T
   4    -73.6097167 -0.396386E-05  0.152E-03    2.49      10.3  T
   5    -73.6097167 -0.321585E-07  0.965E-04    2.49      16.2  T
   6    -73.6097167 -0.655898E-08  0.557E-04    2.49      28.0  T
     SCC iter.                  ...        0 min,  0.015 sec
     gradient                   ...        0 min,  0.025 sec
 * total energy  :   -72.6281406 Eh     change       -0.1500558E-04 Eh
   gradient norm :     0.0015756 Eh/α   predicted    -0.1246531E-04 ( -16.93%)
   displ. norm   :     0.0312676 α      lambda       -0.5621376E-05
   maximum displ.:     0.0153669 α      in ANC's #10, #1, #3, ...

........................................................................
.............................. CYCLE   17 ..............................
........................................................................

 iter      E             dE          RMSdq      gap      omega  full diag
   1    -73.6097008 -0.736097E+02  0.105E-02    2.50       0.0  T
   2    -73.6097009 -0.746820E-07  0.617E-03    2.50       2.5  T
   3    -73.6097008  0.767775E-07  0.162E-03    2.50       9.6  T
   4    -73.6097009 -0.938499E-07  0.503E-04    2.50      31.0  T
   5    -73.6097009 -0.727167E-08  0.228E-04    2.50      68.5  T
     SCC iter.                  ...        0 min,  0.012 sec
     gradient                   ...        0 min,  0.038 sec
 * total energy  :   -72.6281461 Eh     change       -0.5485387E-05 Eh
   gradient norm :     0.0009291 Eh/α   predicted    -0.2812422E-05 ( -48.73%)
   displ. norm   :     0.0531010 α      lambda       -0.4876907E-05
   maximum displ.:     0.0224607 α      in ANC's #1, #10, #8, ...

........................................................................
.............................. CYCLE   18 ..............................
........................................................................

 iter      E             dE          RMSdq      gap      omega  full diag
   1    -73.6095074 -0.736095E+02  0.166E-02    2.50       0.0  T
   2    -73.6095075 -0.971851E-07  0.976E-03    2.50       1.6  T
   3    -73.6095072  0.303307E-06  0.290E-03    2.50       5.4  T
   4    -73.6095075 -0.359028E-06  0.616E-04    2.50      25.4  T
   5    -73.6095075 -0.557884E-08  0.391E-04    2.50      40.0  T
     SCC iter.                  ...        0 min,  0.012 sec
     gradient                   ...        0 min,  0.025 sec
 * total energy  :   -72.6281511 Eh     change       -0.4997079E-05 Eh
   gradient norm :     0.0007875 Eh/α   predicted    -0.2442649E-05 ( -51.12%)
   displ. norm   :     0.0745492 α      lambda       -0.4593194E-05
   maximum displ.:     0.0344630 α      in ANC's #10, #1, #8, ...

   *** GEOMETRY OPTIMIZATION CONVERGED AFTER 18 ITERATIONS ***

------------------------------------------------------------------------
 total energy gain   :        -0.0141017 Eh       -8.8489 kcal/mol
 total RMSD          :         0.3423048 a0        0.1811 Å
 total power (kW/mol):        -2.0568869 (step)  -35.5503 (real)
------------------------------------------------------------------------

 ANCopt (total)                0 d,  0 h,  0 min,  1.041 sec
 optimizer setup                ...        0 min,  0.000 sec (  0.007%)
 model hessian                  ...        0 min,  0.009 sec (  0.908%)
 ANC generation                 ...        0 min,  0.001 sec (  0.138%)
 coordinate transformation      ...        0 min,  0.000 sec (  0.012%)
 single point calculation       ...        0 min,  1.023 sec ( 98.208%)
 optimization log               ...        0 min,  0.004 sec (  0.347%)
 hessian update                 ...        0 min,  0.000 sec (  0.022%)
 rational function              ...        0 min,  0.003 sec (  0.299%)

================
 final structure:
================
41
 xtb: 6.7.1 (edcfbbe)
C            0.51175301777294        3.54273127516633       -0.51288100589636
C           -0.05894546331208        2.18477721729101       -0.34186159020268
C           -1.32746351165246        1.75786030400134       -0.58657997810579
C           -1.38940766241112        0.36296944731364       -0.25363651183203
C           -0.09615932398363       -0.01811178697780        0.16340317956010
N            0.72784583947896        1.10511252346923        0.07766242820248
C            2.07837390459830        1.17808712262386        0.37240779536660
C            2.85221455632532       -0.08072836035879        0.18021140438267
C            3.83295507698983       -0.42596023816313        1.10436364500650
C            4.62057885431885       -1.54400291753019        0.90484506675900
C            4.44348911930466       -2.30153842370100       -0.24341728111826
Cl           5.42716734035170       -3.69602900407695       -0.50455641184188
C            3.49266314215931       -1.95008351806877       -1.19112721836830
C            2.69724771899887       -0.84141424572927       -0.97634070105932
O            2.62250410436756        2.20634484579532        0.70739376248295
C            0.13262223717324       -1.29142088558775        0.65283797526156
C           -0.91249333339176       -2.19931047634431        0.65333876709893
C           -2.18401377504988       -1.84659108057907        0.19257951974615
O           -3.25221261006964       -2.69437904709041        0.15517270446576
C           -3.08638396805994       -4.01439543141449        0.61053782532590
C           -2.42964995758686       -0.55197002740064       -0.25053747035649
C           -2.48963488401769        2.57230365482339       -1.04374770806282
C           -3.20530729984962        3.22771139782665        0.11922205510455
O           -4.37843472006411        3.74972456881254       -0.27116438902121
O           -2.80813946558604        3.30205534233389        1.24754702139281
H            0.72082812666762        3.98534132948635        0.45984480689840
H            1.45108563535029        3.50714587616308       -1.06236209636697
H           -0.19213090543749        4.17933528399881       -1.04174481271178
H            3.96454139793089        0.18578062082322        1.98370888888034
H            5.37109274271549       -1.82399306161801        1.62718648857632
H            3.37993742278837       -2.54047512966147       -2.08655768898513
H            1.95708894907477       -0.56320762890588       -1.71164082725316
H            1.09132316233173       -1.59351705684431        1.04197044080217
H           -0.72482262365221       -3.19023860021262        1.03346355389270
H           -2.33203167294432       -4.55139925266218        0.02575895750508
H           -2.81453190633775       -4.04436958190610        1.67105006270957
H           -4.05430803512777       -4.49524964685693        0.47489694437785
H           -3.42653867494322       -0.28577550266294       -0.56173150188343
H           -2.17631561047755        3.37101213973402       -1.72045375216747
H           -3.21122465413162        1.95154944835968       -1.57665274309377
H           -4.82556229061220        4.17421850632984        0.47799039452839

 Bond Distances (Angstroems)
 ---------------------------
C1-C2=1.4829         C1-H26=1.0889        C1-H27=1.0888        C1-H28=1.0865        C2-C1=1.4829         C2-C3=1.3606         
C2-N6=1.4003         C3-C2=1.3606         C3-C4=1.4354         C3-C22=1.4910        C4-C3=1.4354         C4-C5=1.4113         
C4-C21=1.3854        C5-C4=1.4113         C5-N6=1.3957         C5-C16=1.3832        N6-C2=1.4003         N6-C5=1.3957         
N6-C7=1.3842         C7-N6=1.3842         C7-C8=1.4901         C7-O15=1.2106        C8-C7=1.4901         C8-C9=1.3911         
C8-C14=1.3929        C9-C8=1.3911         C9-C10=1.3821        C9-H29=1.0793        C10-C9=1.3821        C10-C11=1.3870       
C10-H30=1.0786       C11-C10=1.3870       C11-Cl12=1.7264      C11-C13=1.3877       Cl12-C11=1.7264      C13-C11=1.3877       
C13-C14=1.3813       C13-H31=1.0785       C14-C8=1.3929        C14-C13=1.3813       C14-H32=1.0798       O15-C7=1.2106        
C16-C5=1.3832        C16-C17=1.3844       C16-H33=1.0779       C17-C16=1.3844       C17-C18=1.3977       C17-H34=1.0778       
C18-C17=1.3977       C18-O19=1.3643       C18-C21=1.3902       O19-C18=1.3643       O19-C20=1.4062       C20-O19=1.4062       
C20-H35=1.0952       C20-H36=1.0952       C20-H37=1.0893       C21-C4=1.3854        C21-C18=1.3902       C21-H38=1.0777       
C22-C3=1.4910        C22-C23=1.5147       C22-H39=1.0927       C22-H40=1.0909       C23-C22=1.5147       C23-O24=1.3421       
C23-O25=1.1985       O24-C23=1.3421       O24-H41=0.9702       O25-C23=1.1985       H26-C1=1.0889        H27-C1=1.0888        
H28-C1=1.0865        H29-C9=1.0793        H30-C10=1.0786       H31-C13=1.0785       H32-C14=1.0798       H33-C16=1.0779       
H34-C17=1.0778       H35-C20=1.0952       H36-C20=1.0952       H37-C20=1.0893       H38-C21=1.0777       H39-C22=1.0927       
H40-C22=1.0909       H41-O24=0.9702       
 C  H  Rav=1.0851 sigma=0.0066  Rmin=1.0777  Rmax=1.0952    15
 C  C  Rav=1.4138 sigma=0.0459  Rmin=1.3606  Rmax=1.5147    18
 N  C  Rav=1.3934 sigma=0.0067  Rmin=1.3842  Rmax=1.4003     3
 O  H  Rav=0.9702 sigma=0.0000  Rmin=0.9702  Rmax=0.9702     1
 O  C  Rav=1.3043 sigma=0.0841  Rmin=1.1985  Rmax=1.4062     5
 Cl C  Rav=1.7264 sigma=0.0000  Rmin=1.7264  Rmax=1.7264     1

 selected bond angles (degree)
 --------------------
H26-C1-C2=110.06               H27-C1-C2=111.12               H27-C1-H26=107.36              H28-C1-C2=110.08               
H28-C1-H26=108.73              H28-C1-H27=109.42              C3-C2-C1=128.71                N6-C2-C1=121.63                
N6-C2-C3=109.62                C4-C3-C2=107.66                C22-C3-C2=127.62               C22-C3-C4=124.63               
C5-C4-C3=106.94                C21-C4-C3=132.43               C21-C4-C5=120.60               N6-C5-C4=107.79                
C16-C5-C4=120.31               C16-C5-N6=131.68               C5-N6-C2=107.89                C7-N6-C2=124.84                
C7-N6-C5=127.25                C8-C7-N6=115.76                O15-C7-N6=122.83               O15-C7-C8=121.32               
C9-C8-C7=119.35                C14-C8-C7=120.71               C14-C8-C9=119.64               C10-C9-C8=120.44               
H29-C9-C8=119.12               H29-C9-C10=120.44              C11-C10-C9=119.25              H30-C10-C9=120.65              
H30-C10-C11=120.10             

 selected dihedral angles (degree)
 ---------------------------------
C3-C2-C1-H26=110.16           C3-C2-C1-H27=228.96           C3-C2-C1-H28=350.33           N6-C2-C1-H26=287.61           
N6-C2-C1-H27= 46.41           N6-C2-C1-H28=167.78           C4-C3-C2-C1=180.53            C4-C3-C2-N6=  2.84            
C22-C3-C2-C1=357.37           C22-C3-C2-N6=179.67           C5-C4-C3-C2=358.52            C5-C4-C3-C22=181.56           
C21-C4-C3-C2=176.74           C21-C4-C3-C22=359.79          N6-C5-C4-C3=359.58            N6-C5-C4-C21=181.10           
C16-C5-C4-C3=174.81           C16-C5-C4-C21=356.33          C5-N6-C2-C1=178.98            C5-N6-C2-C3=356.87            
C7-N6-C2-C1=  0.11            C7-N6-C2-C3=178.00            C2-N6-C5-C4=  2.12            C2-N6-C5-C16=187.63           
C7-N6-C5-C4=180.96            C7-N6-C5-C16=  6.47           C8-C7-N6-C2=207.40            C8-C7-N6-C5= 28.75            
O15-C7-N6-C2= 24.15           O15-C7-N6-C5=205.49           C9-C8-C7-N6=219.79            C9-C8-C7-O15= 42.99           
C14-C8-C7-N6= 46.18           C14-C8-C7-O15=229.38          C10-C9-C8-C7=184.03           C10-C9-C8-C14=357.71          
H29-C9-C8-C7=  4.58           H29-C9-C8-C14=178.26          C11-C10-C9-C8=  1.49          C11-C10-C9-H29=180.93         
H30-C10-C9-C8=181.01          H30-C10-C9-H29=  0.45         
           -------------------------------------------------
          |                Final Singlepoint                |
           -------------------------------------------------

          ...................................................
          :                      SETUP                      :
          :.................................................:
          :  # basis functions                 122          :
          :  # atomic orbitals                 121          :
          :  # shells                           67          :
          :  # electrons                       128          :
          :  max. iterations                   250          :
          :  Hamiltonian                  GFN2-xTB          :
          :  restarted?                      false          :
          :  GBSA solvation                  false          :
          :  PC potential                    false          :
          :  electronic temp.          300.0000000     K    :
          :  accuracy                    1.0000000          :
          :  -> integral cutoff          0.2500000E+02      :
          :  -> integral neglect         0.1000000E-07      :
          :  -> SCF convergence          0.1000000E-05 Eh   :
          :  -> wf. convergence          0.1000000E-03 e    :
          :  Broyden damping             0.4000000          :
          :  net charge                          0          :
          :  unpaired electrons                  0          :
          ...................................................

 iter      E             dE          RMSdq      gap      omega  full diag
   1    -73.6095075 -0.736095E+02  0.238E-04    2.50       0.0  T
   2    -73.6095075 -0.403006E-09  0.193E-04    2.50      80.8  T
   3    -73.6095075 -0.252228E-09  0.158E-04    2.50      98.5  T

   *** convergence criteria satisfied after 3 iterations ***

         #    Occupation            Energy/Eh            Energy/eV
      -------------------------------------------------------------
         1        2.0000           -1.0642680             -28.9602
       ...           ...                  ...                  ...
        58        2.0000           -0.4273270             -11.6282
        59        2.0000           -0.4268076             -11.6140
        60        2.0000           -0.4206918             -11.4476
        61        2.0000           -0.4106200             -11.1735
        62        2.0000           -0.4080911             -11.1047
        63        2.0000           -0.3777357             -10.2787
        64        2.0000           -0.3722917             -10.1306 (HOMO)
        65                         -0.2804745              -7.6321 (LUMO)
        66                         -0.2522159              -6.8631
        67                         -0.2436492              -6.6300
        68                         -0.2353225              -6.4035
        69                         -0.2274376              -6.1889
       ...                                ...                  ...
       121                          0.7175993              19.5269
      -------------------------------------------------------------
                  HL-Gap            0.0918173 Eh            2.4985 eV
             Fermi-level           -0.3263831 Eh           -8.8813 eV

 SCC (total)                   0 d,  0 h,  0 min,  0.050 sec
 SCC setup                      ...        0 min,  0.000 sec (  0.617%)
 Dispersion                     ...        0 min,  0.000 sec (  0.618%)
 classical contributions        ...        0 min,  0.000 sec (  0.269%)
 integral evaluation            ...        0 min,  0.008 sec ( 16.381%)
 iterations                     ...        0 min,  0.007 sec ( 14.947%)
 molecular gradient             ...        0 min,  0.034 sec ( 66.842%)
 printout                       ...        0 min,  0.000 sec (  0.312%)

         :::::::::::::::::::::::::::::::::::::::::::::::::::::
         ::                     SUMMARY                     ::
         :::::::::::::::::::::::::::::::::::::::::::::::::::::
         :: total energy             -72.628151095140 Eh    ::
         :: gradient norm              0.000786944483 Eh/a0 ::
         :: HOMO-LUMO gap              2.498474798885 eV    ::
         ::.................................................::
         :: SCC energy               -73.609245094869 Eh    ::
         :: -> isotropic ES            0.097279716755 Eh    ::
         :: -> anisotropic ES          0.003423105704 Eh    ::
         :: -> anisotropic XC          0.018547528563 Eh    ::
         :: -> dispersion             -0.049231484713 Eh    ::
         :: repulsion energy           0.981093999729 Eh    ::
         :: add. restraining           0.000000000000 Eh    ::
         :: total charge              -0.000000000000 e     ::
         :::::::::::::::::::::::::::::::::::::::::::::::::::::

           -------------------------------------------------
          |                Property Printout                |
           -------------------------------------------------

    * Orbital Energies and Occupations

         #    Occupation            Energy/Eh            Energy/eV
      -------------------------------------------------------------
         1        2.0000           -1.0642680             -28.9602
       ...           ...                  ...                  ...
        52        2.0000           -0.4587769             -12.4840
        53        2.0000           -0.4544204             -12.3654
        54        2.0000           -0.4494046             -12.2289
        55        2.0000           -0.4381322             -11.9222
        56        2.0000           -0.4354193             -11.8484
        57        2.0000           -0.4332251             -11.7887
        58        2.0000           -0.4273270             -11.6282
        59        2.0000           -0.4268076             -11.6140
        60        2.0000           -0.4206918             -11.4476
        61        2.0000           -0.4106200             -11.1735
        62        2.0000           -0.4080911             -11.1047
        63        2.0000           -0.3777357             -10.2787
        64        2.0000           -0.3722917             -10.1306 (HOMO)
        65                         -0.2804745              -7.6321 (LUMO)
        66                         -0.2522159              -6.8631
        67                         -0.2436492              -6.6300
        68                         -0.2353225              -6.4035
        69                         -0.2274376              -6.1889
        70                         -0.1936701              -5.2700
        71                         -0.1632632              -4.4426
        72                         -0.1455604              -3.9609
        73                         -0.1189327              -3.2363
        74                         -0.0817283              -2.2239
        75                         -0.0034037              -0.0926
       ...                                ...                  ...
       121                          0.7175993              19.5269
      -------------------------------------------------------------
                  HL-Gap            0.0918173 Eh            2.4985 eV
             Fermi-level           -0.3263831 Eh           -8.8813 eV

     #   Z          covCN         q      C6AA      α(0)
     1   6 C        3.754    -0.111    22.671     6.789
     2   6 C        3.042     0.056    26.711     8.477
     3   6 C        3.049    -0.026    28.610     8.772
     4   6 C        3.092    -0.008    28.109     8.690
     5   6 C        3.051     0.030    27.282     8.566
     6   7 N        2.813    -0.052    22.247     7.005
     7   6 C        2.762     0.276    22.323     7.737
     8   6 C        2.973    -0.014    28.365     8.736
     9   6 C        2.926    -0.018    28.453     8.748
    10   6 C        2.954    -0.037    28.907     8.819
    11   6 C        2.889     0.103    25.710     8.313
    12  17 Cl       0.968    -0.166   104.364    15.629
    13   6 C        2.954    -0.037    28.918     8.820
    14   6 C        2.924    -0.023    28.567     8.765
    15   8 O        0.858    -0.383    21.350     6.195
    16   6 C        2.911    -0.048    29.182     8.858
    17   6 C        2.922    -0.071    29.764     8.947
    18   6 C        2.864     0.139    24.964     8.190
    19   8 O        1.706    -0.270    18.469     5.802
    20   6 C        3.643     0.037    20.289     6.475
    21   6 C        2.914    -0.062    29.544     8.913
    22   6 C        3.806    -0.088    22.175     6.704
    23   6 C        2.690     0.364    20.818     7.467
    24   8 O        1.660    -0.382    20.507     6.113
    25   8 O        0.856    -0.399    21.659     6.240
    26   1 H        0.925     0.081     1.966     2.193
    27   1 H        0.925     0.063     2.159     2.298
    28   1 H        0.925     0.048     2.347     2.396
    29   1 H        0.926     0.066     2.129     2.282
    30   1 H        0.926     0.065     2.144     2.290
    31   1 H        0.926     0.063     2.168     2.302
    32   1 H        0.926     0.051     2.307     2.375
    33   1 H        0.926     0.034     2.536     2.490
    34   1 H        0.926     0.040     2.452     2.449
    35   1 H        0.924     0.039     2.457     2.451
    36   1 H        0.924     0.040     2.444     2.445
    37   1 H        0.925     0.062     2.171     2.304
    38   1 H        0.926     0.050     2.321     2.382
    39   1 H        0.924     0.075     2.028     2.227
    40   1 H        0.924     0.080     1.976     2.198
    41   1 H        0.804     0.329     0.639     1.256

 Mol. C6AA /au·bohr⁶  :      23524.473346
 Mol. C8AA /au·bohr⁸  :     597095.799314
 Mol. α(0) /au        :        240.109727


Wiberg/Mayer (AO) data.
largest (>0.10) Wiberg bond orders for each atom

 ---------------------------------------------------------------------------
     #   Z sym  total        # sym  WBO       # sym  WBO       # sym  WBO
 ---------------------------------------------------------------------------
     1   6 C    3.992 --     2 C    1.042    28 H    0.978    27 H    0.967
                            26 H    0.958
     2   6 C    3.952 --     3 C    1.601     6 N    1.095     1 C    1.042
     3   6 C    3.973 --     2 C    1.601     4 C    1.157    22 C    1.016
     4   6 C    3.986 --    21 C    1.375     5 C    1.260     3 C    1.157
     5   6 C    3.952 --    16 C    1.385     4 C    1.260     6 N    1.081
     6   7 N    3.605 --     7 C    1.114     2 C    1.095     5 C    1.081
                            15 O    0.124
     7   6 C    3.942 --    15 O    1.736     6 N    1.114     8 C    0.987
     8   6 C    3.987 --     9 C    1.394    14 C    1.384     7 C    0.987
     9   6 C    3.986 --    10 C    1.449     8 C    1.394    29 H    0.966
                            13 C    0.105
    10   6 C    3.988 --     9 C    1.449    11 C    1.400    30 H    0.966
                            14 C    0.106
    11   6 C    3.918 --    10 C    1.400    13 C    1.394    12 Cl   0.983
    12  17 Cl   1.121 --    11 C    0.983
    13   6 C    3.988 --    14 C    1.455    11 C    1.394    31 H    0.966
                             9 C    0.105
    14   6 C    3.990 --    13 C    1.455     8 C    1.384    32 H    0.967
                            10 C    0.106
    15   8 O    2.041 --     7 C    1.736     6 N    0.124
    16   6 C    3.989 --    17 C    1.452     5 C    1.385    33 H    0.965
                            21 C    0.106
    17   6 C    3.981 --    16 C    1.452    18 C    1.343    34 H    0.966
    18   6 C    3.929 --    21 C    1.384    17 C    1.343    19 O    1.058
    19   8 O    2.222 --    18 C    1.058    20 C    0.987
    20   6 C    3.947 --    19 O    0.987    37 H    0.979    35 H    0.977
                            36 H    0.976
    21   6 C    3.978 --    18 C    1.384     4 C    1.375    38 H    0.965
                            16 C    0.106
    22   6 C    3.993 --     3 C    1.016    23 C    0.961    40 H    0.952
                            39 H    0.940
    23   6 C    3.911 --    25 O    1.782    24 O    1.123    22 C    0.961
    24   8 O    2.189 --    23 C    1.123    41 H    0.867    25 O    0.172
    25   8 O    2.054 --    23 C    1.782    24 O    0.172
    26   1 H    0.989 --     1 C    0.958
    27   1 H    0.993 --     1 C    0.967
    28   1 H    0.997 --     1 C    0.978
    29   1 H    0.996 --     9 C    0.966
    30   1 H    0.995 --    10 C    0.966
    31   1 H    0.995 --    13 C    0.966
    32   1 H    0.997 --    14 C    0.967
    33   1 H    0.998 --    16 C    0.965
    34   1 H    0.998 --    17 C    0.966
    35   1 H    0.998 --    20 C    0.977
    36   1 H    0.998 --    20 C    0.976
    37   1 H    0.996 --    20 C    0.979
    38   1 H    0.997 --    21 C    0.965
    39   1 H    0.994 --    22 C    0.940
    40   1 H    0.993 --    22 C    0.952
    41   1 H    0.891 --    24 O    0.867
 ---------------------------------------------------------------------------

Topologies differ in total number of bonds
Writing topology from bond orders to xtbtopo.mol

molecular dipole:
                 x           y           z       tot (Debye)
 q only:       -0.855      -0.330      -0.699
   full:       -0.750      -0.658      -0.679       3.067
molecular quadrupole (traceless):
                xx          xy          yy          xz          yz          zz
 q only:       -5.425       0.558       4.158       2.907     -11.047       1.268
  q+dip:       -3.509      -7.206       5.116       2.826     -10.771      -1.607
   full:       -4.694      -6.163       5.451       0.128     -11.457      -0.757

           -------------------------------------------------
          |                Geometry Summary                 |
           -------------------------------------------------

      molecular mass/u    :      357.7882946
   center of mass at/Å    :        0.4515231      -0.1095083       0.0175734
  moments of inertia/u·Å² :        0.1648379E+04   0.4252593E+04   0.5573161E+04
rotational constants/cm⁻¹ :        0.1022679E-01   0.3964083E-02   0.3024788E-02

 * 41 selected distances

     #   Z          #   Z                                           value/Å
     1   6 C        2   6 C                                       1.4828972
     2   6 C        3   6 C                                       1.3606188
     3   6 C        4   6 C                                       1.4354126
     4   6 C        5   6 C                                       1.4112536
     2   6 C        6   7 N                                       1.4002561
     5   6 C        6   7 N                                       1.3956967
     6   7 N        7   6 C                                       1.3842422
     8   6 C        9   6 C                                       1.3910768
     9   6 C       10   6 C                                       1.3820921
    10   6 C       11   6 C                                       1.3869851
    11   6 C       12  17 Cl                                      1.7263896 (max)
    11   6 C       13   6 C                                       1.3877122
     8   6 C       14   6 C                                       1.3929361
    13   6 C       14   6 C                                       1.3812917
     7   6 C       15   8 O                                       1.2106228
     5   6 C       16   6 C                                       1.3831861
    16   6 C       17   6 C                                       1.3843882
    17   6 C       18   6 C                                       1.3976676
    18   6 C       19   8 O                                       1.3642554
    19   8 O       20   6 C                                       1.4061651
     4   6 C       21   6 C                                       1.3853621
    18   6 C       21   6 C                                       1.3902280
     3   6 C       22   6 C                                       1.4909604
    23   6 C       24   8 O                                       1.3420610
    23   6 C       25   8 O                                       1.1984936
     1   6 C       26   1 H                                       1.0889499
     1   6 C       27   1 H                                       1.0888259
     1   6 C       28   1 H                                       1.0864688
     9   6 C       29   1 H                                       1.0792544
    10   6 C       30   1 H                                       1.0786301
    13   6 C       31   1 H                                       1.0784550
    14   6 C       32   1 H                                       1.0797687
    16   6 C       33   1 H                                       1.0778654
    17   6 C       34   1 H                                       1.0778005
    20   6 C       35   1 H                                       1.0951653
    20   6 C       36   1 H                                       1.0952116
    20   6 C       37   1 H                                       1.0892642
    21   6 C       38   1 H                                       1.0777238
    22   6 C       39   1 H                                       1.0927193
    22   6 C       40   1 H                                       1.0908784
    24   8 O       41   1 H                                       0.9702326 (min)

 * 6 distinct bonds (by element types)

   Z      Z             #   av. dist./Å        max./Å        min./Å
   1 H    6 C          15     1.0851321     1.0952116     1.0777238
   6 C    6 C          16     1.4027543     1.4909604     1.3606188
   6 C    7 N           3     1.3933983     1.4002561     1.3842422
   1 H    8 O           1     0.9702326     0.9702326     0.9702326
   6 C    8 O           5     1.3043195     1.4061651     1.1984936
   6 C   17 Cl          1     1.7263896     1.7263896     1.7263896


optimized geometry written to: xtbopt.xyz


           -------------------------------------------------
          | TOTAL ENERGY              -72.628151095140 Eh   |
          | GRADIENT NORM               0.000786944483 Eh/α |
          | HOMO-LUMO GAP               2.498474798885 eV   |
           -------------------------------------------------

------------------------------------------------------------------------
 * finished run on 2025/05/15 at 16:28:21.898     
------------------------------------------------------------------------
 total:
 * wall-time:     0 d,  0 h,  0 min,  1.183 sec
 *  cpu-time:     0 d,  0 h,  0 min,  1.008 sec
 * ratio c/w:     0.852 speedup
 SCF:
 * wall-time:     0 d,  0 h,  0 min,  0.076 sec
 *  cpu-time:     0 d,  0 h,  0 min,  0.068 sec
 * ratio c/w:     0.902 speedup
 ANC optimizer:
 * wall-time:     0 d,  0 h,  0 min,  1.093 sec
 *  cpu-time:     0 d,  0 h,  0 min,  0.927 sec
 * ratio c/w:     0.848 speedup



----- Single-point -----
      -----------------------------------------------------------      
     |                   =====================                   |     
     |                           x T B                           |     
     |                   =====================                   |     
     |                         S. Grimme                         |     
     |          Mulliken Center for Theoretical Chemistry        |     
     |                    University of Bonn                     |     
      -----------------------------------------------------------      

   * xtb version 6.7.1 (edcfbbe) compiled by 'conda@3ef47c1a292c' on 2024-11-25

   xtb is free software: you can redistribute it and/or modify it under
   the terms of the GNU Lesser General Public License as published by
   the Free Software Foundation, either version 3 of the License, or
   (at your option) any later version.
   
   xtb is distributed in the hope that it will be useful,
   but WITHOUT ANY WARRANTY; without even the implied warranty of
   MERCHANTABILITY or FITNESS FOR A PARTICULAR PURPOSE.  See the
   GNU Lesser General Public License for more details.
   
   Cite this work as:
   * C. Bannwarth, E. Caldeweyher, S. Ehlert, A. Hansen, P. Pracht,
     J. Seibert, S. Spicher, S. Grimme, WIREs Comput. Mol. Sci., 2020, 11,
     e01493. DOI: 10.1002/wcms.1493
   
   for GFN2-xTB:
   * C. Bannwarth, S. Ehlert and S. Grimme., J. Chem. Theory Comput., 2019,
     15, 1652-1671. DOI: 10.1021/acs.jctc.8b01176
   for GFN1-xTB:
   * S. Grimme, C. Bannwarth, P. Shushkov, J. Chem. Theory Comput., 2017,
     13, 1989-2009. DOI: 10.1021/acs.jctc.7b00118
   for GFN0-xTB:
   * P. Pracht, E. Caldeweyher, S. Ehlert, S. Grimme, ChemRxiv, 2019, preprint.
     DOI: 10.26434/chemrxiv.8326202.v1
   for GFN-FF:
   * S. Spicher and S. Grimme, Angew. Chem. Int. Ed., 2020, 59, 15665-15673.
     DOI: 10.1002/anie.202004239
   
   for ALPB and GBSA implicit solvation:
   * S. Ehlert, M. Stahn, S. Spicher, S. Grimme, J. Chem. Theory Comput.,
     2021, 17, 4250-4261. DOI: 10.1021/acs.jctc.1c00471
   
   for ddCOSMO and CPCM-X implicit solvation:
   * M. Stahn, S. Ehlert, S. Grimme, J. Phys. Chem. A,
     2023, XX, XXXX-XXXX. DOI: 10.1021/acs.jpca.3c04382
   
   for DFT-D4:
   * E. Caldeweyher, C. Bannwarth and S. Grimme, J. Chem. Phys., 2017,
     147, 034112. DOI: 10.1063/1.4993215
   * E. Caldeweyher, S. Ehlert, A. Hansen, H. Neugebauer, S. Spicher,
     C. Bannwarth and S. Grimme, J. Chem. Phys., 2019, 150, 154122.
     DOI: 10.1063/1.5090222
   * E. Caldeweyher, J.-M. Mewes, S. Ehlert and S. Grimme, Phys. Chem. Chem. Phys.
     2020, 22, 8499-8512. DOI: 10.1039/D0CP00502A
   
   for sTDA-xTB:
   * S. Grimme and C. Bannwarth, J. Chem. Phys., 2016, 145, 054103.
     DOI: 10.1063/1.4959605
   
   in the mass-spec context:
   * V. Asgeirsson, C. Bauer and S. Grimme, Chem. Sci., 2017, 8, 4879.
     DOI: 10.1039/c7sc00601b
   * J. Koopman and S. Grimme, ACS Omega 2019, 4, 12, 15120-15133.
     DOI: 10.1021/acsomega.9b02011
   
   for metadynamics refer to:
   * S. Grimme, J. Chem. Theory Comput., 2019, 155, 2847-2862
     DOI: 10.1021/acs.jctc.9b00143
   
   for SPH calculations refer to:
   * S. Spicher and S. Grimme, J. Chem. Theory Comput., 2021, 17, 1701-1714
     DOI: 10.1021/acs.jctc.0c01306
   
   for ONIOM refer to:
   * C. Plett, A. Katbashev, S. Ehlert, S. Grimme, M. Bursch,
     Phys. Chem. Chem. Phys., 2023, 25, 17860-17868. DOI: 10.1039/D3CP02178E
   
   for DIPRO refer to:
   * J. Kohn, N. Gildemeister, S. Grimme, D. Fazzi, A. Hansen,
     J. Chem. Phys., 2023, just accepted.
   
   for PTB refer to:
   * S. Grimme, M. Mueller, A. Hansen, J. Chem. Phys., 2023, 158, 124111.
     DOI: 10.1063/5.0137838
   
   with help from (in alphabetical order)
   P. Atkinson, C. Bannwarth, F. Bohle, G. Brandenburg, E. Caldeweyher
   M. Checinski, S. Dohm, S. Ehlert, S. Ehrlich, I. Gerasimov, C. Hölzer
   A. Katbashev, J. Kohn, J. Koopman, C. Lavigne, S. Lehtola, F. März, M. Müller,
   F. Musil, H. Neugebauer, J. Pisarek, C. Plett, P. Pracht, F. Pultar,
   J. Seibert, P. Shushkov, S. Spicher, M. Stahn, M. Steiner, T. Strunk,
   J. Stückrath, T. Rose, and J. Unsleber
   
 * started run on 2025/05/15 at 16:28:21.928     
   ID    Z sym.   atoms
    1    6 C      1-5, 7-11, 13, 14, 16-18, 20-23
    2    7 N      6
    3   17 Cl     12
    4    8 O      15, 19, 24, 25
    5    1 H      26-41

           -------------------------------------------------
          |                Calculation Setup                |
           -------------------------------------------------

          program call               : xtb /rds/general/user/hgt20/home/callum/QDESCP/Indomethacin_rdkit_conf_5/Indomethacin_rdkit_conf_5.xyz --acc 1 --gfn 2 --chrg 0 --uhf 0 --etemp 300 --input /rds/general/user/hgt20/home/callum/QDESCP/Indomethacin_rdkit_conf_5/Indomethacin_rdkit_conf_5_xtb.inp -P 1
          hostname                   : login-c
          coordinate file            : /rds/general/user/hgt20/home/callum/QDESCP/Indomethacin_rdkit_conf_5/Indomethacin_rdkit_conf_5.xyz
          omp threads                :                     1


           -------------------------------------------------
          |                 G F N 2 - x T B                 |
           -------------------------------------------------

        Reference                      10.1021/acs.jctc.8b01176
      * Hamiltonian:
        H0-scaling (s, p, d)           1.850000    2.230000    2.230000
        zeta-weighting                 0.500000
      * Dispersion:
        s8                             2.700000
        a1                             0.520000
        a2                             5.000000
        s9                             5.000000
      * Repulsion:
        kExp                           1.500000    1.000000
        rExp                           1.000000
      * Coulomb:
        alpha                          2.000000
        third order                    shell-resolved
        anisotropic                    true
        a3                             3.000000
        a5                             4.000000
        cn-shift                       1.200000
        cn-exp                         4.000000
        max-rad                        5.000000

q/qsh data taken from xtbrestart
CAMM data taken from xtbrestart

          ...................................................
          :                      SETUP                      :
          :.................................................:
          :  # basis functions                 122          :
          :  # atomic orbitals                 121          :
          :  # shells                           67          :
          :  # electrons                       128          :
          :  max. iterations                   250          :
          :  Hamiltonian                  GFN2-xTB          :
          :  restarted?                       true          :
          :  GBSA solvation                  false          :
          :  PC potential                    false          :
          :  electronic temp.          300.0000000     K    :
          :  accuracy                    1.0000000          :
          :  -> integral cutoff          0.2500000E+02      :
          :  -> integral neglect         0.1000000E-07      :
          :  -> SCF convergence          0.1000000E-05 Eh   :
          :  -> wf. convergence          0.1000000E-03 e    :
          :  Broyden damping             0.4000000          :
          :  net charge                          0          :
          :  unpaired electrons                  0          :
          ...................................................

 iter      E             dE          RMSdq      gap      omega  full diag
   1    -73.6095075 -0.736095E+02  0.771E-05    2.50       0.0  T
   2    -73.6095075 -0.335092E-10  0.650E-05    2.50     240.2  T
   3    -73.6095075 -0.357829E-10  0.549E-05    2.50     284.6  T

   *** convergence criteria satisfied after 3 iterations ***

         #    Occupation            Energy/Eh            Energy/eV
      -------------------------------------------------------------
         1        2.0000           -1.0642681             -28.9602
       ...           ...                  ...                  ...
        58        2.0000           -0.4273279             -11.6282
        59        2.0000           -0.4268088             -11.6141
        60        2.0000           -0.4206924             -11.4476
        61        2.0000           -0.4106212             -11.1736
        62        2.0000           -0.4080921             -11.1048
        63        2.0000           -0.3777363             -10.2787
        64        2.0000           -0.3722923             -10.1306 (HOMO)
        65                         -0.2804755              -7.6321 (LUMO)
        66                         -0.2522174              -6.8632
        67                         -0.2436501              -6.6301
        68                         -0.2353230              -6.4035
        69                         -0.2274387              -6.1889
       ...                                ...                  ...
       121                          0.7175987              19.5269
      -------------------------------------------------------------
                  HL-Gap            0.0918168 Eh            2.4985 eV
             Fermi-level           -0.3263839 Eh           -8.8814 eV

 SCC (total)                   0 d,  0 h,  0 min,  0.043 sec
 SCC setup                      ...        0 min,  0.000 sec (  0.923%)
 Dispersion                     ...        0 min,  0.001 sec (  1.173%)
 classical contributions        ...        0 min,  0.000 sec (  0.331%)
 integral evaluation            ...        0 min,  0.009 sec ( 20.249%)
 iterations                     ...        0 min,  0.008 sec ( 19.666%)
 molecular gradient             ...        0 min,  0.025 sec ( 57.101%)
 printout                       ...        0 min,  0.000 sec (  0.538%)

         :::::::::::::::::::::::::::::::::::::::::::::::::::::
         ::                     SUMMARY                     ::
         :::::::::::::::::::::::::::::::::::::::::::::::::::::
         :: total energy             -72.628151095642 Eh    ::
         :: gradient norm              0.000787296666 Eh/a0 ::
         :: HOMO-LUMO gap              2.498463575821 eV    ::
         ::.................................................::
         :: SCC energy               -73.609245095370 Eh    ::
         :: -> isotropic ES            0.097279308021 Eh    ::
         :: -> anisotropic ES          0.003423707600 Eh    ::
         :: -> anisotropic XC          0.018547825933 Eh    ::
         :: -> dispersion             -0.049231489506 Eh    ::
         :: repulsion energy           0.981093999729 Eh    ::
         :: add. restraining           0.000000000000 Eh    ::
         :: total charge               0.000000000000 e     ::
         :::::::::::::::::::::::::::::::::::::::::::::::::::::

           -------------------------------------------------
          |                Property Printout                |
           -------------------------------------------------

    * Orbital Energies and Occupations

         #    Occupation            Energy/Eh            Energy/eV
      -------------------------------------------------------------
         1        2.0000           -1.0642681             -28.9602
       ...           ...                  ...                  ...
        52        2.0000           -0.4587776             -12.4840
        53        2.0000           -0.4544216             -12.3654
        54        2.0000           -0.4494050             -12.2289
        55        2.0000           -0.4381330             -11.9222
        56        2.0000           -0.4354200             -11.8484
        57        2.0000           -0.4332262             -11.7887
        58        2.0000           -0.4273279             -11.6282
        59        2.0000           -0.4268088             -11.6141
        60        2.0000           -0.4206924             -11.4476
        61        2.0000           -0.4106212             -11.1736
        62        2.0000           -0.4080921             -11.1048
        63        2.0000           -0.3777363             -10.2787
        64        2.0000           -0.3722923             -10.1306 (HOMO)
        65                         -0.2804755              -7.6321 (LUMO)
        66                         -0.2522174              -6.8632
        67                         -0.2436501              -6.6301
        68                         -0.2353230              -6.4035
        69                         -0.2274387              -6.1889
        70                         -0.1936710              -5.2701
        71                         -0.1632637              -4.4426
        72                         -0.1455662              -3.9611
        73                         -0.1189341              -3.2364
        74                         -0.0817290              -2.2240
        75                         -0.0034040              -0.0926
       ...                                ...                  ...
       121                          0.7175987              19.5269
      -------------------------------------------------------------
                  HL-Gap            0.0918168 Eh            2.4985 eV
             Fermi-level           -0.3263839 Eh           -8.8814 eV

     #   Z          covCN         q      C6AA      α(0)
     1   6 C        3.754    -0.111    22.671     6.789
     2   6 C        3.042     0.056    26.711     8.477
     3   6 C        3.049    -0.026    28.610     8.772
     4   6 C        3.092    -0.008    28.109     8.690
     5   6 C        3.051     0.030    27.282     8.566
     6   7 N        2.813    -0.052    22.247     7.005
     7   6 C        2.762     0.276    22.323     7.737
     8   6 C        2.973    -0.014    28.365     8.736
     9   6 C        2.926    -0.018    28.453     8.748
    10   6 C        2.954    -0.037    28.907     8.819
    11   6 C        2.889     0.103    25.710     8.313
    12  17 Cl       0.968    -0.166   104.364    15.629
    13   6 C        2.954    -0.037    28.918     8.820
    14   6 C        2.924    -0.023    28.567     8.765
    15   8 O        0.858    -0.383    21.350     6.195
    16   6 C        2.911    -0.048    29.182     8.858
    17   6 C        2.922    -0.071    29.764     8.947
    18   6 C        2.864     0.139    24.964     8.190
    19   8 O        1.706    -0.270    18.469     5.802
    20   6 C        3.643     0.037    20.289     6.475
    21   6 C        2.914    -0.062    29.544     8.913
    22   6 C        3.806    -0.088    22.175     6.704
    23   6 C        2.690     0.364    20.818     7.467
    24   8 O        1.660    -0.382    20.507     6.113
    25   8 O        0.856    -0.399    21.659     6.240
    26   1 H        0.925     0.081     1.966     2.193
    27   1 H        0.925     0.063     2.159     2.298
    28   1 H        0.925     0.048     2.347     2.396
    29   1 H        0.926     0.066     2.129     2.282
    30   1 H        0.926     0.065     2.144     2.290
    31   1 H        0.926     0.063     2.168     2.302
    32   1 H        0.926     0.051     2.307     2.375
    33   1 H        0.926     0.034     2.536     2.490
    34   1 H        0.926     0.040     2.452     2.449
    35   1 H        0.924     0.039     2.457     2.451
    36   1 H        0.924     0.040     2.444     2.445
    37   1 H        0.925     0.062     2.171     2.304
    38   1 H        0.926     0.050     2.321     2.382
    39   1 H        0.924     0.075     2.028     2.227
    40   1 H        0.924     0.080     1.976     2.198
    41   1 H        0.804     0.329     0.639     1.256

 Mol. C6AA /au·bohr⁶  :      23524.475712
 Mol. C8AA /au·bohr⁸  :     597095.818429
 Mol. α(0) /au        :        240.109740


Wiberg/Mayer (AO) data.
largest (>0.10) Wiberg bond orders for each atom

 ---------------------------------------------------------------------------
     #   Z sym  total        # sym  WBO       # sym  WBO       # sym  WBO
 ---------------------------------------------------------------------------
     1   6 C    3.992 --     2 C    1.042    28 H    0.978    27 H    0.967
                            26 H    0.958
     2   6 C    3.952 --     3 C    1.601     6 N    1.095     1 C    1.042
     3   6 C    3.973 --     2 C    1.601     4 C    1.157    22 C    1.016
     4   6 C    3.986 --    21 C    1.375     5 C    1.260     3 C    1.157
     5   6 C    3.952 --    16 C    1.385     4 C    1.260     6 N    1.081
     6   7 N    3.605 --     7 C    1.114     2 C    1.095     5 C    1.081
                            15 O    0.124
     7   6 C    3.942 --    15 O    1.736     6 N    1.114     8 C    0.987
     8   6 C    3.987 --     9 C    1.394    14 C    1.384     7 C    0.987
     9   6 C    3.986 --    10 C    1.449     8 C    1.394    29 H    0.966
                            13 C    0.105
    10   6 C    3.988 --     9 C    1.449    11 C    1.400    30 H    0.966
                            14 C    0.106
    11   6 C    3.918 --    10 C    1.400    13 C    1.394    12 Cl   0.983
    12  17 Cl   1.121 --    11 C    0.983
    13   6 C    3.988 --    14 C    1.455    11 C    1.394    31 H    0.966
                             9 C    0.105
    14   6 C    3.990 --    13 C    1.455     8 C    1.384    32 H    0.967
                            10 C    0.106
    15   8 O    2.041 --     7 C    1.736     6 N    0.124
    16   6 C    3.989 --    17 C    1.452     5 C    1.385    33 H    0.965
                            21 C    0.106
    17   6 C    3.981 --    16 C    1.452    18 C    1.343    34 H    0.966
    18   6 C    3.929 --    21 C    1.384    17 C    1.343    19 O    1.058
[...]
     DOI: 10.1002/anie.202004239
   
   for ALPB and GBSA implicit solvation:
   * S. Ehlert, M. Stahn, S. Spicher, S. Grimme, J. Chem. Theory Comput.,
     2021, 17, 4250-4261. DOI: 10.1021/acs.jctc.1c00471
   
   for ddCOSMO and CPCM-X implicit solvation:
   * M. Stahn, S. Ehlert, S. Grimme, J. Phys. Chem. A,
     2023, XX, XXXX-XXXX. DOI: 10.1021/acs.jpca.3c04382
   
   for DFT-D4:
   * E. Caldeweyher, C. Bannwarth and S. Grimme, J. Chem. Phys., 2017,
     147, 034112. DOI: 10.1063/1.4993215
   * E. Caldeweyher, S. Ehlert, A. Hansen, H. Neugebauer, S. Spicher,
     C. Bannwarth and S. Grimme, J. Chem. Phys., 2019, 150, 154122.
     DOI: 10.1063/1.5090222
   * E. Caldeweyher, J.-M. Mewes, S. Ehlert and S. Grimme, Phys. Chem. Chem. Phys.
     2020, 22, 8499-8512. DOI: 10.1039/D0CP00502A
   
   for sTDA-xTB:
   * S. Grimme and C. Bannwarth, J. Chem. Phys., 2016, 145, 054103.
     DOI: 10.1063/1.4959605
   
   in the mass-spec context:
   * V. Asgeirsson, C. Bauer and S. Grimme, Chem. Sci., 2017, 8, 4879.
     DOI: 10.1039/c7sc00601b
   * J. Koopman and S. Grimme, ACS Omega 2019, 4, 12, 15120-15133.
     DOI: 10.1021/acsomega.9b02011
   
   for metadynamics refer to:
   * S. Grimme, J. Chem. Theory Comput., 2019, 155, 2847-2862
     DOI: 10.1021/acs.jctc.9b00143
   
   for SPH calculations refer to:
   * S. Spicher and S. Grimme, J. Chem. Theory Comput., 2021, 17, 1701-1714
     DOI: 10.1021/acs.jctc.0c01306
   
   for ONIOM refer to:
   * C. Plett, A. Katbashev, S. Ehlert, S. Grimme, M. Bursch,
     Phys. Chem. Chem. Phys., 2023, 25, 17860-17868. DOI: 10.1039/D3CP02178E
   
   for DIPRO refer to:
   * J. Kohn, N. Gildemeister, S. Grimme, D. Fazzi, A. Hansen,
     J. Chem. Phys., 2023, just accepted.
   
   for PTB refer to:
   * S. Grimme, M. Mueller, A. Hansen, J. Chem. Phys., 2023, 158, 124111.
     DOI: 10.1063/5.0137838
   
   with help from (in alphabetical order)
   P. Atkinson, C. Bannwarth, F. Bohle, G. Brandenburg, E. Caldeweyher
   M. Checinski, S. Dohm, S. Ehlert, S. Ehrlich, I. Gerasimov, C. Hölzer
   A. Katbashev, J. Kohn, J. Koopman, C. Lavigne, S. Lehtola, F. März, M. Müller,
   F. Musil, H. Neugebauer, J. Pisarek, C. Plett, P. Pracht, F. Pultar,
   J. Seibert, P. Shushkov, S. Spicher, M. Stahn, M. Steiner, T. Strunk,
   J. Stückrath, T. Rose, and J. Unsleber
   
 * started run on 2025/05/15 at 16:28:23.694     
   ID    Z sym.   atoms
    1    6 C      1-5, 7-11, 13, 14, 16-18, 20-23
    2    7 N      6
    3   17 Cl     12
    4    8 O      15, 19, 24, 25
    5    1 H      26-41

           -------------------------------------------------
          |                Calculation Setup                |
           -------------------------------------------------

          program call               : xtb /rds/general/user/hgt20/home/callum/QDESCP/Indomethacin_rdkit_conf_5/Indomethacin_rdkit_conf_5.xyz --acc 1 --gfn 2 --chrg 0 --uhf 2 --etemp 300 --input /rds/general/user/hgt20/home/callum/QDESCP/Indomethacin_rdkit_conf_5/Indomethacin_rdkit_conf_5_xtb.inp -P 1
          hostname                   : login-c
          coordinate file            : /rds/general/user/hgt20/home/callum/QDESCP/Indomethacin_rdkit_conf_5/Indomethacin_rdkit_conf_5.xyz
          omp threads                :                     1


           -------------------------------------------------
          |                 G F N 2 - x T B                 |
           -------------------------------------------------

        Reference                      10.1021/acs.jctc.8b01176
      * Hamiltonian:
        H0-scaling (s, p, d)           1.850000    2.230000    2.230000
        zeta-weighting                 0.500000
      * Dispersion:
        s8                             2.700000
        a1                             0.520000
        a2                             5.000000
        s9                             5.000000
      * Repulsion:
        kExp                           1.500000    1.000000
        rExp                           1.000000
      * Coulomb:
        alpha                          2.000000
        third order                    shell-resolved
        anisotropic                    true
        a3                             3.000000
        a5                             4.000000
        cn-shift                       1.200000
        cn-exp                         4.000000
        max-rad                        5.000000


          ...................................................
          :                      SETUP                      :
          :.................................................:
          :  # basis functions                 122          :
          :  # atomic orbitals                 121          :
          :  # shells                           67          :
          :  # electrons                       128          :
          :  max. iterations                   250          :
          :  Hamiltonian                  GFN2-xTB          :
          :  restarted?                      false          :
          :  GBSA solvation                  false          :
          :  PC potential                    false          :
          :  electronic temp.          300.0000000     K    :
          :  accuracy                    1.0000000          :
          :  -> integral cutoff          0.2500000E+02      :
          :  -> integral neglect         0.1000000E-07      :
          :  -> SCF convergence          0.1000000E-05 Eh   :
          :  -> wf. convergence          0.1000000E-03 e    :
          :  Broyden damping             0.4000000          :
          :  net charge                          0          :
          :  unpaired electrons                  2          :
          ...................................................

 iter      E             dE          RMSdq      gap      omega  full diag
   1    -73.3464996 -0.733465E+02  0.440E+00    0.55       0.0  T
   2    -73.1958169  0.150683E+00  0.282E+00    0.32       1.0  T
   3    -73.2036082 -0.779128E-02  0.273E+00    1.24       1.0  T
   4    -73.4081006 -0.204492E+00  0.160E+00    0.77       1.0  T
   5    -73.4085019 -0.401354E-03  0.126E+00    0.69       1.0  T
   6    -73.4526729 -0.441709E-01  0.886E-01    0.43       1.0  T
   7    -73.4865377 -0.338649E-01  0.420E-01    0.39       1.0  T
   8    -73.4793350  0.720277E-02  0.485E-01    0.40       1.0  T
   9    -73.4928719 -0.135369E-01  0.215E-01    0.33       1.0  T
  10    -73.4817794  0.110924E-01  0.434E-01    0.41       1.0  T
  11    -73.4959789 -0.141994E-01  0.779E-02    0.34       1.0  T
  12    -73.4962418 -0.262955E-03  0.343E-02    0.34       1.0  T
  13    -73.4959188  0.323022E-03  0.671E-02    0.34       1.0  T
  14    -73.4961624 -0.243622E-03  0.408E-02    0.35       1.0  T
  15    -73.4962948 -0.132390E-03  0.601E-03    0.34       2.6  T
  16    -73.4962842  0.106084E-04  0.118E-02    0.35       1.3  T
  17    -73.4962887 -0.453830E-05  0.904E-03    0.35       1.7  T
  18    -73.4962941 -0.536939E-05  0.422E-03    0.34       3.7  T
  19    -73.4962948 -0.659715E-06  0.285E-03    0.34       5.5  T
  20    -73.4962940  0.801875E-06  0.423E-03    0.34       3.7  T
  21    -73.4962951 -0.110824E-05  0.203E-03    0.34       7.7  T
  22    -73.4962954 -0.336317E-06  0.323E-04    0.34      48.3  T
  23    -73.4962954  0.119990E-07  0.468E-04    0.34      33.4  T

   *** convergence criteria satisfied after 23 iterations ***

         #    Occupation            Energy/Eh            Energy/eV
      -------------------------------------------------------------
         1        2.0000           -1.0513842             -28.6096
       ...           ...                  ...                  ...
        59        2.0000           -0.4126130             -11.2278
        60        2.0000           -0.4120075             -11.2113
        61        1.9996           -0.3937453             -10.7144
        62        1.9872           -0.3904075             -10.6235
        63        1.7940           -0.3875636             -10.5461
        64        1.2193           -0.3850754             -10.4784
        65        0.9987           -0.2636377              -7.1739 (HOMO)
        66        0.0013           -0.2509778              -6.8295 (LUMO)
        67        0.0000           -0.2477841              -6.7425
        68                         -0.2301828              -6.2636
        69                         -0.2232717              -6.0755
        70                         -0.1968669              -5.3570
       ...                                ...                  ...
       121                          0.7073709              19.2485
      -------------------------------------------------------------
                  HL-Gap            0.0126599 Eh            0.3445 eV
             Fermi-level           -0.3218030 Eh           -8.7567 eV

 transition dipole moment (au) for excitation:          64          65
     X       Y       Z   
  -1.6054  -0.3232  -0.1645  total (au/Debye):    1.646   4.183
 dE (eV)             :    3.304
 oscillator strength :  0.31015E+00

 SCC (total)                   0 d,  0 h,  0 min,  0.120 sec
 SCC setup                      ...        0 min,  0.000 sec (  0.297%)
 Dispersion                     ...        0 min,  0.000 sec (  0.375%)
 classical contributions        ...        0 min,  0.000 sec (  0.122%)
 integral evaluation            ...        0 min,  0.009 sec (  7.188%)
 iterations                     ...        0 min,  0.078 sec ( 64.818%)
 molecular gradient             ...        0 min,  0.025 sec ( 20.446%)
 printout                       ...        0 min,  0.008 sec (  6.748%)

         :::::::::::::::::::::::::::::::::::::::::::::::::::::
         ::                     SUMMARY                     ::
         :::::::::::::::::::::::::::::::::::::::::::::::::::::
         :: total energy             -72.514938961998 Eh    ::
         :: gradient norm              0.110692762499 Eh/a0 ::
         :: HOMO-LUMO gap              0.344492104184 eV    ::
         ::.................................................::
         :: SCC energy               -73.496032961727 Eh    ::
         :: -> isotropic ES            0.097114365724 Eh    ::
         :: -> anisotropic ES          0.003342417600 Eh    ::
         :: -> anisotropic XC          0.017789830137 Eh    ::
         :: -> dispersion             -0.049180070127 Eh    ::
         :: repulsion energy           0.981093999729 Eh    ::
         :: add. restraining           0.000000000000 Eh    ::
         :: total charge               0.000000000005 e     ::
         :::::::::::::::::::::::::::::::::::::::::::::::::::::

           -------------------------------------------------
          |                Property Printout                |
           -------------------------------------------------

    * Orbital Energies and Occupations

         #    Occupation            Energy/Eh            Energy/eV
      -------------------------------------------------------------
         1        2.0000           -1.0513842             -28.6096
       ...           ...                  ...                  ...
        53        2.0000           -0.4483180             -12.1994
        54        2.0000           -0.4470048             -12.1636
        55        2.0000           -0.4424349             -12.0393
        56        2.0000           -0.4372580             -11.8984
        57        2.0000           -0.4351411             -11.8408
        58        2.0000           -0.4328321             -11.7780
        59        2.0000           -0.4126130             -11.2278
        60        2.0000           -0.4120075             -11.2113
        61        1.9996           -0.3937453             -10.7144
        62        1.9872           -0.3904075             -10.6235
        63        1.7940           -0.3875636             -10.5461
        64        1.2193           -0.3850754             -10.4784
        65        0.9987           -0.2636377              -7.1739 (HOMO)
        66        0.0013           -0.2509778              -6.8295 (LUMO)
        67        0.0000           -0.2477841              -6.7425
        68                         -0.2301828              -6.2636
        69                         -0.2232717              -6.0755
        70                         -0.1968669              -5.3570
        71                         -0.1656233              -4.5068
        72                         -0.1298343              -3.5330
        73                         -0.0986835              -2.6853
        74                         -0.0935741              -2.5463
        75                         -0.0051938              -0.1413
        76                          0.0125999               0.3429
       ...                                ...                  ...
       121                          0.7073709              19.2485
      -------------------------------------------------------------
                  HL-Gap            0.0126599 Eh            0.3445 eV
             Fermi-level           -0.3218030 Eh           -8.7567 eV

     #   Z          covCN         q      C6AA      α(0)
     1   6 C        3.754    -0.110    22.660     6.788
     2   6 C        3.042     0.049    26.864     8.501
     3   6 C        3.049    -0.003    28.049     8.686
     4   6 C        3.092    -0.021    28.425     8.738
     5   6 C        3.051     0.037    27.128     8.542
     6   7 N        2.813    -0.025    21.736     6.924
     7   6 C        2.762     0.231    23.151     7.879
     8   6 C        2.973    -0.021    28.527     8.761
     9   6 C        2.926    -0.029    28.737     8.791
    10   6 C        2.954    -0.040    28.986     8.831
    11   6 C        2.889     0.087    26.068     8.371
    12  17 Cl       0.968    -0.176   104.684    15.653
    13   6 C        2.954    -0.042    29.041     8.839
    14   6 C        2.924    -0.035    28.876     8.812
    15   8 O        0.858    -0.411    21.907     6.275
    16   6 C        2.911    -0.033    28.811     8.802
    17   6 C        2.922    -0.076    29.904     8.968
    18   6 C        2.864     0.147    24.810     8.165
    19   8 O        1.706    -0.250    18.134     5.749
    20   6 C        3.643     0.032    20.381     6.490
    21   6 C        2.914    -0.045    29.121     8.849
    22   6 C        3.806    -0.089    22.191     6.706
    23   6 C        2.690     0.366    20.786     7.461
    24   8 O        1.660    -0.379    20.436     6.103
    25   8 O        0.856    -0.392    21.518     6.219
    26   1 H        0.925     0.089     1.891     2.150
    27   1 H        0.925     0.075     2.027     2.226
    28   1 H        0.925     0.048     2.340     2.392
    29   1 H        0.926     0.054     2.267     2.355
    30   1 H        0.926     0.053     2.279     2.361
    31   1 H        0.926     0.049     2.327     2.385
    32   1 H        0.926     0.033     2.540     2.492
    33   1 H        0.926     0.052     2.298     2.370
    34   1 H        0.926     0.045     2.381     2.413
    35   1 H        0.924     0.049     2.328     2.386
    36   1 H        0.924     0.050     2.322     2.383
    37   1 H        0.925     0.069     2.095     2.264
    38   1 H        0.926     0.057     2.233     2.337
    39   1 H        0.924     0.084     1.934     2.175
    40   1 H        0.924     0.086     1.917     2.165
    41   1 H        0.804     0.333     0.630     1.247

 Mol. C6AA /au·bohr⁶  :      23502.202695
 Mol. C8AA /au·bohr⁸  :     597022.315416
 Mol. α(0) /au        :        240.006226


Wiberg/Mayer (AO) data.
largest (>0.10) Wiberg bond orders for each atom

 ---------------------------------------------------------------------------
     #   Z sym  total        # sym  WBO       # sym  WBO       # sym  WBO
 ---------------------------------------------------------------------------
     1   6 C    3.982 --     2 C    1.051    28 H    0.976    27 H    0.958
                            26 H    0.948
     2   6 C    3.819 --     3 C    1.332     6 N    1.163     1 C    1.051
     3   6 C    3.818 --     2 C    1.332     4 C    1.220    22 C    1.030
     4   6 C    3.949 --    21 C    1.313     3 C    1.220     5 C    1.207
     5   6 C    3.922 --    16 C    1.404     4 C    1.207     6 N    1.093
     6   7 N    3.594 --     2 C    1.163     5 C    1.093     7 C    1.062
     7   6 C    3.905 --    15 O    1.587     6 N    1.062     8 C    1.021
     8   6 C    3.912 --     9 C    1.323    14 C    1.319     7 C    1.021
     9   6 C    3.965 --    10 C    1.478     8 C    1.323    29 H    0.967
    10   6 C    3.970 --     9 C    1.478    11 C    1.362    30 H    0.967
    11   6 C    3.826 --    10 C    1.362    13 C    1.350    12 Cl   0.968
    12  17 Cl   1.077 --    11 C    0.968
    13   6 C    3.969 --    14 C    1.488    11 C    1.350    31 H    0.967
    14   6 C    3.979 --    13 C    1.488     8 C    1.319    32 H    0.968
    15   8 O    1.907 --     7 C    1.587
    16   6 C    3.948 --     5 C    1.404    17 C    1.372    33 H    0.962
    17   6 C    3.904 --    16 C    1.372    18 C    1.339    34 H    0.966
    18   6 C    3.894 --    17 C    1.339    21 C    1.333    19 O    1.078
    19   8 O    2.226 --    18 C    1.078    20 C    0.984
    20   6 C    3.938 --    19 O    0.984    37 H    0.978    35 H    0.973
                            36 H    0.973
    21   6 C    3.837 --    18 C    1.333     4 C    1.313    38 H    0.964
    22   6 C    3.988 --     3 C    1.030    40 H    0.949    23 C    0.948
                            39 H    0.934
    23   6 C    3.903 --    25 O    1.783    24 O    1.126    22 C    0.948
    24   8 O    2.191 --    23 C    1.126    41 H    0.864    25 O    0.172
    25   8 O    2.058 --    23 C    1.783    24 O    0.172
    26   1 H    0.978 --     1 C    0.948
    27   1 H    0.987 --     1 C    0.958
    28   1 H    0.995 --     1 C    0.976
    29   1 H    0.996 --     9 C    0.967
    30   1 H    0.996 --    10 C    0.967
    31   1 H    0.996 --    13 C    0.967
    32   1 H    0.998 --    14 C    0.968
    33   1 H    0.997 --    16 C    0.962
    34   1 H    0.998 --    17 C    0.966
    35   1 H    0.993 --    20 C    0.973
    36   1 H    0.993 --    20 C    0.973
    37   1 H    0.995 --    20 C    0.978
    38   1 H    0.996 --    21 C    0.964
    39   1 H    0.988 --    22 C    0.934
    40   1 H    0.990 --    22 C    0.949
    41   1 H    0.888 --    24 O    0.864
 ---------------------------------------------------------------------------

Topologies differ in total number of bonds
Writing topology from bond orders to xtbtopo.mol

molecular dipole:
                 x           y           z       tot (Debye)
 q only:       -2.493      -0.227      -0.692
   full:       -2.472      -0.512      -0.705       6.663
molecular quadrupole (traceless):
                xx          xy          yy          xz          yz          zz
 q only:      -10.783       4.051       9.232       2.482     -13.041       1.551
  q+dip:       -9.010      -3.484       9.739       2.298     -12.832      -0.730
   full:      -10.054      -2.393       9.952      -0.206     -13.265       0.102


           -------------------------------------------------
          | TOTAL ENERGY              -72.514938961998 Eh   |
          | GRADIENT NORM               0.110692762499 Eh/α |
          | HOMO-LUMO GAP               0.344492104184 eV   |
           -------------------------------------------------

------------------------------------------------------------------------
 * finished run on 2025/05/15 at 16:28:23.828     
------------------------------------------------------------------------
 total:
 * wall-time:     0 d,  0 h,  0 min,  0.134 sec
 *  cpu-time:     0 d,  0 h,  0 min,  0.110 sec
 * ratio c/w:     0.822 speedup
 SCF:
 * wall-time:     0 d,  0 h,  0 min,  0.120 sec
 *  cpu-time:     0 d,  0 h,  0 min,  0.098 sec
 * ratio c/w:     0.813 speedup


