41
 energy: -72.628151095140 gnorm: 0.000786944483 xtb: 6.7.1 (edcfbbe)
C            0.51175301777294        3.54273127516633       -0.51288100589636
C           -0.05894546331208        2.18477721729101       -0.34186159020268
C           -1.32746351165246        1.75786030400134       -0.58657997810579
C           -1.38940766241112        0.36296944731364       -0.25363651183203
C           -0.09615932398363       -0.01811178697780        0.16340317956010
N            0.72784583947896        1.10511252346923        0.07766242820248
C            2.07837390459830        1.17808712262386        0.37240779536660
C            2.85221455632532       -0.08072836035879        0.18021140438267
C            3.83295507698983       -0.42596023816313        1.10436364500650
C            4.62057885431885       -1.54400291753019        0.90484506675900
C            4.44348911930466       -2.30153842370100       -0.24341728111826
Cl           5.42716734035170       -3.69602900407695       -0.50455641184188
C            3.49266314215931       -1.95008351806877       -1.19112721836830
C            2.69724771899887       -0.84141424572927       -0.97634070105932
O            2.62250410436756        2.20634484579532        0.70739376248295
C            0.13262223717324       -1.29142088558775        0.65283797526156
C           -0.91249333339176       -2.19931047634431        0.65333876709893
C           -2.18401377504988       -1.84659108057907        0.19257951974615
O           -3.25221261006964       -2.69437904709041        0.15517270446576
C           -3.08638396805994       -4.01439543141449        0.61053782532590
C           -2.42964995758686       -0.55197002740064       -0.25053747035649
C           -2.48963488401769        2.57230365482339       -1.04374770806282
C           -3.20530729984962        3.22771139782665        0.11922205510455
O           -4.37843472006411        3.74972456881254       -0.27116438902121
O           -2.80813946558604        3.30205534233389        1.24754702139281
H            0.72082812666762        3.98534132948635        0.45984480689840
H            1.45108563535029        3.50714587616308       -1.06236209636697
H           -0.19213090543749        4.17933528399881       -1.04174481271178
H            3.96454139793089        0.18578062082322        1.98370888888034
H            5.37109274271549       -1.82399306161801        1.62718648857632
H            3.37993742278837       -2.54047512966147       -2.08655768898513
H            1.95708894907477       -0.56320762890588       -1.71164082725316
H            1.09132316233173       -1.59351705684431        1.04197044080217
H           -0.72482262365221       -3.19023860021262        1.03346355389270
H           -2.33203167294432       -4.55139925266218        0.02575895750508
H           -2.81453190633775       -4.04436958190610        1.67105006270957
H           -4.05430803512777       -4.49524964685693        0.47489694437785
H           -3.42653867494322       -0.28577550266294       -0.56173150188343
H           -2.17631561047755        3.37101213973402       -1.72045375216747
H           -3.21122465413162        1.95154944835968       -1.57665274309377
H           -4.82556229061220        4.17421850632984        0.47799039452839
