----- Optimization -----
      -----------------------------------------------------------      
     |                   =====================                   |     
     |                           x T B                           |     
     |                   =====================                   |     
     |                         S. Grimme                         |     
     |          Mulliken Center for Theoretical Chemistry        |     
     |                    University of Bonn                     |     
      -----------------------------------------------------------      

   * xtb version 6.7.1 (edcfbbe) compiled by 'conda@3ef47c1a292c' on 2024-11-25

   xtb is free software: you can redistribute it and/or modify it under
   the terms of the GNU Lesser General Public License as published by
   the Free Software Foundation, either version 3 of the License, or
   (at your option) any later version.
   
   xtb is distributed in the hope that it will be useful,
   but WITHOUT ANY WARRANTY; without even the implied warranty of
   MERCHANTABILITY or FITNESS FOR A PARTICULAR PURPOSE.  See the
   GNU Lesser General Public License for more details.
   
   Cite this work as:
   * C. Bannwarth, E. Caldeweyher, S. Ehlert, A. Hansen, P. Pracht,
     J. Seibert, S. Spicher, S. Grimme, WIREs Comput. Mol. Sci., 2020, 11,
     e01493. DOI: 10.1002/wcms.1493
   
   for GFN2-xTB:
   * C. Bannwarth, S. Ehlert and S. Grimme., J. Chem. Theory Comput., 2019,
     15, 1652-1671. DOI: 10.1021/acs.jctc.8b01176
   for GFN1-xTB:
   * S. Grimme, C. Bannwarth, P. Shushkov, J. Chem. Theory Comput., 2017,
     13, 1989-2009. DOI: 10.1021/acs.jctc.7b00118
   for GFN0-xTB:
   * P. Pracht, E. Caldeweyher, S. Ehlert, S. Grimme, ChemRxiv, 2019, preprint.
     DOI: 10.26434/chemrxiv.8326202.v1
   for GFN-FF:
   * S. Spicher and S. Grimme, Angew. Chem. Int. Ed., 2020, 59, 15665-15673.
     DOI: 10.1002/anie.202004239
   
   for ALPB and GBSA implicit solvation:
   * S. Ehlert, M. Stahn, S. Spicher, S. Grimme, J. Chem. Theory Comput.,
     2021, 17, 4250-4261. DOI: 10.1021/acs.jctc.1c00471
   
   for ddCOSMO and CPCM-X implicit solvation:
   * M. Stahn, S. Ehlert, S. Grimme, J. Phys. Chem. A,
     2023, XX, XXXX-XXXX. DOI: 10.1021/acs.jpca.3c04382
   
   for DFT-D4:
   * E. Caldeweyher, C. Bannwarth and S. Grimme, J. Chem. Phys., 2017,
     147, 034112. DOI: 10.1063/1.4993215
   * E. Caldeweyher, S. Ehlert, A. Hansen, H. Neugebauer, S. Spicher,
     C. Bannwarth and S. Grimme, J. Chem. Phys., 2019, 150, 154122.
     DOI: 10.1063/1.5090222
   * E. Caldeweyher, J.-M. Mewes, S. Ehlert and S. Grimme, Phys. Chem. Chem. Phys.
     2020, 22, 8499-8512. DOI: 10.1039/D0CP00502A
   
   for sTDA-xTB:
   * S. Grimme and C. Bannwarth, J. Chem. Phys., 2016, 145, 054103.
     DOI: 10.1063/1.4959605
   
   in the mass-spec context:
   * V. Asgeirsson, C. Bauer and S. Grimme, Chem. Sci., 2017, 8, 4879.
     DOI: 10.1039/c7sc00601b
   * J. Koopman and S. Grimme, ACS Omega 2019, 4, 12, 15120-15133.
     DOI: 10.1021/acsomega.9b02011
   
   for metadynamics refer to:
   * S. Grimme, J. Chem. Theory Comput., 2019, 155, 2847-2862
     DOI: 10.1021/acs.jctc.9b00143
   
   for SPH calculations refer to:
   * S. Spicher and S. Grimme, J. Chem. Theory Comput., 2021, 17, 1701-1714
     DOI: 10.1021/acs.jctc.0c01306
   
   for ONIOM refer to:
   * C. Plett, A. Katbashev, S. Ehlert, S. Grimme, M. Bursch,
     Phys. Chem. Chem. Phys., 2023, 25, 17860-17868. DOI: 10.1039/D3CP02178E
   
   for DIPRO refer to:
   * J. Kohn, N. Gildemeister, S. Grimme, D. Fazzi, A. Hansen,
     J. Chem. Phys., 2023, just accepted.
   
   for PTB refer to:
   * S. Grimme, M. Mueller, A. Hansen, J. Chem. Phys., 2023, 158, 124111.
     DOI: 10.1063/5.0137838
   
   with help from (in alphabetical order)
   P. Atkinson, C. Bannwarth, F. Bohle, G. Brandenburg, E. Caldeweyher
   M. Checinski, S. Dohm, S. Ehlert, S. Ehrlich, I. Gerasimov, C. Hölzer
   A. Katbashev, J. Kohn, J. Koopman, C. Lavigne, S. Lehtola, F. März, M. Müller,
   F. Musil, H. Neugebauer, J. Pisarek, C. Plett, P. Pracht, F. Pultar,
   J. Seibert, P. Shushkov, S. Spicher, M. Stahn, M. Steiner, T. Strunk,
   J. Stückrath, T. Rose, and J. Unsleber
   
 * started run on 2025/05/15 at 16:23:34.460     
   ID    Z sym.   atoms
    1    8 O      1, 31, 35, 43, 44
    2    6 C      2, 4-14, 16, 17, 19, 21-24, 26-29, 32-34, 36-42, 45-47, 49
    3    7 N      3, 15, 18, 20, 30, 48
    4   16 S      25, 50
    5    1 H      51-98

           -------------------------------------------------
          |                Calculation Setup                |
           -------------------------------------------------

          program call               : xtb /rds/general/user/hgt20/home/callum/QDESCP/Ritonavir_rdkit_conf_1/Ritonavir_rdkit_conf_1.xyz --opt normal --acc 1 --gfn 2 --chrg 0 --uhf 0 -P 1
          hostname                   : login-c
          coordinate file            : /rds/general/user/hgt20/home/callum/QDESCP/Ritonavir_rdkit_conf_1/Ritonavir_rdkit_conf_1.xyz
          omp threads                :                     1


           -------------------------------------------------
          |                 G F N 2 - x T B                 |
           -------------------------------------------------

        Reference                      10.1021/acs.jctc.8b01176
      * Hamiltonian:
        H0-scaling (s, p, d)           1.850000    2.230000    2.230000
        zeta-weighting                 0.500000
      * Dispersion:
        s8                             2.700000
        a1                             0.520000
        a2                             5.000000
        s9                             5.000000
      * Repulsion:
        kExp                           1.500000    1.000000
        rExp                           1.000000
      * Coulomb:
        alpha                          2.000000
        third order                    shell-resolved
        anisotropic                    true
        a3                             3.000000
        a5                             4.000000
        cn-shift                       1.200000
        cn-exp                         4.000000
        max-rad                        5.000000


          ...................................................
          :                      SETUP                      :
          :.................................................:
          :  # basis functions                 260          :
          :  # atomic orbitals                 258          :
          :  # shells                          150          :
          :  # electrons                       268          :
          :  max. iterations                   250          :
          :  Hamiltonian                  GFN2-xTB          :
          :  restarted?                      false          :
          :  GBSA solvation                  false          :
          :  PC potential                    false          :
          :  electronic temp.          300.0000000     K    :
          :  accuracy                    1.0000000          :
          :  -> integral cutoff          0.2500000E+02      :
          :  -> integral neglect         0.1000000E-07      :
          :  -> SCF convergence          0.1000000E-05 Eh   :
          :  -> wf. convergence          0.1000000E-03 e    :
          :  Broyden damping             0.4000000          :
          :  net charge                          0          :
          :  unpaired electrons                  0          :
          ...................................................

 iter      E             dE          RMSdq      gap      omega  full diag
   1   -149.8446501 -0.149845E+03  0.384E+00    2.84       0.0  T
   2   -150.0394848 -0.194835E+00  0.215E+00    3.17       1.0  T
   3   -150.0390661  0.418743E-03  0.937E-01    3.04       1.0  T
   4   -150.0418245 -0.275846E-02  0.394E-01    2.83       1.0  T
   5   -150.0524989 -0.106744E-01  0.131E-01    2.81       1.0  T
   6   -150.0532455 -0.746616E-03  0.565E-02    2.84       1.0  T
   7   -150.0533230 -0.774708E-04  0.269E-02    2.84       1.0  T
   8   -150.0533487 -0.257562E-04  0.112E-02    2.85       1.0  T
   9   -150.0533514 -0.266226E-05  0.498E-03    2.85       2.0  T
  10   -150.0533521 -0.668382E-06  0.241E-03    2.85       4.2  T
  11   -150.0533524 -0.290623E-06  0.960E-04    2.85      10.5  T
  12   -150.0533524 -0.271002E-07  0.436E-04    2.85      23.2  T

   *** convergence criteria satisfied after 12 iterations ***

         #    Occupation            Energy/Eh            Energy/eV
      -------------------------------------------------------------
         1        2.0000           -0.7546960             -20.5363
       ...           ...                  ...                  ...
       128        2.0000           -0.3988143             -10.8523
       129        2.0000           -0.3984493             -10.8424
       130        2.0000           -0.3967315             -10.7956
       131        2.0000           -0.3940474             -10.7226
       132        2.0000           -0.3897174             -10.6048
       133        2.0000           -0.3829868             -10.4216
       134        2.0000           -0.3805380             -10.3550 (HOMO)
       135                         -0.2757653              -7.5040 (LUMO)
       136                         -0.2630493              -7.1579
       137                         -0.2270926              -6.1795
       138                         -0.2217639              -6.0345
       139                         -0.2209450              -6.0122
       ...                                ...                  ...
       258                          0.6402321              17.4216
      -------------------------------------------------------------
                  HL-Gap            0.1047727 Eh            2.8510 eV
             Fermi-level           -0.3281516 Eh           -8.9295 eV

 SCC (total)                   0 d,  0 h,  0 min,  0.351 sec
 SCC setup                      ...        0 min,  0.002 sec (  0.451%)
 Dispersion                     ...        0 min,  0.002 sec (  0.676%)
 classical contributions        ...        0 min,  0.001 sec (  0.213%)
 integral evaluation            ...        0 min,  0.029 sec (  8.369%)
 iterations                     ...        0 min,  0.180 sec ( 51.364%)
 molecular gradient             ...        0 min,  0.135 sec ( 38.574%)
 printout                       ...        0 min,  0.001 sec (  0.349%)

         :::::::::::::::::::::::::::::::::::::::::::::::::::::
         ::                     SUMMARY                     ::
         :::::::::::::::::::::::::::::::::::::::::::::::::::::
         :: total energy            -148.178024776035 Eh    ::
         :: gradient norm              0.116999474326 Eh/a0 ::
         :: HOMO-LUMO gap              2.851010730956 eV    ::
         ::.................................................::
         :: SCC energy              -150.049143031715 Eh    ::
         :: -> isotropic ES            0.193408047931 Eh    ::
         :: -> anisotropic ES          0.006017455849 Eh    ::
         :: -> anisotropic XC          0.066372924335 Eh    ::
         :: -> dispersion             -0.118091095192 Eh    ::
         :: repulsion energy           1.871118255679 Eh    ::
         :: add. restraining           0.000000000000 Eh    ::
         :: total charge              -0.000000000000 e     ::
         :::::::::::::::::::::::::::::::::::::::::::::::::::::

      ----------------------------------------------------------- 
     |                   =====================                   |
     |                        A N C O P T                        |
     |                   =====================                   |
     |               Approximate Normal Coordinate               |
     |                Rational Function Optimizer                |
      ----------------------------------------------------------- 
      ----------------------------------------------------------- 
     |                   =====================                   |
     |                        A N C O P T                        |
     |                   =====================                   |
     |               Approximate Normal Coordinate               |
     |                Rational Function Optimizer                |
      ----------------------------------------------------------- 

          ...................................................
          :                      SETUP                      :
          :.................................................:
          :   optimization level            normal          :
          :   max. optcycles                   294          :
          :   ANC micro-cycles                  20          :
          :   degrees of freedom               288          :
          :.................................................:
          :   RF solver                   davidson          :
          :   write xtbopt.log                true          :
          :   linear?                        false          :
          :   energy convergence         0.5000000E-05 Eh   :
          :   grad. convergence          0.1000000E-02 Eh/α :
          :   maxmium RF displ.          1.0000000          :
          :   Hlow (freq-cutoff)         0.1000000E-01      :
          :   Hmax (freq-cutoff)         5.0000000          :
          :   S6 in model hess.         20.0000000          :
          ...................................................

generating ANC from exact Hessian ...
Using Lindh-Hessian (1995)
 Shifting diagonal of input Hessian by    9.9689092221638131E-003
 Lowest  eigenvalues of input Hessian
    0.000000    0.000000    0.000000    0.000000    0.000000    0.000000
    0.010000    0.010052    0.010136    0.010173    0.010215    0.010301
    0.010418    0.010493    0.010558    0.010596    0.010677    0.010845
 Highest eigenvalues
    1.946323    2.030626    2.070718    2.186953    2.357352    2.459495


........................................................................
.............................. CYCLE    1 ..............................
........................................................................

 iter      E             dE          RMSdq      gap      omega  full diag
   1   -150.0533524 -0.150053E+03  0.172E-04    2.85       0.0  T
   2   -150.0533524 -0.656712E-09  0.112E-04    2.85      90.1  T
   3   -150.0533524 -0.651596E-09  0.665E-05    2.85     152.0  T
     SCC iter.                  ...        0 min,  0.053 sec
     gradient                   ...        0 min,  0.135 sec
 * total energy  :  -148.1780248 Eh     change       -0.3710085E-08 Eh
   gradient norm :     0.1170020 Eh/α   predicted     0.0000000E+00 (-100.00%)
   displ. norm   :     0.3396755 α      lambda       -0.2168224E-01
   maximum displ.:     0.0765567 α      in ANC's #105, #75, #61, ...

........................................................................
.............................. CYCLE    2 ..............................
........................................................................

 iter      E             dE          RMSdq      gap      omega  full diag
   1   -150.1500923 -0.150150E+03  0.163E-01    2.90       0.0  T
   2   -150.1503866 -0.294371E-03  0.998E-02    2.89       1.0  T
   3   -150.1503536  0.330936E-04  0.599E-02    2.91       1.0  T
   4   -150.1504741 -0.120559E-03  0.264E-02    2.91       1.0  T
   5   -150.1505175 -0.433612E-04  0.539E-03    2.91       1.9  T
   6   -150.1505179 -0.435964E-06  0.275E-03    2.91       3.7  T
   7   -150.1505182 -0.308291E-06  0.107E-03    2.91       9.4  T
   8   -150.1505182 -0.259031E-07  0.438E-04    2.91      23.0  T
   9   -150.1505182 -0.238308E-08  0.209E-04    2.91      48.2  T
     SCC iter.                  ...        0 min,  0.123 sec
     gradient                   ...        0 min,  0.191 sec
 * total energy  :  -148.1926829 Eh     change       -0.1465808E-01 Eh
   gradient norm :     0.0468938 Eh/α   predicted    -0.1210032E-01 ( -17.45%)
   displ. norm   :     0.3356762 α      lambda       -0.5876942E-02
   maximum displ.:     0.1206938 α      in ANC's #28, #18, #61, ...

........................................................................
.............................. CYCLE    3 ..............................
........................................................................

 iter      E             dE          RMSdq      gap      omega  full diag
   1   -150.1953214 -0.150195E+03  0.972E-02    2.92       0.0  T
   2   -150.1955107 -0.189318E-03  0.612E-02    2.91       1.0  T
   3   -150.1955344 -0.236751E-04  0.347E-02    2.92       1.0  T
   4   -150.1955441 -0.972262E-05  0.201E-02    2.93       1.0  T
   5   -150.1955693 -0.251709E-04  0.336E-03    2.93       3.0  T
   6   -150.1955697 -0.340771E-06  0.174E-03    2.93       5.8  T
   7   -150.1955698 -0.114967E-06  0.610E-04    2.93      16.6  T
   8   -150.1955698 -0.556224E-08  0.258E-04    2.93      39.2  T
     SCC iter.                  ...        0 min,  0.103 sec
     gradient                   ...        0 min,  0.164 sec
 * total energy  :  -148.1963087 Eh     change       -0.3625866E-02 Eh
   gradient norm :     0.0162511 Eh/α   predicted    -0.3272855E-02 (  -9.74%)
   displ. norm   :     0.2974029 α      lambda       -0.1475115E-02
   maximum displ.:     0.1403570 α      in ANC's #18, #28, #23, ...

........................................................................
.............................. CYCLE    4 ..............................
........................................................................

 iter      E             dE          RMSdq      gap      omega  full diag
   1   -150.2020917 -0.150202E+03  0.447E-02    2.91       0.0  T
   2   -150.2021243 -0.326299E-04  0.268E-02    2.91       1.0  T
   3   -150.2021249 -0.588092E-06  0.131E-02    2.92       1.0  T
   4   -150.2021253 -0.395812E-06  0.674E-03    2.92       1.5  T
   5   -150.2021289 -0.359697E-05  0.134E-03    2.92       7.6  T
   6   -150.2021289 -0.406862E-07  0.746E-04    2.92      13.5  T
   7   -150.2021290 -0.240606E-07  0.262E-04    2.92      38.6  T
     SCC iter.                  ...        0 min,  0.097 sec
     gradient                   ...        0 min,  0.160 sec
 * total energy  :  -148.1974239 Eh     change       -0.1115143E-02 Eh
   gradient norm :     0.0103385 Eh/α   predicted    -0.8028091E-03 ( -28.01%)
   displ. norm   :     0.4252497 α      lambda       -0.1289563E-02
   maximum displ.:     0.2300790 α      in ANC's #18, #28, #23, ...

........................................................................
.............................. CYCLE    5 ..............................
........................................................................

 iter      E             dE          RMSdq      gap      omega  full diag
   1   -150.2017987 -0.150202E+03  0.557E-02    2.90       0.0  T
   2   -150.2018206 -0.218271E-04  0.324E-02    2.91       1.0  T
   3   -150.2018176  0.298057E-05  0.125E-02    2.91       1.0  T
   4   -150.2018210 -0.339277E-05  0.547E-03    2.92       1.8  T
   5   -150.2018235 -0.250857E-05  0.147E-03    2.91       6.9  T
   6   -150.2018235 -0.346407E-07  0.763E-04    2.91      13.2  T
   7   -150.2018236 -0.258578E-07  0.265E-04    2.91      38.1  T
     SCC iter.                  ...        0 min,  0.095 sec
     gradient                   ...        0 min,  0.168 sec
 * total energy  :  -148.1983419 Eh     change       -0.9180257E-03 Eh
   gradient norm :     0.0088055 Eh/α   predicted    -0.7613850E-03 ( -17.06%)
   displ. norm   :     0.3915910 α      lambda       -0.7193875E-03
   maximum displ.:     0.2247196 α      in ANC's #18, #8, #12, ...

........................................................................
.............................. CYCLE    6 ..............................
........................................................................

 iter      E             dE          RMSdq      gap      omega  full diag
   1   -150.2001431 -0.150200E+03  0.471E-02    2.90       0.0  T
   2   -150.2001493 -0.621873E-05  0.274E-02    2.91       1.0  T
   3   -150.2001386  0.107221E-04  0.131E-02    2.91       1.0  T
   4   -150.2001511 -0.125086E-04  0.336E-03    2.91       3.0  T
   5   -150.2001519 -0.771393E-06  0.117E-03    2.91       8.6  T
   6   -150.2001519 -0.150356E-07  0.538E-04    2.91      18.8  T
   7   -150.2001519 -0.147072E-07  0.204E-04    2.91      49.5  T
     SCC iter.                  ...        0 min,  0.087 sec
     gradient                   ...        0 min,  0.140 sec
 * total energy  :  -148.1988903 Eh     change       -0.5484233E-03 Eh
   gradient norm :     0.0097272 Eh/α   predicted    -0.4148549E-03 ( -24.35%)
   displ. norm   :     0.4173220 α      lambda       -0.6305654E-03
   maximum displ.:     0.2317558 α      in ANC's #18, #8, #12, ...

........................................................................
.............................. CYCLE    7 ..............................
........................................................................

 iter      E             dE          RMSdq      gap      omega  full diag
   1   -150.1991476 -0.150199E+03  0.551E-02    2.91       0.0  T
   2   -150.1991523 -0.470517E-05  0.321E-02    2.91       1.0  T
   3   -150.1991316  0.207390E-04  0.168E-02    2.91       1.0  T
   4   -150.1991560 -0.244290E-04  0.280E-03    2.91       3.6  T
   5   -150.1991563 -0.323055E-06  0.136E-03    2.91       7.4  T
   6   -150.1991564 -0.306049E-07  0.631E-04    2.91      16.0  T
   7   -150.1991564 -0.231561E-07  0.218E-04    2.91      46.3  T
     SCC iter.                  ...        0 min,  0.095 sec
     gradient                   ...        0 min,  0.151 sec
 * total energy  :  -148.1993908 Eh     change       -0.5004375E-03 Eh
   gradient norm :     0.0090885 Eh/α   predicted    -0.3701969E-03 ( -26.03%)
   displ. norm   :     0.4709965 α      lambda       -0.6338584E-03
   maximum displ.:     0.2493609 α      in ANC's #18, #8, #4, ...

........................................................................
.............................. CYCLE    8 ..............................
........................................................................

 iter      E             dE          RMSdq      gap      omega  full diag
   1   -150.1995684 -0.150200E+03  0.663E-02    2.92       0.0  T
   2   -150.1995758 -0.737419E-05  0.384E-02    2.92       1.0  T
   3   -150.1995545  0.212559E-04  0.172E-02    2.92       1.0  T
   4   -150.1995794 -0.249465E-04  0.369E-03    2.92       2.7  T
   5   -150.1995801 -0.682770E-06  0.160E-03    2.92       6.3  T
   6   -150.1995802 -0.279914E-07  0.780E-04    2.92      12.9  T
   7   -150.1995802 -0.375692E-07  0.275E-04    2.92      36.8  T
     SCC iter.                  ...        0 min,  0.100 sec
     gradient                   ...        0 min,  0.149 sec
 * total energy  :  -148.1998788 Eh     change       -0.4880811E-03 Eh
   gradient norm :     0.0076102 Eh/α   predicted    -0.3872364E-03 ( -20.66%)
   displ. norm   :     0.4558905 α      lambda       -0.5085971E-03
   maximum displ.:     0.2213381 α      in ANC's #18, #8, #4, ...

........................................................................
.............................. CYCLE    9 ..............................
........................................................................

 iter      E             dE          RMSdq      gap      omega  full diag
   1   -150.2010274 -0.150201E+03  0.705E-02    2.92       0.0  T
   2   -150.2010366 -0.917225E-05  0.404E-02    2.92       1.0  T
   3   -150.2010257  0.108701E-04  0.133E-02    2.92       1.0  T
   4   -150.2010381 -0.123774E-04  0.457E-03    2.92       2.2  T
   5   -150.2010395 -0.143176E-05  0.161E-03    2.92       6.3  T
   6   -150.2010396 -0.176644E-07  0.733E-04    2.92      13.8  T
   7   -150.2010396 -0.331819E-07  0.291E-04    2.92      34.8  T
     SCC iter.                  ...        0 min,  0.090 sec
     gradient                   ...        0 min,  0.161 sec
 * total energy  :  -148.2002593 Eh     change       -0.3804648E-03 Eh
   gradient norm :     0.0062743 Eh/α   predicted    -0.3071516E-03 ( -19.27%)
   displ. norm   :     0.3906196 α      lambda       -0.3656626E-03
   maximum displ.:     0.1638095 α      in ANC's #4, #18, #8, ...

........................................................................
.............................. CYCLE   10 ..............................
........................................................................

 iter      E             dE          RMSdq      gap      omega  full diag
   1   -150.2035036 -0.150204E+03  0.604E-02    2.92       0.0  T
   2   -150.2035088 -0.518539E-05  0.347E-02    2.92       1.0  T
   3   -150.2035054  0.335496E-05  0.832E-03    2.92       1.2  T
   4   -150.2035095 -0.407528E-05  0.328E-03    2.92       3.1  T
   5   -150.2035101 -0.617306E-06  0.133E-03    2.92       7.6  T
   6   -150.2035101 -0.338167E-07  0.452E-04    2.92      22.4  T
   7   -150.2035101 -0.868292E-08  0.220E-04    2.92      46.0  T
     SCC iter.                  ...        0 min,  0.110 sec
     gradient                   ...        0 min,  0.199 sec
 * total energy  :  -148.2005334 Eh     change       -0.2741016E-03 Eh
   gradient norm :     0.0049215 Eh/α   predicted    -0.2107290E-03 ( -23.12%)
   displ. norm   :     0.3643782 α      lambda       -0.2801663E-03
   maximum displ.:     0.1746995 α      in ANC's #4, #12, #8, ...

........................................................................
.............................. CYCLE   11 ..............................
........................................................................

 iter      E             dE          RMSdq      gap      omega  full diag
   1   -150.2046474 -0.150205E+03  0.551E-02    2.91       0.0  T
   2   -150.2046509 -0.354376E-05  0.315E-02    2.92       1.0  T
   3   -150.2046506  0.289088E-06  0.493E-03    2.92       2.0  T
   4   -150.2046515 -0.923674E-06  0.211E-03    2.92       4.8  T
   5   -150.2046516 -0.883797E-07  0.128E-03    2.92       7.9  T
   6   -150.2046517 -0.902808E-07  0.345E-04    2.92      29.3  T
   7   -150.2046517 -0.390290E-08  0.185E-04    2.92      54.7  T
     SCC iter.                  ...        0 min,  0.115 sec
     gradient                   ...        0 min,  0.249 sec
 * total energy  :  -148.2007492 Eh     change       -0.2157632E-03 Eh
   gradient norm :     0.0045039 Eh/α   predicted    -0.1586825E-03 ( -26.46%)
   displ. norm   :     0.3517063 α      lambda       -0.2487300E-03
   maximum displ.:     0.1847881 α      in ANC's #4, #12, #6, ...

........................................................................
.............................. CYCLE   12 ..............................
........................................................................

 iter      E             dE          RMSdq      gap      omega  full diag
   1   -150.2059991 -0.150206E+03  0.460E-02    2.92       0.0  T
   2   -150.2060012 -0.206110E-05  0.265E-02    2.92       1.0  T
   3   -150.2060003  0.807724E-06  0.471E-03    2.92       2.1  T
   4   -150.2060016 -0.123059E-05  0.201E-03    2.92       5.0  T
   5   -150.2060017 -0.118690E-06  0.103E-03    2.92       9.8  T
   6   -150.2060017 -0.526747E-07  0.305E-04    2.92      33.1  T
   7   -150.2060017 -0.272067E-08  0.161E-04    2.92      62.8  T
     SCC iter.                  ...        0 min,  0.113 sec
     gradient                   ...        0 min,  0.190 sec
 * total energy  :  -148.2009453 Eh     change       -0.1961222E-03 Eh
   gradient norm :     0.0047613 Eh/α   predicted    -0.1397511E-03 ( -28.74%)
   displ. norm   :     0.3974132 α      lambda       -0.2502942E-03
   maximum displ.:     0.2138362 α      in ANC's #4, #12, #6, ...

........................................................................
.............................. CYCLE   13 ..............................
........................................................................

 iter      E             dE          RMSdq      gap      omega  full diag
   1   -150.2044515 -0.150204E+03  0.500E-02    2.92       0.0  T
   2   -150.2044538 -0.235092E-05  0.288E-02    2.92       1.0  T
   3   -150.2044512  0.256751E-05  0.667E-03    2.92       1.5  T
   4   -150.2044543 -0.309347E-05  0.252E-03    2.92       4.0  T
   5   -150.2044546 -0.258646E-06  0.106E-03    2.92       9.5  T
   6   -150.2044546 -0.443548E-07  0.331E-04    2.92      30.6  T
   7   -150.2044546 -0.428079E-08  0.166E-04    2.92      60.9  T
     SCC iter.                  ...        0 min,  0.115 sec
     gradient                   ...        0 min,  0.207 sec
 * total energy  :  -148.2011470 Eh     change       -0.2016769E-03 Eh
   gradient norm :     0.0055025 Eh/α   predicted    -0.1449162E-03 ( -28.14%)
   displ. norm   :     0.4225745 α      lambda       -0.2772367E-03
   maximum displ.:     0.2339916 α      in ANC's #4, #12, #6, ...

........................................................................
.............................. CYCLE   14 ..............................
........................................................................

 iter      E             dE          RMSdq      gap      omega  full diag
   1   -150.2054664 -0.150205E+03  0.454E-02    2.93       0.0  T
   2   -150.2054692 -0.283252E-05  0.262E-02    2.93       1.0  T
   3   -150.2054679  0.129859E-05  0.570E-03    2.93       1.8  T
   4   -150.2054695 -0.160662E-05  0.236E-03    2.93       4.3  T
   5   -150.2054698 -0.294108E-06  0.110E-03    2.93       9.2  T
   6   -150.2054699 -0.481958E-07  0.371E-04    2.93      27.2  T
   7   -150.2054699 -0.646210E-08  0.155E-04    2.93      65.1  T
     SCC iter.                  ...        0 min,  0.135 sec
     gradient                   ...        0 min,  0.158 sec
 * total energy  :  -148.2013588 Eh     change       -0.2118742E-03 Eh
   gradient norm :     0.0061757 Eh/α   predicted    -0.1633726E-03 ( -22.89%)
   displ. norm   :     0.4557561 α      lambda       -0.2699815E-03
   maximum displ.:     0.2594478 α      in ANC's #4, #12, #6, ...

........................................................................
.............................. CYCLE   15 ..............................
........................................................................

 iter      E             dE          RMSdq      gap      omega  full diag
   1   -150.2021840 -0.150202E+03  0.520E-02    2.93       0.0  T
   2   -150.2021876 -0.358199E-05  0.301E-02    2.93       1.0  T
   3   -150.2021827  0.494718E-05  0.882E-03    2.93       1.1  T
   4   -150.2021882 -0.556529E-05  0.301E-03    2.93       3.4  T
   5   -150.2021888 -0.527503E-06  0.116E-03    2.93       8.7  T
   6   -150.2021888 -0.307197E-07  0.345E-04    2.93      29.3  T
   7   -150.2021888 -0.606559E-08  0.172E-04    2.93      58.7  T
     SCC iter.                  ...        0 min,  0.116 sec
     gradient                   ...        0 min,  0.188 sec
 * total energy  :  -148.2015590 Eh     change       -0.2001349E-03 Eh
   gradient norm :     0.0058569 Eh/α   predicted    -0.1630345E-03 ( -18.54%)
   displ. norm   :     0.3987464 α      lambda       -0.2463426E-03
   maximum displ.:     0.2341828 α      in ANC's #4, #12, #6, ...

........................................................................
.............................. CYCLE   16 ..............................
........................................................................

 iter      E             dE          RMSdq      gap      omega  full diag
   1   -150.2033692 -0.150203E+03  0.418E-02    2.93       0.0  T
   2   -150.2033711 -0.191644E-05  0.244E-02    2.93       1.0  T
   3   -150.2033679  0.319574E-05  0.675E-03    2.93       1.5  T
   4   -150.2033715 -0.365795E-05  0.210E-03    2.93       4.8  T
   5   -150.2033718 -0.208410E-06  0.884E-04    2.93      11.4  T
   6   -150.2033718 -0.261597E-07  0.320E-04    2.93      31.6  T
     SCC iter.                  ...        0 min,  0.092 sec
     gradient                   ...        0 min,  0.205 sec
 * total energy  :  -148.2017443 Eh     change       -0.1852830E-03 Eh
   gradient norm :     0.0059276 Eh/α   predicted    -0.1427596E-03 ( -22.95%)
   displ. norm   :     0.4085292 α      lambda       -0.2386789E-03
   maximum displ.:     0.2504864 α      in ANC's #4, #12, #6, ...

........................................................................
.............................. CYCLE   17 ..............................
........................................................................

 iter      E             dE          RMSdq      gap      omega  full diag
   1   -150.2044665 -0.150204E+03  0.418E-02    2.94       0.0  T
   2   -150.2044693 -0.278574E-05  0.245E-02    2.94       1.0  T
   3   -150.2044669  0.236983E-05  0.629E-03    2.94       1.6  T
   4   -150.2044698 -0.286707E-05  0.202E-03    2.94       5.0  T
   5   -150.2044700 -0.231210E-06  0.837E-04    2.94      12.1  T
   6   -150.2044700 -0.119088E-07  0.396E-04    2.94      25.5  T
     SCC iter.                  ...        0 min,  0.107 sec
     gradient                   ...        0 min,  0.201 sec
 * total energy  :  -148.2019283 Eh     change       -0.1840692E-03 Eh
   gradient norm :     0.0050238 Eh/α   predicted    -0.1392589E-03 ( -24.34%)
   displ. norm   :     0.4441480 α      lambda       -0.2496226E-03
   maximum displ.:     0.2701116 α      in ANC's #4, #12, #6, ...

........................................................................
.............................. CYCLE   18 ..............................
........................................................................

 iter      E             dE          RMSdq      gap      omega  full diag
   1   -150.2046943 -0.150205E+03  0.511E-02    2.92       0.0  T
   2   -150.2046982 -0.394420E-05  0.293E-02    2.93       1.0  T
   3   -150.2046965  0.176774E-05  0.673E-03    2.92       1.5  T
   4   -150.2046986 -0.217904E-05  0.276E-03    2.92       3.7  T
   5   -150.2046991 -0.448218E-06  0.113E-03    2.92       8.9  T
   6   -150.2046991 -0.310128E-07  0.451E-04    2.92      22.4  T
   7   -150.2046991 -0.139434E-07  0.180E-04    2.92      56.2  T
     SCC iter.                  ...        0 min,  0.109 sec
     gradient                   ...        0 min,  0.231 sec
 * total energy  :  -148.2021205 Eh     change       -0.1921585E-03 Eh
   gradient norm :     0.0056216 Eh/α   predicted    -0.1494371E-03 ( -22.23%)
   displ. norm   :     0.4378702 α      lambda       -0.2571856E-03
   maximum displ.:     0.2734324 α      in ANC's #4, #12, #6, ...

........................................................................
.............................. CYCLE   19 ..............................
........................................................................

 iter      E             dE          RMSdq      gap      omega  full diag
   1   -150.2075210 -0.150208E+03  0.481E-02    2.93       0.0  T
   2   -150.2075253 -0.428867E-05  0.281E-02    2.93       1.0  T
   3   -150.2075234  0.186477E-05  0.646E-03    2.93       1.6  T
   4   -150.2075257 -0.231995E-05  0.238E-03    2.93       4.3  T
   5   -150.2075261 -0.363656E-06  0.997E-04    2.93      10.1  T
   6   -150.2075261 -0.158198E-07  0.489E-04    2.93      20.7  T
     SCC iter.                  ...        0 min,  0.098 sec
     gradient                   ...        0 min,  0.203 sec
 * total energy  :  -148.2023138 Eh     change       -0.1933233E-03 Eh
   gradient norm :     0.0055243 Eh/α   predicted    -0.1532522E-03 ( -20.73%)
   displ. norm   :     0.4709824 α      lambda       -0.2209098E-03
   maximum displ.:     0.2925625 α      in ANC's #4, #12, #6, ...

........................................................................
.............................. CYCLE   20 ..............................
........................................................................

 iter      E             dE          RMSdq      gap      omega  full diag
   1   -150.2060108 -0.150206E+03  0.538E-02    2.92       0.0  T
   2   -150.2060147 -0.389015E-05  0.311E-02    2.93       1.0  T
   3   -150.2060132  0.153069E-05  0.632E-03    2.93       1.6  T
   4   -150.2060150 -0.176701E-05  0.289E-03    2.93       3.5  T
   5   -150.2060155 -0.514392E-06  0.113E-03    2.93       8.9  T
   6   -150.2060155 -0.313979E-07  0.367E-04    2.93      27.6  T
   7   -150.2060155 -0.743390E-08  0.169E-04    2.93      59.8  T
     SCC iter.                  ...        0 min,  0.104 sec
     gradient                   ...        0 min,  0.226 sec
 * total energy  :  -148.2024846 Eh     change       -0.1708078E-03 Eh
   gradient norm :     0.0060649 Eh/α   predicted    -0.1349581E-03 ( -20.99%)
   displ. norm   :     0.4032813 α      lambda       -0.2260023E-03
   maximum displ.:     0.2529753 α      in ANC's #4, #12, #11, ...
 * RMSD in coord.:     0.6263340 α      energy gain  -0.2445984E-01 Eh

generating ANC from exact Hessian ...
Using Lindh-Hessian (1995)
 Shifting diagonal of input Hessian by    9.9712814527330735E-003
 Lowest  eigenvalues of input Hessian
    0.000000    0.000000    0.000000    0.000000    0.000000    0.000000
    0.010000    0.010053    0.010163    0.010204    0.010255    0.010395
    0.010557    0.010604    0.010628    0.010748    0.010800    0.010987
 Highest eigenvalues
    2.062413    2.138840    2.153330    2.320853    2.415472    2.540771


........................................................................
.............................. CYCLE   21 ..............................
........................................................................

 iter      E             dE          RMSdq      gap      omega  full diag
   1   -150.2089742 -0.150209E+03  0.444E-02    2.93       0.0  T
   2   -150.2089775 -0.329565E-05  0.259E-02    2.93       1.0  T
   3   -150.2089759  0.158669E-05  0.561E-03    2.93       1.8  T
   4   -150.2089777 -0.177409E-05  0.247E-03    2.93       4.1  T
   5   -150.2089781 -0.395804E-06  0.880E-04    2.93      11.5  T
   6   -150.2089781 -0.101723E-07  0.414E-04    2.93      24.4  T
     SCC iter.                  ...        0 min,  0.086 sec
     gradient                   ...        0 min,  0.148 sec
 * total energy  :  -148.2026509 Eh     change       -0.1662629E-03 Eh
   gradient norm :     0.0055345 Eh/α   predicted     0.0000000E+00 (-100.00%)
   displ. norm   :     0.0639662 α      lambda       -0.9074280E-04
   maximum displ.:     0.0216400 α      in ANC's #4, #15, #14, ...

........................................................................
.............................. CYCLE   22 ..............................
........................................................................

 iter      E             dE          RMSdq      gap      omega  full diag
   1   -150.2083700 -0.150208E+03  0.123E-02    2.94       0.0  T
   2   -150.2083706 -0.588446E-06  0.710E-03    2.94       1.4  T
   3   -150.2083703  0.309588E-06  0.272E-03    2.94       3.7  T
   4   -150.2083707 -0.356562E-06  0.105E-03    2.94       9.6  T
   5   -150.2083708 -0.763828E-07  0.327E-04    2.94      30.9  T
   6   -150.2083708 -0.113732E-08  0.158E-04    2.94      63.9  T
     SCC iter.                  ...        0 min,  0.071 sec
     gradient                   ...        0 min,  0.164 sec
 * total energy  :  -148.2027319 Eh     change       -0.8105209E-04 Eh
   gradient norm :     0.0031969 Eh/α   predicted    -0.4882848E-04 ( -39.76%)
   displ. norm   :     0.2117519 α      lambda       -0.2077362E-03
   maximum displ.:     0.0772004 α      in ANC's #4, #15, #14, ...

........................................................................
.............................. CYCLE   23 ..............................
........................................................................

 iter      E             dE          RMSdq      gap      omega  full diag
   1   -150.2068669 -0.150207E+03  0.351E-02    2.95       0.0  T
   2   -150.2068715 -0.464287E-05  0.201E-02    2.94       1.0  T
   3   -150.2068695  0.201022E-05  0.745E-03    2.95       1.4  T
   4   -150.2068718 -0.225591E-05  0.297E-03    2.94       3.4  T
   5   -150.2068724 -0.631120E-06  0.873E-04    2.94      11.6  T
   6   -150.2068724 -0.695715E-08  0.388E-04    2.94      26.0  T
     SCC iter.                  ...        0 min,  0.086 sec
     gradient                   ...        0 min,  0.153 sec
 * total energy  :  -148.2028627 Eh     change       -0.1308099E-03 Eh
   gradient norm :     0.0035200 Eh/α   predicted    -0.1085269E-03 ( -17.03%)
   displ. norm   :     0.1451249 α      lambda       -0.7107751E-04
   maximum displ.:     0.0598878 α      in ANC's #4, #15, #7, ...

........................................................................
.............................. CYCLE   24 ..............................
........................................................................

 iter      E             dE          RMSdq      gap      omega  full diag
   1   -150.2066654 -0.150207E+03  0.214E-02    2.95       0.0  T
   2   -150.2066666 -0.116933E-05  0.122E-02    2.94       1.0  T
   3   -150.2066660  0.588284E-06  0.383E-03    2.94       2.6  T
   4   -150.2066666 -0.634951E-06  0.166E-03    2.94       6.1  T
   5   -150.2066668 -0.187422E-06  0.516E-04    2.94      19.6  T
   6   -150.2066668 -0.198051E-08  0.197E-04    2.94      51.3  T
     SCC iter.                  ...        0 min,  0.098 sec
     gradient                   ...        0 min,  0.175 sec
 * total energy  :  -148.2029199 Eh     change       -0.5711118E-04 Eh
   gradient norm :     0.0039635 Eh/α   predicted    -0.3628856E-04 ( -36.46%)
   displ. norm   :     0.2615722 α      lambda       -0.1186430E-03
   maximum displ.:     0.1124141 α      in ANC's #4, #15, #7, ...

........................................................................
.............................. CYCLE   25 ..............................
........................................................................

 iter      E             dE          RMSdq      gap      omega  full diag
   1   -150.2066839 -0.150207E+03  0.355E-02    2.94       0.0  T
   2   -150.2066861 -0.225112E-05  0.203E-02    2.94       1.0  T
   3   -150.2066831  0.307132E-05  0.720E-03    2.94       1.4  T
   4   -150.2066865 -0.340174E-05  0.259E-03    2.94       3.9  T
   5   -150.2066869 -0.403628E-06  0.859E-04    2.94      11.8  T
   6   -150.2066869 -0.481117E-08  0.315E-04    2.94      32.1  T
     SCC iter.                  ...        0 min,  0.086 sec
     gradient                   ...        0 min,  0.181 sec
 * total energy  :  -148.2030085 Eh     change       -0.8861007E-04 Eh
   gradient norm :     0.0037086 Eh/α   predicted    -0.6338487E-04 ( -28.47%)
   displ. norm   :     0.2690736 α      lambda       -0.1013174E-03
   maximum displ.:     0.1230410 α      in ANC's #4, #15, #7, ...

........................................................................
.............................. CYCLE   26 ..............................
........................................................................

 iter      E             dE          RMSdq      gap      omega  full diag
   1   -150.2067802 -0.150207E+03  0.341E-02    2.94       0.0  T
   2   -150.2067816 -0.132631E-05  0.196E-02    2.93       1.0  T
   3   -150.2067780  0.352620E-05  0.712E-03    2.93       1.4  T
   4   -150.2067821 -0.400754E-05  0.198E-03    2.93       5.1  T
   5   -150.2067822 -0.170284E-06  0.767E-04    2.93      13.2  T
   6   -150.2067822 -0.873152E-08  0.269E-04    2.93      37.6  T
     SCC iter.                  ...        0 min,  0.098 sec
     gradient                   ...        0 min,  0.152 sec
 * total energy  :  -148.2030857 Eh     change       -0.7723826E-04 Eh
   gradient norm :     0.0039513 Eh/α   predicted    -0.5432778E-04 ( -29.66%)
   displ. norm   :     0.2818423 α      lambda       -0.1048202E-03
   maximum displ.:     0.1360379 α      in ANC's #4, #15, #7, ...

........................................................................
.............................. CYCLE   27 ..............................
........................................................................

 iter      E             dE          RMSdq      gap      omega  full diag
   1   -150.2070372 -0.150207E+03  0.331E-02    2.93       0.0  T
   2   -150.2070383 -0.115684E-05  0.191E-02    2.93       1.0  T
   3   -150.2070355  0.279334E-05  0.643E-03    2.93       1.6  T
   4   -150.2070387 -0.315981E-05  0.189E-03    2.93       5.3  T
   5   -150.2070388 -0.162138E-06  0.706E-04    2.93      14.3  T
   6   -150.2070389 -0.916020E-08  0.231E-04    2.93      43.7  T
     SCC iter.                  ...        0 min,  0.101 sec
     gradient                   ...        0 min,  0.150 sec
 * total energy  :  -148.2031688 Eh     change       -0.8311948E-04 Eh
   gradient norm :     0.0044081 Eh/α   predicted    -0.5660444E-04 ( -31.90%)
   displ. norm   :     0.3246696 α      lambda       -0.1284875E-03
   maximum displ.:     0.1637916 α      in ANC's #4, #7, #15, ...

........................................................................
.............................. CYCLE   28 ..............................
........................................................................

 iter      E             dE          RMSdq      gap      omega  full diag
   1   -150.2072244 -0.150207E+03  0.361E-02    2.93       0.0  T
   2   -150.2072264 -0.200938E-05  0.207E-02    2.93       1.0  T
   3   -150.2072254  0.104823E-05  0.503E-03    2.93       2.0  T
   4   -150.2072264 -0.109180E-05  0.235E-03    2.93       4.3  T
   5   -150.2072268 -0.374853E-06  0.827E-04    2.93      12.2  T
   6   -150.2072268 -0.160890E-07  0.230E-04    2.93      43.9  T
     SCC iter.                  ...        0 min,  0.092 sec
     gradient                   ...        0 min,  0.171 sec
 * total energy  :  -148.2032702 Eh     change       -0.1013743E-03 Eh
   gradient norm :     0.0044575 Eh/α   predicted    -0.7101699E-04 ( -29.95%)
   displ. norm   :     0.3564993 α      lambda       -0.1336010E-03
   maximum displ.:     0.1862046 α      in ANC's #4, #7, #6, ...

........................................................................
.............................. CYCLE   29 ..............................
........................................................................

 iter      E             dE          RMSdq      gap      omega  full diag
   1   -150.2068407 -0.150207E+03  0.375E-02    2.93       0.0  T
   2   -150.2068431 -0.243283E-05  0.215E-02    2.94       1.0  T
   3   -150.2068430  0.867488E-07  0.379E-03    2.93       2.7  T
   4   -150.2068434 -0.391051E-06  0.139E-03    2.93       7.3  T
   5   -150.2068435 -0.445867E-07  0.736E-04    2.93      13.7  T
   6   -150.2068435 -0.270397E-07  0.216E-04    2.93      46.9  T
     SCC iter.                  ...        0 min,  0.071 sec
     gradient                   ...        0 min,  0.173 sec
 * total energy  :  -148.2033747 Eh     change       -0.1045245E-03 Eh
   gradient norm :     0.0040675 Eh/α   predicted    -0.7530006E-04 ( -27.96%)
   displ. norm   :     0.3622121 α      lambda       -0.1221482E-03
   maximum displ.:     0.1948745 α      in ANC's #4, #6, #12, ...

........................................................................
.............................. CYCLE   30 ..............................
........................................................................

 iter      E             dE          RMSdq      gap      omega  full diag
   1   -150.2065445 -0.150207E+03  0.358E-02    2.94       0.0  T
   2   -150.2065464 -0.192172E-05  0.208E-02    2.94       1.0  T
   3   -150.2065456  0.856153E-06  0.432E-03    2.94       2.3  T
   4   -150.2065466 -0.100173E-05  0.197E-03    2.94       5.1  T
   5   -150.2065468 -0.240268E-06  0.775E-04    2.94      13.0  T
   6   -150.2065468 -0.132808E-07  0.306E-04    2.94      33.1  T
     SCC iter.                  ...        0 min,  0.070 sec
     gradient                   ...        0 min,  0.151 sec
 * total energy  :  -148.2034708 Eh     change       -0.9603668E-04 Eh
   gradient norm :     0.0038184 Eh/α   predicted    -0.6909071E-04 ( -28.06%)
   displ. norm   :     0.3743538 α      lambda       -0.1137535E-03
   maximum displ.:     0.2053866 α      in ANC's #4, #6, #12, ...

........................................................................
.............................. CYCLE   31 ..............................
........................................................................

 iter      E             dE          RMSdq      gap      omega  full diag
   1   -150.2064780 -0.150206E+03  0.350E-02    2.94       0.0  T
   2   -150.2064792 -0.126978E-05  0.204E-02    2.95       1.0  T
   3   -150.2064776  0.164692E-05  0.499E-03    2.95       2.0  T
   4   -150.2064795 -0.187002E-05  0.176E-03    2.95       5.7  T
   5   -150.2064796 -0.174647E-06  0.696E-04    2.95      14.5  T
   6   -150.2064797 -0.114237E-07  0.278E-04    2.95      36.3  T
     SCC iter.                  ...        0 min,  0.092 sec
     gradient                   ...        0 min,  0.177 sec
 * total energy  :  -148.2035626 Eh     change       -0.9186187E-04 Eh
   gradient norm :     0.0037814 Eh/α   predicted    -0.6484800E-04 ( -29.41%)
   displ. norm   :     0.3943498 α      lambda       -0.1206894E-03
   maximum displ.:     0.2195871 α      in ANC's #4, #6, #12, ...

........................................................................
.............................. CYCLE   32 ..............................
........................................................................

 iter      E             dE          RMSdq      gap      omega  full diag
   1   -150.2075567 -0.150208E+03  0.349E-02    2.95       0.0  T
   2   -150.2075578 -0.118553E-05  0.205E-02    2.95       1.0  T
   3   -150.2075562  0.168512E-05  0.508E-03    2.95       2.0  T
   4   -150.2075580 -0.188287E-05  0.175E-03    2.95       5.8  T
   5   -150.2075582 -0.192823E-06  0.661E-04    2.95      15.3  T
   6   -150.2075582 -0.846643E-08  0.279E-04    2.95      36.2  T
     SCC iter.                  ...        0 min,  0.089 sec
     gradient                   ...        0 min,  0.153 sec
 * total energy  :  -148.2036594 Eh     change       -0.9678065E-04 Eh
   gradient norm :     0.0035961 Eh/α   predicted    -0.6973648E-04 ( -27.94%)
   displ. norm   :     0.4857810 α      lambda       -0.1253553E-03
   maximum displ.:     0.2700265 α      in ANC's #4, #6, #12, ...

........................................................................
.............................. CYCLE   33 ..............................
........................................................................

 iter      E             dE          RMSdq      gap      omega  full diag
   1   -150.2057412 -0.150206E+03  0.433E-02    2.95       0.0  T
   2   -150.2057433 -0.202545E-05  0.254E-02    2.95       1.0  T
   3   -150.2057423  0.953206E-06  0.474E-03    2.95       2.1  T
   4   -150.2057434 -0.109102E-05  0.209E-03    2.95       4.8  T
   5   -150.2057437 -0.297340E-06  0.814E-04    2.95      12.4  T
   6   -150.2057437 -0.165610E-07  0.309E-04    2.95      32.7  T
     SCC iter.                  ...        0 min,  0.071 sec
     gradient                   ...        0 min,  0.166 sec
 * total energy  :  -148.2037481 Eh     change       -0.8865001E-04 Eh
   gradient norm :     0.0046114 Eh/α   predicted    -0.7748718E-04 ( -12.59%)
   displ. norm   :     0.4410870 α      lambda       -0.1808848E-03
   maximum displ.:     0.2398396 α      in ANC's #4, #6, #1, ...

........................................................................
.............................. CYCLE   34 ..............................
........................................................................

 iter      E             dE          RMSdq      gap      omega  full diag
   1   -150.2111948 -0.150211E+03  0.442E-02    2.95       0.0  T
   2   -150.2111979 -0.311613E-05  0.253E-02    2.95       1.0  T
   3   -150.2111974  0.503477E-06  0.491E-03    2.95       2.1  T
   4   -150.2111982 -0.745984E-06  0.240E-03    2.95       4.2  T
   5   -150.2111985 -0.319833E-06  0.991E-04    2.95      10.2  T
   6   -150.2111985 -0.248001E-07  0.340E-04    2.95      29.7  T
     SCC iter.                  ...        0 min,  0.084 sec
     gradient                   ...        0 min,  0.162 sec
 * total energy  :  -148.2038299 Eh     change       -0.8180328E-04 Eh
   gradient norm :     0.0057263 Eh/α   predicted    -0.1080423E-03 (  32.08%)
   displ. norm   :     0.3682816 α      lambda       -0.1070425E-03
   maximum displ.:     0.2087477 α      in ANC's #4, #6, #12, ...

........................................................................
.............................. CYCLE   35 ..............................
........................................................................

 iter      E             dE          RMSdq      gap      omega  full diag
   1   -150.2081715 -0.150208E+03  0.322E-02    2.95       0.0  T
   2   -150.2081725 -0.987488E-06  0.188E-02    2.95       1.0  T
   3   -150.2081721  0.383558E-06  0.299E-03    2.95       3.4  T
   4   -150.2081727 -0.553598E-06  0.127E-03    2.95       8.0  T
   5   -150.2081728 -0.702563E-07  0.596E-04    2.95      16.9  T
   6   -150.2081728 -0.982152E-08  0.245E-04    2.95      41.3  T
     SCC iter.                  ...        0 min,  0.086 sec
     gradient                   ...        0 min,  0.156 sec
 * total energy  :  -148.2039095 Eh     change       -0.7966966E-04 Eh
   gradient norm :     0.0045879 Eh/α   predicted    -0.6078076E-04 ( -23.71%)
   displ. norm   :     0.2954762 α      lambda       -0.1221174E-03
   maximum displ.:     0.1688704 α      in ANC's #4, #6, #1, ...

........................................................................
.............................. CYCLE   36 ..............................
........................................................................

 iter      E             dE          RMSdq      gap      omega  full diag
   1   -150.2068507 -0.150207E+03  0.286E-02    2.95       0.0  T
   2   -150.2068517 -0.103764E-05  0.166E-02    2.95       1.0  T
   3   -150.2068510  0.766743E-06  0.380E-03    2.95       2.7  T
   4   -150.2068519 -0.972663E-06  0.142E-03    2.95       7.1  T
   5   -150.2068520 -0.982947E-07  0.603E-04    2.95      16.7  T
   6   -150.2068520 -0.604567E-08  0.267E-04    2.95      37.8  T
     SCC iter.                  ...        0 min,  0.092 sec
     gradient                   ...        0 min,  0.152 sec
 * total energy  :  -148.2040012 Eh     change       -0.9166160E-04 Eh
   gradient norm :     0.0042182 Eh/α   predicted    -0.6639048E-04 ( -27.57%)
   displ. norm   :     0.3564982 α      lambda       -0.1277553E-03
   maximum displ.:     0.2000874 α      in ANC's #4, #19, #6, ...

........................................................................
.............................. CYCLE   37 ..............................
........................................................................

 iter      E             dE          RMSdq      gap      omega  full diag
   1   -150.2057877 -0.150206E+03  0.376E-02    2.95       0.0  T
   2   -150.2057896 -0.189416E-05  0.216E-02    2.95       1.0  T
   3   -150.2057889  0.641436E-06  0.423E-03    2.95       2.4  T
   4   -150.2057899 -0.930069E-06  0.179E-03    2.95       5.7  T
   5   -150.2057900 -0.157346E-06  0.758E-04    2.95      13.3  T
   6   -150.2057900 -0.121380E-07  0.310E-04    2.95      32.6  T
     SCC iter.                  ...        0 min,  0.071 sec
     gradient                   ...        0 min,  0.176 sec
 * total energy  :  -148.2040939 Eh     change       -0.9271152E-04 Eh
   gradient norm :     0.0044969 Eh/α   predicted    -0.7199830E-04 ( -22.34%)
   displ. norm   :     0.3878195 α      lambda       -0.1022241E-03
   maximum displ.:     0.2217625 α      in ANC's #4, #19, #1, ...

........................................................................
.............................. CYCLE   38 ..............................
........................................................................

 iter      E             dE          RMSdq      gap      omega  full diag
   1   -150.2061774 -0.150206E+03  0.415E-02    2.95       0.0  T
   2   -150.2061792 -0.175026E-05  0.238E-02    2.95       1.0  T
   3   -150.2061788  0.377302E-06  0.383E-03    2.95       2.6  T
   4   -150.2061794 -0.606718E-06  0.216E-03    2.95       4.7  T
   5   -150.2061796 -0.240058E-06  0.867E-04    2.95      11.6  T
   6   -150.2061797 -0.222767E-07  0.265E-04    2.95      38.1  T
     SCC iter.                  ...        0 min,  0.092 sec
     gradient                   ...        0 min,  0.164 sec
 * total energy  :  -148.2041731 Eh     change       -0.7916723E-04 Eh
   gradient norm :     0.0043508 Eh/α   predicted    -0.5880131E-04 ( -25.73%)
   displ. norm   :     0.5356332 α      lambda       -0.1226874E-03
   maximum displ.:     0.3093053 α      in ANC's #4, #1, #6, ...

........................................................................
.............................. CYCLE   39 ..............................
........................................................................

 iter      E             dE          RMSdq      gap      omega  full diag
   1   -150.2048809 -0.150205E+03  0.538E-02    2.95       0.0  T
   2   -150.2048831 -0.215051E-05  0.311E-02    2.95       1.0  T
   3   -150.2048799  0.318147E-05  0.702E-03    2.95       1.4  T
   4   -150.2048838 -0.387652E-05  0.256E-03    2.96       3.9  T
   5   -150.2048840 -0.231176E-06  0.889E-04    2.96      11.4  T
   6   -150.2048840 -0.203151E-07  0.327E-04    2.96      30.9  T
     SCC iter.                  ...        0 min,  0.086 sec
     gradient                   ...        0 min,  0.143 sec
 * total energy  :  -148.2042678 Eh     change       -0.9473515E-04 Eh
   gradient norm :     0.0047972 Eh/α   predicted    -0.7894744E-04 ( -16.67%)
   displ. norm   :     0.4457591 α      lambda       -0.1849730E-03
   maximum displ.:     0.2478545 α      in ANC's #4, #20, #1, ...

........................................................................
.............................. CYCLE   40 ..............................
........................................................................

 iter      E             dE          RMSdq      gap      omega  full diag
   1   -150.2106538 -0.150211E+03  0.539E-02    2.98       0.0  T
   2   -150.2106579 -0.404632E-05  0.307E-02    2.98       1.0  T
   3   -150.2106540  0.387824E-05  0.820E-03    2.98       1.2  T
   4   -150.2106589 -0.486231E-05  0.300E-03    2.98       3.4  T
   5   -150.2106592 -0.340056E-06  0.137E-03    2.98       7.4  T
   6   -150.2106593 -0.601884E-07  0.514E-04    2.98      19.6  T
   7   -150.2106593 -0.144757E-07  0.221E-04    2.98      45.7  T
     SCC iter.                  ...        0 min,  0.091 sec
     gradient                   ...        0 min,  0.152 sec
 * total energy  :  -148.2043590 Eh     change       -0.9116587E-04 Eh
   gradient norm :     0.0056464 Eh/α   predicted    -0.1108654E-03 (  21.61%)
   displ. norm   :     0.6416412 α      lambda       -0.1803568E-03
   maximum displ.:     0.3723854 α      in ANC's #4, #1, #20, ...

........................................................................
.............................. CYCLE   41 ..............................
........................................................................

 iter      E             dE          RMSdq      gap      omega  full diag
   1   -150.2049009 -0.150205E+03  0.620E-02    2.96       0.0  T
   2   -150.2049048 -0.390611E-05  0.358E-02    2.97       1.0  T
   3   -150.2048976  0.718167E-05  0.103E-02    2.97       1.0  T
   4   -150.2049059 -0.828751E-05  0.348E-03    2.97       2.9  T
   5   -150.2049065 -0.544303E-06  0.123E-03    2.97       8.2  T
   6   -150.2049065 -0.207419E-07  0.501E-04    2.97      20.1  T
   7   -150.2049065 -0.151309E-07  0.204E-04    2.97      49.6  T
     SCC iter.                  ...        0 min,  0.116 sec
     gradient                   ...        0 min,  0.149 sec
 * total energy  :  -148.2044671 Eh     change       -0.1081158E-03 Eh
   gradient norm :     0.0066803 Eh/α   predicted    -0.1273041E-03 (  17.75%)
   displ. norm   :     0.2383776 α      lambda       -0.1201893E-03
   maximum displ.:     0.1321978 α      in ANC's #4, #1, #7, ...

........................................................................
.............................. CYCLE   42 ..............................
........................................................................

 iter      E             dE          RMSdq      gap      omega  full diag
   1   -150.2055234 -0.150206E+03  0.252E-02    2.98       0.0  T
   2   -150.2055248 -0.139034E-05  0.146E-02    2.98       1.0  T
   3   -150.2055241  0.728998E-06  0.429E-03    2.98       2.4  T
   4   -150.2055248 -0.723109E-06  0.180E-03    2.98       5.6  T
   5   -150.2055250 -0.264011E-06  0.580E-04    2.98      17.4  T
   6   -150.2055250 -0.474259E-08  0.214E-04    2.98      47.1  T
     SCC iter.                  ...        0 min,  0.108 sec
     gradient                   ...        0 min,  0.140 sec
 * total energy  :  -148.2045533 Eh     change       -0.8621008E-04 Eh
   gradient norm :     0.0057745 Eh/α   predicted    -0.6351268E-04 ( -26.33%)
   displ. norm   :     0.3816002 α      lambda       -0.1705921E-03
   maximum displ.:     0.2074580 α      in ANC's #4, #1, #20, ...
 * RMSD in coord.:     0.6947595 α      energy gain  -0.2068672E-02 Eh

generating ANC from exact Hessian ...
Using Lindh-Hessian (1995)
 Shifting diagonal of input Hessian by    1.0069698771231555E-002
 Lowest  eigenvalues of input Hessian
    0.010000    0.000000    0.000000    0.000000    0.000000    0.000000
    0.000000    0.010150    0.010264    0.010298    0.010334    0.010516
    0.010580    0.010624    0.010701    0.010805    0.010871    0.011086
 Highest eigenvalues
    2.058942    2.140752    2.141318    2.320000    2.414984    2.538134


........................................................................
.............................. CYCLE   43 ..............................
........................................................................

 iter      E             dE          RMSdq      gap      omega  full diag
   1   -150.2084778 -0.150208E+03  0.415E-02    2.98       0.0  T
   2   -150.2084804 -0.263410E-05  0.238E-02    2.98       1.0  T
   3   -150.2084783  0.218374E-05  0.651E-03    2.98       1.6  T
   4   -150.2084808 -0.250961E-05  0.269E-03    2.98       3.8  T
   5   -150.2084812 -0.433303E-06  0.995E-04    2.98      10.1  T
   6   -150.2084812 -0.158765E-07  0.354E-04    2.98      28.5  T
     SCC iter.                  ...        0 min,  0.071 sec
     gradient                   ...        0 min,  0.152 sec
 * total energy  :  -148.2046765 Eh     change       -0.1231712E-03 Eh
   gradient norm :     0.0040706 Eh/α   predicted     0.0000000E+00 (-100.00%)
   displ. norm   :     0.0362282 α      lambda       -0.4484117E-04
   maximum displ.:     0.0113842 α      in ANC's #20, #15, #8, ...

........................................................................
.............................. CYCLE   44 ..............................
........................................................................

 iter      E             dE          RMSdq      gap      omega  full diag
   1   -150.2096656 -0.150210E+03  0.774E-03    2.98       0.0  T
   2   -150.2096658 -0.142576E-06  0.449E-03    2.98       2.2  T
   3   -150.2096655  0.301693E-06  0.221E-03    2.98       4.6  T
   4   -150.2096658 -0.360046E-06  0.564E-04    2.98      17.9  T
   5   -150.2096659 -0.178488E-07  0.229E-04    2.98      44.0  T
     SCC iter.                  ...        0 min,  0.059 sec
     gradient                   ...        0 min,  0.180 sec
 * total energy  :  -148.2047123 Eh     change       -0.3587058E-04 Eh
   gradient norm :     0.0018356 Eh/α   predicted    -0.2286297E-04 ( -36.26%)
   displ. norm   :     0.1480071 α      lambda       -0.5811949E-04
   maximum displ.:     0.0540614 α      in ANC's #20, #15, #8, ...

........................................................................
.............................. CYCLE   45 ..............................
........................................................................

 iter      E             dE          RMSdq      gap      omega  full diag
   1   -150.2111404 -0.150211E+03  0.259E-02    2.99       0.0  T
   2   -150.2111414 -0.103839E-05  0.150E-02    2.99       1.0  T
   3   -150.2111391  0.226173E-05  0.596E-03    2.99       1.7  T
   4   -150.2111418 -0.268345E-05  0.151E-03    2.99       6.7  T
   5   -150.2111419 -0.104978E-06  0.705E-04    2.99      14.3  T
   6   -150.2111419 -0.105128E-07  0.334E-04    2.99      30.2  T
     SCC iter.                  ...        0 min,  0.071 sec
     gradient                   ...        0 min,  0.194 sec
 * total energy  :  -148.2047649 Eh     change       -0.5261245E-04 Eh
   gradient norm :     0.0038638 Eh/α   predicted    -0.3253952E-04 ( -38.15%)
   displ. norm   :     0.0789550 α      lambda       -0.3456208E-04
   maximum displ.:     0.0334881 α      in ANC's #20, #15, #8, ...

........................................................................
.............................. CYCLE   46 ..............................
........................................................................

 iter      E             dE          RMSdq      gap      omega  full diag
   1   -150.2106116 -0.150211E+03  0.118E-02    2.99       0.0  T
   2   -150.2106118 -0.172233E-06  0.681E-03    2.99       1.5  T
   3   -150.2106117  0.631960E-07  0.138E-03    2.99       7.3  T
   4   -150.2106118 -0.977402E-07  0.618E-04    2.99      16.3  T
   5   -150.2106118 -0.137116E-07  0.255E-04    2.99      39.6  T
     SCC iter.                  ...        0 min,  0.059 sec
     gradient                   ...        0 min,  0.170 sec
 * total energy  :  -148.2047977 Eh     change       -0.3277082E-04 Eh
   gradient norm :     0.0035295 Eh/α   predicted    -0.1761323E-04 ( -46.25%)
   displ. norm   :     0.5171707 α      lambda       -0.2166880E-03
   maximum displ.:     0.2271858 α      in ANC's #20, #15, #8, ...

........................................................................
.............................. CYCLE   47 ..............................
........................................................................

 iter      E             dE          RMSdq      gap      omega  full diag
   1   -150.2055709 -0.150206E+03  0.776E-02    2.98       0.0  T
   2   -150.2055780 -0.709042E-05  0.446E-02    2.98       1.0  T
   3   -150.2055766  0.148684E-05  0.784E-03    2.98       1.3  T
   4   -150.2055794 -0.284767E-05  0.386E-03    2.98       2.6  T
   5   -150.2055799 -0.527382E-06  0.158E-03    2.98       6.4  T
   6   -150.2055800 -0.832030E-07  0.575E-04    2.98      17.6  T
   7   -150.2055800 -0.161041E-07  0.260E-04    2.98      38.8  T
     SCC iter.                  ...        0 min,  0.082 sec
     gradient                   ...        0 min,  0.145 sec
 * total energy  :  -148.2049301 Eh     change       -0.1323713E-03 Eh
   gradient norm :     0.0055081 Eh/α   predicted    -0.1373256E-03 (   3.74%)
   displ. norm   :     0.1642058 α      lambda       -0.6312218E-04
   maximum displ.:     0.0753047 α      in ANC's #20, #15, #8, ...

........................................................................
.............................. CYCLE   48 ..............................
........................................................................

 iter      E             dE          RMSdq      gap      omega  full diag
   1   -150.2057213 -0.150206E+03  0.229E-02    2.98       0.0  T
   2   -150.2057222 -0.894243E-06  0.131E-02    2.98       1.0  T
   3   -150.2057221  0.589389E-07  0.236E-03    2.98       4.3  T
   4   -150.2057223 -0.168111E-06  0.114E-03    2.98       8.8  T
   5   -150.2057224 -0.505602E-07  0.587E-04    2.98      17.2  T
   6   -150.2057224 -0.115646E-07  0.193E-04    2.98      52.3  T
     SCC iter.                  ...        0 min,  0.097 sec
     gradient                   ...        0 min,  0.149 sec
 * total energy  :  -148.2049851 Eh     change       -0.5502271E-04 Eh
   gradient norm :     0.0050495 Eh/α   predicted    -0.3241277E-04 ( -41.09%)
   displ. norm   :     0.3675361 α      lambda       -0.1984054E-03
   maximum displ.:     0.1707304 α      in ANC's #20, #15, #8, ...

........................................................................
.............................. CYCLE   49 ..............................
........................................................................

 iter      E             dE          RMSdq      gap      omega  full diag
   1   -150.2089439 -0.150209E+03  0.505E-02    2.99       0.0  T
   2   -150.2089494 -0.553792E-05  0.286E-02    2.99       1.0  T
   3   -150.2089488  0.614253E-06  0.634E-03    3.00       1.6  T
   4   -150.2089501 -0.128578E-05  0.269E-03    3.00       3.8  T
   5   -150.2089504 -0.312400E-06  0.129E-03    3.00       7.8  T
   6   -150.2089505 -0.371068E-07  0.463E-04    3.00      21.8  T
   7   -150.2089505 -0.128034E-07  0.204E-04    3.00      49.6  T
     SCC iter.                  ...        0 min,  0.104 sec
     gradient                   ...        0 min,  0.157 sec
 * total energy  :  -148.2051212 Eh     change       -0.1360853E-03 Eh
   gradient norm :     0.0038193 Eh/α   predicted    -0.1126307E-03 ( -17.24%)
   displ. norm   :     0.5425678 α      lambda       -0.1402619E-03
   maximum displ.:     0.2485212 α      in ANC's #20, #15, #8, ...

........................................................................
.............................. CYCLE   50 ..............................
........................................................................

 iter      E             dE          RMSdq      gap      omega  full diag
   1   -150.2048905 -0.150205E+03  0.747E-02    2.99       0.0  T
   2   -150.2048968 -0.632922E-05  0.424E-02    2.99       1.0  T
   3   -150.2048973 -0.476213E-06  0.605E-03    3.00       1.7  T
   4   -150.2048982 -0.884750E-06  0.303E-03    3.00       3.3  T
   5   -150.2048984 -0.174795E-06  0.150E-03    3.00       6.7  T
   6   -150.2048985 -0.121112E-06  0.480E-04    3.00      21.0  T
   7   -150.2048985 -0.849062E-08  0.270E-04    3.00      37.4  T
     SCC iter.                  ...        0 min,  0.085 sec
     gradient                   ...        0 min,  0.147 sec
 * total energy  :  -148.2051774 Eh     change       -0.5621504E-04 Eh
   gradient norm :     0.0070833 Eh/α   predicted    -0.9078434E-04 (  61.49%)
   displ. norm   :     0.0787280 α      lambda       -0.1273950E-03
   maximum displ.:     0.0245106 α      in ANC's #7, #30, #6, ...

........................................................................
.............................. CYCLE   51 ..............................
........................................................................

 iter      E             dE          RMSdq      gap      omega  full diag
   1   -150.2098209 -0.150210E+03  0.150E-02    3.01       0.0  T
   2   -150.2098223 -0.140449E-05  0.856E-03    3.01       1.2  T
   3   -150.2098223  0.305673E-07  0.278E-03    3.01       3.6  T
   4   -150.2098224 -0.143098E-06  0.929E-04    3.01      10.9  T
   5   -150.2098225 -0.454783E-07  0.428E-04    3.01      23.6  T
     SCC iter.                  ...        0 min,  0.098 sec
     gradient                   ...        0 min,  0.201 sec
 * total energy  :  -148.2052565 Eh     change       -0.7909713E-04 Eh
   gradient norm :     0.0038864 Eh/α   predicted    -0.6409298E-04 ( -18.97%)
   displ. norm   :     0.2419859 α      lambda       -0.6865511E-04
   maximum displ.:     0.0957106 α      in ANC's #20, #15, #8, ...

........................................................................
.............................. CYCLE   52 ..............................
........................................................................

 iter      E             dE          RMSdq      gap      omega  full diag
   1   -150.2106883 -0.150211E+03  0.285E-02    3.02       0.0  T
   2   -150.2106894 -0.106807E-05  0.161E-02    3.02       1.0  T
   3   -150.2106891  0.303670E-06  0.329E-03    3.02       3.1  T
   4   -150.2106896 -0.487311E-06  0.157E-03    3.02       6.5  T
   5   -150.2106897 -0.987969E-07  0.684E-04    3.02      14.8  T
   6   -150.2106897 -0.133521E-07  0.236E-04    3.02      42.8  T
     SCC iter.                  ...        0 min,  0.074 sec
     gradient                   ...        0 min,  0.216 sec
 * total energy  :  -148.2053116 Eh     change       -0.5511008E-04 Eh
   gradient norm :     0.0033547 Eh/α   predicted    -0.3633870E-04 ( -34.06%)
   displ. norm   :     0.3413266 α      lambda       -0.1017981E-03
   maximum displ.:     0.1192589 α      in ANC's #20, #8, #15, ...

........................................................................
.............................. CYCLE   53 ..............................
........................................................................

 iter      E             dE          RMSdq      gap      omega  full diag
   1   -150.2105581 -0.150211E+03  0.378E-02    3.02       0.0  T
   2   -150.2105601 -0.198927E-05  0.213E-02    3.03       1.0  T
   3   -150.2105585  0.153490E-05  0.572E-03    3.03       1.8  T
   4   -150.2105604 -0.187281E-05  0.235E-03    3.03       4.3  T
   5   -150.2105607 -0.261701E-06  0.914E-04    3.03      11.1  T
   6   -150.2105607 -0.175725E-07  0.353E-04    3.03      28.6  T
     SCC iter.                  ...        0 min,  0.109 sec
     gradient                   ...        0 min,  0.202 sec
 * total energy  :  -148.2053839 Eh     change       -0.7224671E-04 Eh
   gradient norm :     0.0025587 Eh/α   predicted    -0.5683286E-04 ( -21.34%)
   displ. norm   :     0.2287960 α      lambda       -0.5974824E-04
   maximum displ.:     0.0854114 α      in ANC's #10, #8, #4, ...

........................................................................
.............................. CYCLE   54 ..............................
........................................................................

 iter      E             dE          RMSdq      gap      omega  full diag
   1   -150.2105730 -0.150211E+03  0.242E-02    3.03       0.0  T
   2   -150.2105740 -0.103115E-05  0.137E-02    3.03       1.0  T
   3   -150.2105725  0.156381E-05  0.514E-03    3.03       2.0  T
   4   -150.2105742 -0.177398E-05  0.170E-03    3.03       5.9  T
   5   -150.2105744 -0.166332E-06  0.591E-04    3.03      17.1  T
   6   -150.2105744 -0.391159E-08  0.213E-04    3.03      47.5  T
     SCC iter.                  ...        0 min,  0.102 sec
     gradient                   ...        0 min,  0.216 sec
 * total energy  :  -148.2054268 Eh     change       -0.4294702E-04 Eh
   gradient norm :     0.0029188 Eh/α   predicted    -0.3143957E-04 ( -26.79%)
   displ. norm   :     0.2223499 α      lambda       -0.4812092E-04
   maximum displ.:     0.0904578 α      in ANC's #10, #8, #4, ...

........................................................................
.............................. CYCLE   55 ..............................
........................................................................

 iter      E             dE          RMSdq      gap      omega  full diag
   1   -150.2098281 -0.150210E+03  0.231E-02    3.03       0.0  T
   2   -150.2098288 -0.673775E-06  0.132E-02    3.03       1.0  T
   3   -150.2098274  0.139032E-05  0.452E-03    3.03       2.2  T
   4   -150.2098290 -0.159681E-05  0.139E-03    3.03       7.3  T
   5   -150.2098291 -0.873026E-07  0.486E-04    3.03      20.8  T
   6   -150.2098291 -0.254661E-08  0.124E-04    3.03      81.5  T
     SCC iter.                  ...        0 min,  0.098 sec
     gradient                   ...        0 min,  0.216 sec
 * total energy  :  -148.2054622 Eh     change       -0.3541966E-04 Eh
   gradient norm :     0.0027303 Eh/α   predicted    -0.2525391E-04 ( -28.70%)
   displ. norm   :     0.1924826 α      lambda       -0.5757201E-04
   maximum displ.:     0.0831375 α      in ANC's #19, #10, #6, ...

........................................................................
.............................. CYCLE   56 ..............................
........................................................................

 iter      E             dE          RMSdq      gap      omega  full diag
   1   -150.2113481 -0.150211E+03  0.270E-02    3.03       0.0  T
   2   -150.2113494 -0.131924E-05  0.156E-02    3.03       1.0  T
   3   -150.2113471  0.233925E-05  0.592E-03    3.03       1.7  T
   4   -150.2113497 -0.264251E-05  0.173E-03    3.03       5.8  T
   5   -150.2113499 -0.173637E-06  0.652E-04    3.03      15.5  T
   6   -150.2113499 -0.743717E-08  0.236E-04    3.03      42.7  T
     SCC iter.                  ...        0 min,  0.071 sec
     gradient                   ...        0 min,  0.192 sec
 * total energy  :  -148.2054833 Eh     change       -0.2109771E-04 Eh
   gradient norm :     0.0036422 Eh/α   predicted    -0.2985385E-04 (  41.50%)
   displ. norm   :     0.1759043 α      lambda       -0.4635497E-04
   maximum displ.:     0.0719504 α      in ANC's #10, #20, #8, ...

........................................................................
.............................. CYCLE   57 ..............................
........................................................................

 iter      E             dE          RMSdq      gap      omega  full diag
   1   -150.2094120 -0.150209E+03  0.203E-02    3.03       0.0  T
   2   -150.2094130 -0.969215E-06  0.115E-02    3.03       1.0  T
   3   -150.2094127  0.285011E-06  0.314E-03    3.03       3.2  T
   4   -150.2094131 -0.384651E-06  0.127E-03    3.03       8.0  T
   5   -150.2094132 -0.887538E-07  0.533E-04    3.03      19.0  T
   6   -150.2094132 -0.494924E-08  0.199E-04    3.03      50.7  T
     SCC iter.                  ...        0 min,  0.098 sec
     gradient                   ...        0 min,  0.197 sec
 * total energy  :  -148.2055048 Eh     change       -0.2149599E-04 Eh
   gradient norm :     0.0022100 Eh/α   predicted    -0.2389536E-04 (  11.16%)
   displ. norm   :     0.0557145 α      lambda       -0.1242399E-04
   maximum displ.:     0.0208487 α      in ANC's #15, #20, #7, ...

........................................................................
.............................. CYCLE   58 ..............................
........................................................................

 iter      E             dE          RMSdq      gap      omega  full diag
   1   -150.2101672 -0.150210E+03  0.661E-03    3.03       0.0  T
   2   -150.2101674 -0.117121E-06  0.370E-03    3.03       2.7  T
   3   -150.2101672  0.169868E-06  0.171E-03    3.03       5.9  T
   4   -150.2101674 -0.194561E-06  0.586E-04    3.03      17.2  T
   5   -150.2101674 -0.210962E-07  0.179E-04    3.03      56.4  T
     SCC iter.                  ...        0 min,  0.092 sec
     gradient                   ...        0 min,  0.202 sec
 * total energy  :  -148.2055143 Eh     change       -0.9507523E-05 Eh
   gradient norm :     0.0011980 Eh/α   predicted    -0.6231367E-05 ( -34.46%)
   displ. norm   :     0.0975753 α      lambda       -0.1487702E-04
   maximum displ.:     0.0378734 α      in ANC's #15, #13, #18, ...

[...]
       130        1.9816           -0.3892222             -10.5913
       131        1.9767           -0.3889940             -10.5851
       132        1.9357           -0.3879882             -10.5577
       133        1.6789           -0.3861555             -10.5078
       134        1.4284           -0.3851706             -10.4810
       135        0.6532           -0.2457949              -6.6884 (HOMO)
       136        0.3468           -0.2445915              -6.6557 (LUMO)
       137                         -0.2287331              -6.2241
       138                         -0.2232496              -6.0749
       139                         -0.2227360              -6.0610
       140                         -0.2221021              -6.0437
       ...                                ...                  ...
       258                          0.6814459              18.5431
      -------------------------------------------------------------
                  HL-Gap            0.0012034 Eh            0.0327 eV
             Fermi-level           -0.3153188 Eh           -8.5803 eV

 transition dipole moment (au) for excitation:         134         135
     X       Y       Z   
  -0.6561  -0.6504   0.7127  total (au/Debye):    1.167   2.966
 dE (eV)             :    3.793
 oscillator strength :  0.17891E+00

 SCC (total)                   0 d,  0 h,  0 min,  0.807 sec
 SCC setup                      ...        0 min,  0.002 sec (  0.189%)
 Dispersion                     ...        0 min,  0.002 sec (  0.301%)
 classical contributions        ...        0 min,  0.001 sec (  0.092%)
 integral evaluation            ...        0 min,  0.082 sec ( 10.127%)
 iterations                     ...        0 min,  0.443 sec ( 54.890%)
 molecular gradient             ...        0 min,  0.251 sec ( 31.150%)
 printout                       ...        0 min,  0.026 sec (  3.249%)

         :::::::::::::::::::::::::::::::::::::::::::::::::::::
         ::                     SUMMARY                     ::
         :::::::::::::::::::::::::::::::::::::::::::::::::::::
         :: total energy            -148.072539461996 Eh    ::
         :: gradient norm              0.096663934252 Eh/a0 ::
         :: HOMO-LUMO gap              0.032745630376 eV    ::
         ::.................................................::
         :: SCC energy              -150.071840472253 Eh    ::
         :: -> isotropic ES            0.191703679825 Eh    ::
         :: -> anisotropic ES         -0.001046164060 Eh    ::
         :: -> anisotropic XC          0.059788222678 Eh    ::
         :: -> dispersion             -0.127707129637 Eh    ::
         :: repulsion energy           1.999301010257 Eh    ::
         :: add. restraining           0.000000000000 Eh    ::
         :: total charge               0.000000000001 e     ::
         :::::::::::::::::::::::::::::::::::::::::::::::::::::

           -------------------------------------------------
          |                Property Printout                |
           -------------------------------------------------

    * Orbital Energies and Occupations

         #    Occupation            Energy/Eh            Energy/eV
      -------------------------------------------------------------
         1        2.0000           -0.7331911             -19.9511
       ...           ...                  ...                  ...
       123        2.0000           -0.4063612             -11.0577
       124        2.0000           -0.4046968             -11.0124
       125        2.0000           -0.4043772             -11.0037
       126        2.0000           -0.4035498             -10.9811
       127        2.0000           -0.4033871             -10.9767
       128        2.0000           -0.3964402             -10.7877
       129        1.9987           -0.3917686             -10.6606
       130        1.9816           -0.3892222             -10.5913
       131        1.9767           -0.3889940             -10.5851
       132        1.9357           -0.3879882             -10.5577
       133        1.6789           -0.3861555             -10.5078
       134        1.4284           -0.3851706             -10.4810
       135        0.6532           -0.2457949              -6.6884 (HOMO)
       136        0.3468           -0.2445915              -6.6557 (LUMO)
       137                         -0.2287331              -6.2241
       138                         -0.2232496              -6.0749
       139                         -0.2227360              -6.0610
       140                         -0.2221021              -6.0437
       141                         -0.2217780              -6.0349
       142                         -0.2066859              -5.6242
       143                         -0.1991838              -5.4201
       144                         -0.1983024              -5.3961
       145                         -0.1888099              -5.1378
       146                         -0.1844555              -5.0193
       ...                                ...                  ...
       258                          0.6814459              18.5431
      -------------------------------------------------------------
                  HL-Gap            0.0012034 Eh            0.0327 eV
             Fermi-level           -0.3153188 Eh           -8.5803 eV

     #   Z          covCN         q      C6AA      α(0)
     1   8 O        0.857    -0.464    23.006     6.431
     2   6 C        2.653     0.404    20.184     7.350
     3   7 N        2.689    -0.208    25.516     7.502
     4   6 C        3.795     0.037    19.967     6.363
     5   6 C        3.811    -0.074    21.908     6.662
     6   6 C        2.971     0.015    27.678     8.630
     7   6 C        2.925    -0.037    28.930     8.821
     8   6 C        2.919    -0.030    28.761     8.794
     9   6 C        2.920    -0.031    28.781     8.798
    10   6 C        2.919    -0.030    28.738     8.791
    11   6 C        2.925    -0.038    28.953     8.824
    12   6 C        3.726     0.104    18.962     6.218
    13   6 C        3.805    -0.083    22.079     6.689
    14   6 C        3.790     0.059    19.604     6.306
    15   7 N        2.688    -0.177    24.838     7.402
    16   6 C        2.751     0.277    22.310     7.734
    17   6 C        3.801     0.023    20.194     6.398
    18   7 N        2.694    -0.212    25.623     7.518
    19   6 C        2.708     0.326    21.463     7.583
    20   7 N        2.738    -0.104    23.276     7.165
    21   6 C        3.701    -0.046    21.561     6.640
    22   6 C        3.750    -0.007    20.765     6.499
    23   6 C        3.217     0.069    25.808     8.263
    24   6 C        2.922    -0.049    29.206     8.862
    25  16 S        2.290    -0.064   143.718    20.177
    26   6 C        3.025     0.103    25.696     8.315
    27   6 C        3.870    -0.010    20.709     6.471
    28   6 C        3.758    -0.107    22.604     6.778
    29   6 C        3.759    -0.104    22.546     6.769
    30   7 N        1.969    -0.260    27.582     7.788
    31   8 O        0.860    -0.528    24.413     6.625
    32   6 C        3.851    -0.017    20.845     6.494
    33   6 C        3.755    -0.107    22.607     6.780
    34   6 C        3.756    -0.116    22.771     6.804
    35   8 O        0.858    -0.437    22.432     6.350
    36   6 C        3.811    -0.074    21.907     6.662
    37   6 C        2.970     0.011    27.763     8.643
    38   6 C        2.925    -0.037    28.928     8.820
    39   6 C        2.919    -0.029    28.727     8.789
    40   6 C        2.920    -0.032    28.796     8.800
    41   6 C        2.919    -0.031    28.762     8.795
    42   6 C        2.925    -0.039    28.981     8.828
    43   8 O        1.654    -0.462    22.099     6.346
    44   8 O        1.707    -0.311    19.193     5.915
    45   6 C        3.718     0.088    19.226     6.263
    46   6 C        2.972    -0.012    28.300     8.726
    47   6 C        3.199     0.035    26.681     8.418
    48   7 N        1.961    -0.215    26.491     7.633
    49   6 C        2.993     0.057    26.714     8.478
    50  16 S        2.295    -0.094   144.996    20.267
    51   1 H        0.860     0.221     1.003     1.569
    52   1 H        0.924     0.067     2.114     2.274
    53   1 H        0.924     0.062     2.172     2.305
    54   1 H        0.924     0.053     2.278     2.360
    55   1 H        0.926     0.043     2.405     2.425
    56   1 H        0.926     0.032     2.561     2.502
    57   1 H        0.926     0.032     2.565     2.504
    58   1 H        0.926     0.033     2.538     2.491
    59   1 H        0.926     0.037     2.483     2.464
    60   1 H        0.924     0.043     2.407     2.426
    61   1 H        0.924     0.059     2.213     2.327
    62   1 H        0.925     0.050     2.319     2.381
    63   1 H        0.924     0.045     2.379     2.412
    64   1 H        0.860     0.192     1.150     1.680
    65   1 H        0.924     0.060     2.204     2.322
    66   1 H        0.860     0.189     1.166     1.691
    67   1 H        0.924     0.054     2.267     2.354
    68   1 H        0.924     0.067     2.115     2.274
    69   1 H        0.925     0.080     1.976     2.198
    70   1 H        0.923     0.058     2.225     2.333
    71   1 H        0.924     0.084     1.938     2.177
    72   1 H        0.926     0.069     2.097     2.265
    73   1 H        0.924     0.040     2.444     2.445
    74   1 H        0.925     0.044     2.397     2.421
    75   1 H        0.925     0.046     2.370     2.407
    76   1 H        0.925     0.053     2.283     2.363
    77   1 H        0.925     0.051     2.307     2.375
    78   1 H        0.925     0.037     2.484     2.465
    79   1 H        0.925     0.045     2.389     2.417
    80   1 H        0.924     0.045     2.388     2.416
    81   1 H        0.925     0.037     2.486     2.466
    82   1 H        0.925     0.044     2.391     2.418
    83   1 H        0.925     0.051     2.308     2.376
    84   1 H        0.925     0.038     2.473     2.459
    85   1 H        0.925     0.050     2.317     2.381
    86   1 H        0.925     0.045     2.389     2.417
    87   1 H        0.924     0.044     2.396     2.421
    88   1 H        0.925     0.072     2.067     2.248
    89   1 H        0.926     0.039     2.458     2.451
    90   1 H        0.926     0.035     2.516     2.480
    91   1 H        0.926     0.031     2.566     2.505
    92   1 H        0.926     0.030     2.582     2.513
    93   1 H        0.926     0.027     2.626     2.534
    94   1 H        0.804     0.323     0.655     1.272
    95   1 H        0.923     0.071     2.070     2.250
    96   1 H        0.924     0.058     2.226     2.333
    97   1 H        0.926     0.040     2.449     2.447
    98   1 H        0.926     0.042     2.423     2.434

 Mol. C6AA /au·bohr⁶  :     109717.417998
 Mol. C8AA /au·bohr⁸  :    2701466.016263
 Mol. α(0) /au        :        512.427352


Wiberg/Mayer (AO) data.
largest (>0.10) Wiberg bond orders for each atom

 ---------------------------------------------------------------------------
     #   Z sym  total        # sym  WBO       # sym  WBO       # sym  WBO
 ---------------------------------------------------------------------------
     1   8 O    1.977 --     2 C    1.632     3 N    0.160    44 O    0.130
     2   6 C    3.938 --     1 O    1.632     3 N    1.225    44 O    1.033
     3   7 N    3.392 --     2 C    1.225     4 C    0.989    51 H    0.882
                             1 O    0.160
     4   6 C    3.948 --     3 N    0.989     5 C    0.963    52 H    0.958
                            12 C    0.950
     5   6 C    3.981 --     6 C    1.013    53 H    0.969    54 H    0.966
                             4 C    0.963
     6   6 C    3.975 --     7 C    1.407    11 C    1.404     5 C    1.013
                             9 C    0.105
     7   6 C    3.984 --     8 C    1.446     6 C    1.407    55 H    0.968
                            10 C    0.109
     8   6 C    3.990 --     7 C    1.446     9 C    1.436    56 H    0.971
                            11 C    0.110
     9   6 C    3.977 --     8 C    1.436    10 C    1.432    57 H    0.971
                             6 C    0.105
    10   6 C    3.990 --    11 C    1.451     9 C    1.432    58 H    0.971
                             7 C    0.109
    11   6 C    3.985 --    10 C    1.451     6 C    1.404    59 H    0.969
                             8 C    0.110
    12   6 C    3.952 --    43 O    1.009    13 C    0.979    60 H    0.960
                             4 C    0.950
    13   6 C    3.986 --    14 C    0.987    12 C    0.979    62 H    0.969
                            61 H    0.966
    14   6 C    3.961 --    13 C    0.987    36 C    0.970    15 N    0.969
                            63 H    0.965
    15   7 N    3.441 --    16 C    1.278    14 C    0.969    64 H    0.929
                            35 O    0.190
    16   6 C    3.945 --    35 O    1.667    15 N    1.278    17 C    0.922
    17   6 C    3.960 --    18 N    0.991    32 C    0.966    65 H    0.954
                            16 C    0.922
    18   7 N    3.335 --    19 C    1.166    17 C    0.991    66 H    0.918
                            31 O    0.121
    19   6 C    3.959 --    31 O    1.494    20 N    1.218    18 N    1.166
    20   7 N    3.461 --    19 C    1.218    21 C    0.996    22 C    0.991
                            31 O    0.139
    21   6 C    3.953 --    20 N    0.996    67 H    0.976    69 H    0.973
                            68 H    0.962
    22   6 C    3.966 --    23 C    0.992    20 N    0.991    71 H    0.953
                            70 H    0.947
    23   6 C    3.833 --    24 C    1.410    30 N    1.273    22 C    0.992
    24   6 C    3.724 --    23 C    1.410    25 S    1.215    72 H    0.956
    25  16 S    2.440 --    24 C    1.215    26 C    0.989    30 N    0.117
    26   6 C    3.663 --    30 N    1.510    27 C    1.017    25 S    0.989
    27   6 C    3.987 --    26 C    1.017    28 C    0.985    29 C    0.980
                            73 H    0.967
    28   6 C    3.978 --    76 H    0.986    27 C    0.985    74 H    0.983
                            75 H    0.983
    29   6 C    3.976 --    78 H    0.987    77 H    0.986    79 H    0.983
                            27 C    0.980
    30   7 N    3.034 --    26 C    1.510    23 C    1.273    25 S    0.117
    31   8 O    1.908 --    19 C    1.494    20 N    0.139    18 N    0.121
    32   6 C    3.990 --    33 C    1.010    34 C    1.009    17 C    0.966
                            80 H    0.965
    33   6 C    3.994 --    32 C    1.010    82 H    0.985    83 H    0.984
                            81 H    0.980
    34   6 C    3.994 --    32 C    1.009    84 H    0.986    85 H    0.985
                            86 H    0.984
    35   8 O    1.997 --    16 C    1.667    15 N    0.190
    36   6 C    3.987 --    37 C    1.011    14 C    0.970    87 H    0.968
                            88 H    0.968
    37   6 C    3.985 --    38 C    1.412    42 C    1.409    36 C    1.011
                            40 C    0.109
    38   6 C    3.990 --    39 C    1.443    37 C    1.412    89 H    0.968
                            41 C    0.110
    39   6 C    3.991 --    38 C    1.443    40 C    1.439    90 H    0.971
                            42 C    0.111
    40   6 C    3.988 --    39 C    1.439    41 C    1.436    91 H    0.971
                            37 C    0.109
    41   6 C    3.992 --    42 C    1.448    40 C    1.436    92 H    0.971
                            38 C    0.110
    42   6 C    3.990 --    41 C    1.448    37 C    1.409    93 H    0.970
                            39 C    0.111
    43   8 O    1.960 --    12 C    1.009    94 H    0.845
    44   8 O    2.214 --     2 C    1.033    45 C    0.941     1 O    0.130
    45   6 C    3.921 --    46 C    1.021    96 H    0.959    44 O    0.941
                            95 H    0.938
    46   6 C    3.718 --    47 C    1.400    50 S    1.152    45 C    1.021
    47   6 C    3.821 --    46 C    1.400    48 N    1.312    97 H    0.960
    48   7 N    3.024 --    49 C    1.514    47 C    1.312    50 S    0.109
    49   6 C    3.651 --    48 N    1.514    50 S    1.051    98 H    0.964
    50  16 S    2.446 --    46 C    1.152    49 C    1.051    48 N    0.109
    51   1 H    0.951 --     3 N    0.882
    52   1 H    0.995 --     4 C    0.958
    53   1 H    0.996 --     5 C    0.969
    54   1 H    0.994 --     5 C    0.966
    55   1 H    0.998 --     7 C    0.968
    56   1 H    0.999 --     8 C    0.971
    57   1 H    0.998 --     9 C    0.971
    58   1 H    0.999 --    10 C    0.971
    59   1 H    0.999 --    11 C    0.969
    60   1 H    0.997 --    12 C    0.960
    61   1 H    0.996 --    13 C    0.966
    62   1 H    0.997 --    13 C    0.969
    63   1 H    0.997 --    14 C    0.965
    64   1 H    0.963 --    15 N    0.929
    65   1 H    0.995 --    17 C    0.954
    66   1 H    0.964 --    18 N    0.918
    67   1 H    0.995 --    21 C    0.976
    68   1 H    0.993 --    21 C    0.962
    69   1 H    0.992 --    21 C    0.973
    70   1 H    0.988 --    22 C    0.947
    71   1 H    0.987 --    22 C    0.953
    72   1 H    0.994 --    24 C    0.956
    73   1 H    0.998 --    27 C    0.967
    74   1 H    0.996 --    28 C    0.983
    75   1 H    0.997 --    28 C    0.983
    76   1 H    0.997 --    28 C    0.986
    77   1 H    0.997 --    29 C    0.986
    78   1 H    0.998 --    29 C    0.987
    79   1 H    0.996 --    29 C    0.983
    80   1 H    0.997 --    32 C    0.965
    81   1 H    0.999 --    33 C    0.980
    82   1 H    0.998 --    33 C    0.985
    83   1 H    0.997 --    33 C    0.984
    84   1 H    0.999 --    34 C    0.986
    85   1 H    0.997 --    34 C    0.985
    86   1 H    0.998 --    34 C    0.984
    87   1 H    0.997 --    36 C    0.968
    88   1 H    0.994 --    36 C    0.968
    89   1 H    0.998 --    38 C    0.968
    90   1 H    0.998 --    39 C    0.971
    91   1 H    0.998 --    40 C    0.971
    92   1 H    0.999 --    41 C    0.971
    93   1 H    0.999 --    42 C    0.970
    94   1 H    0.895 --    43 O    0.845
    95   1 H    0.983 --    45 C    0.938
    96   1 H    0.991 --    45 C    0.959
    97   1 H    0.997 --    47 C    0.960
    98   1 H    0.996 --    49 C    0.964
 ---------------------------------------------------------------------------

Topologies differ in total number of bonds
Writing topology from bond orders to xtbtopo.mol

molecular dipole:
                 x           y           z       tot (Debye)
 q only:        0.904      -2.501      -0.584
   full:        0.911      -2.614      -0.693       7.254
molecular quadrupole (traceless):
                xx          xy          yy          xz          yz          zz
 q only:       16.454       4.623     -10.859      -1.777      -0.238      -5.595
  q+dip:       15.934       1.332      -6.493      -8.014       3.943      -9.440
   full:       14.441      -0.121      -7.474      -5.073       1.498      -6.967


           -------------------------------------------------
          | TOTAL ENERGY             -148.072539461996 Eh   |
          | GRADIENT NORM               0.096663934252 Eh/α |
          | HOMO-LUMO GAP               0.032745630376 eV   |
           -------------------------------------------------

------------------------------------------------------------------------
 * finished run on 2025/05/15 at 16:24:13.781     
------------------------------------------------------------------------
 total:
 * wall-time:     0 d,  0 h,  0 min,  0.879 sec
 *  cpu-time:     0 d,  0 h,  0 min,  0.528 sec
 * ratio c/w:     0.601 speedup
 SCF:
 * wall-time:     0 d,  0 h,  0 min,  0.808 sec
 *  cpu-time:     0 d,  0 h,  0 min,  0.493 sec
 * ratio c/w:     0.611 speedup


