98
 energy: -148.205642904002 gnorm: 0.000784908902 xtb: 6.7.1 (edcfbbe)
O           -2.33764107033215        2.53358538775051        0.51655616267111
C           -1.52293538964520        2.00938634294157       -0.20281022535383
N           -1.76054442891208        1.04596529164764       -1.10582886561937
C           -3.00563240950660        0.30727093783530       -1.12200250301954
C           -3.63434904966018        0.37092744776656       -2.52366745982128
C           -5.03007061658960       -0.18177964936411       -2.51262273071932
C           -5.28832977543620       -1.47332399132094       -2.95249397675861
C           -6.57375103494611       -1.98502042206697       -2.91664426443760
C           -7.61704795311611       -1.21098869343169       -2.43861736846912
C           -7.36808750798050        0.07675855429234       -1.99449163610472
C           -6.08282327247692        0.58653382079240       -2.03067969648890
C           -2.77173055771459       -1.15823979880578       -0.67891371177014
C           -2.11734507869213       -1.17281856742632        0.71497864641011
C           -1.57320947632803       -2.54862536460403        1.11029518333467
N           -0.43735641285280       -2.90420626252502        0.26391903163993
C            0.67059500414048       -2.14836601641007        0.16596477329555
C            1.60245008443615       -2.52932691284417       -0.99717416482961
N            2.28123749721820       -1.33625766423861       -1.47112890007332
C            1.51947911377955       -0.34740913271946       -2.03110114712837
N            2.15969263144152        0.79567336459673       -2.36990209118595
C            1.42432424932492        1.85674490765148       -3.02199309518631
C            3.52822591628657        1.08082463121078       -2.00943914525169
C            3.72274706059371        1.47172086056505       -0.56881705460453
C            2.90240515911405        1.20426773702174        0.48346258116723
S            3.56916330017336        1.83739813714472        1.93664376926209
C            4.92947109066196        2.42978999595518        1.00415773414298
C            6.05550991122463        3.15694784794757        1.65534335222258
C            6.23506872147902        4.52922773560741        1.00409506856236
C            7.33568622086415        2.32606582506462        1.53237689509044
N            4.85194457823905        2.16100602201407       -0.24896013930510
O            0.32725031674046       -0.52452025391084       -2.29514147206048
C            2.63205696843477       -3.60348944106146       -0.60171964509324
C            3.40574773132398       -3.22603483058303        0.66019738398326
C            1.94474843929208       -4.95392219761831       -0.41227164728033
O            0.95718645823648       -1.23587066255015        0.91980669931691
C           -1.15403285620481       -2.58449544846421        2.59034951514150
C           -2.33857078727273       -2.43810062966475        3.50009774135096
C           -2.62509493304229       -1.22251907100341        4.10772024281839
C           -3.73097555818613       -1.08753577931275        4.92879534383804
C           -4.56579536740419       -2.16842190408642        5.15292735333990
C           -4.28845259318568       -3.38496919092664        4.55257515015124
C           -3.18306810660642       -3.51698131524355        3.73185654493678
O           -2.05937301350679       -1.89194024976119       -1.64370062574384
O           -0.19975727841347        2.35378647068313       -0.22081172928906
C            0.18649486521059        3.41464423392126        0.64319580704894
C            0.99240898456105        4.40700591662406       -0.12023329975298
C            0.69479808003098        4.99930556586795       -1.31348864037907
N            1.63878347830967        5.83331988740189       -1.80310488534023
C            2.65367810334619        5.90811544698068       -1.02541297811968
S            2.55184858623250        4.93459167729510        0.40828838779877
H           -0.96704551119155        0.64557613210998       -1.60141553648411
H           -3.66663606199823        0.79190895059759       -0.39629315411017
H           -3.00832993389746       -0.19913535246319       -3.21172993056743
H           -3.64833619046287        1.41515691036021       -2.84138422195574
H           -4.47366325315709       -2.08070164512786       -3.31867813438286
H           -6.76212541258655       -2.99087782194376       -3.26347121520401
H           -8.62083345965559       -1.60921770146750       -2.41239649869578
H           -8.17826390142614        0.68552592487205       -1.62008484601634
H           -5.89139829030561        1.59199116650697       -1.68405565476491
H           -3.74778712015942       -1.65520797774607       -0.61774518140985
H           -1.28514545410317       -0.46865718783456        0.74588160133733
H           -2.85962562367670       -0.85216352966545        1.44584732367360
H           -2.34203468389910       -3.30814082711216        0.93508577818966
H           -0.66779411270883       -3.48137708584937       -0.53018232471472
H            0.99757800904823       -2.89856558002229       -1.83316895575023
H            3.05637067059463       -1.04670882178284       -0.89674822214036
H            1.98809980245295        2.21804705165340       -3.88370936894970
H            1.24190247588764        2.68464943106387       -2.33511491088256
H            0.47091099467186        1.45972215643203       -3.36264926340247
H            4.16609215041966        0.21918109246221       -2.24650441935343
H            3.87752650983353        1.91335635976496       -2.62551349699829
H            1.97053206411446        0.67596491846830        0.51198477958272
H            5.81176864278387        3.28757606445522        2.71455018214168
H            7.07455061588268        5.04991074293867        1.45780557494498
H            5.33884167658364        5.13142487542960        1.13387000490211
H            6.42337851939323        4.40832878030108       -0.05904392054672
H            7.57007168306453        2.16586127595540        0.48343719743141
H            7.21190698938366        1.35859232919364        2.01391730500767
H            8.16467970959766        2.84593907469911        2.00573360152901
H            3.33808427396384       -3.68443340414012       -1.43670530672138
H            3.95485333783214       -2.29545804061386        0.53376520555836
H            4.12366092899601       -4.00713618619531        0.89989599231806
H            2.73016111767662       -3.10755921876537        1.50354120217026
H            1.39717893205646       -5.24091805116901       -1.30722037161349
H            2.68651452702434       -5.72198965088223       -0.20704523705636
H            1.25238411017007       -4.91562554597597        0.42517237313397
H           -0.65809562492284       -3.54011409444914        2.77905327482844
H           -0.43739014284223       -1.78288889581633        2.76671276082126
H           -1.97571554907947       -0.37597008835624        3.93782489718080
H           -3.94070954236270       -0.13576393347859        5.39439616341666
H           -5.42807799547546       -2.06478601410404        5.79485559873415
H           -4.93452179159462       -4.23332999322181        4.72615980923139
H           -2.96819557409100       -4.47040066484327        3.26949233301286
H           -1.24123230829844       -1.41582771152368       -1.87551844801398
H           -0.72558821412535        3.87243187645717        1.05263511021051
H            0.77303778666964        2.99923099228729        1.46953864037051
H           -0.21413355091557        4.85099758054147       -1.86808924588015
H            3.51556575213816        6.51568074137207       -1.21631911245301
