52
 energy: -76.358649840955 gnorm: 0.000509129148 xtb: 6.7.1 (edcfbbe)
H           -0.60409158335666       -0.27767147781866        1.70669087624715
C           -0.77108943195407       -0.41331506360356        0.61407029755356
C           -2.11546020857765        0.12744539536661        0.26284925514396
N           -2.44673649502402        1.45850141747444        0.24786838728959
C           -3.76208433336130        1.57927575525719       -0.10344782509711
C           -4.27887020455733        0.27481005351565       -0.31640088214541
C           -5.61447172176899        0.12025095242340       -0.68505694114844
C           -6.39335886343653        1.24634239783383       -0.83051513454263
C           -5.87109440124666        2.52465972085325       -0.61774985992681
C           -4.55396689464547        2.70904670208323       -0.25295978280181
C           -3.20263237273471       -0.62607061090582       -0.07013659903719
C           -3.13082190448251       -2.11437376903213       -0.10641160232032
C           -1.91044590632916       -2.54633587359470        0.71026538338338
N           -0.73063106185622       -1.82687977255202        0.26314755029863
C            0.51053996855455       -2.41740585483269        0.71546557754627
C            1.69111467901315       -1.77035684080970       -0.01018106463594
C            3.01761770762270       -2.40020583242950        0.40280778113053
C            4.16404913581273       -1.75443244095345       -0.36808849404629
C            4.21099375214067       -0.24749157739069       -0.10391343786361
C            2.86373372636675        0.41005784826673       -0.46337249362357
C            1.70352016142098       -0.26660748103636        0.27178248167393
C            0.35093855841409        0.31566500312509       -0.13180870762421
H            1.85536025758103       -0.09971407850435        1.34284193598225
C            2.96882734622616        1.88399591365420       -0.11188688994909
O            3.90089714156097        2.48075562062599       -0.86655993564898
C            4.13120004958974        3.85712840897222       -0.59611546800823
O            2.32122690100440        2.46742979960449        0.71406075047026
O            4.47599192550522        0.04562180180827        1.25142155785907
H            1.54095663420782       -1.92043824296503       -1.08487095823076
H           -1.82547899515925        2.21697083281544        0.47049706366751
H           -6.02430660277716       -0.86495463725093       -0.85212269718914
H           -7.43105941475153        1.14715194459997       -1.11481390393540
H           -6.51447979570729        3.38345352201319       -0.74164970237814
H           -4.15082732317044        3.69787050082809       -0.08805905963262
H           -4.03710493516063       -2.56103637577778        0.30770307971315
H           -3.02072906264753       -2.46187459846391       -1.13753266285191
H           -2.10787445530422       -2.37146276625128        1.78335746175294
H           -1.73061768796128       -3.61480308742264        0.56922819281969
H            0.48740656957974       -3.48652079351914        0.48699224849430
H            0.64501109801443       -2.30597382880558        1.80861811044026
H            3.00102889161441       -3.47497374636810        0.21192605407636
H            3.16986119281793       -2.24709682415433        1.47328821308479
H            4.03278593321854       -1.91917175825874       -1.43872005768381
H            5.11788860083097       -2.20165732848538       -0.07366323658562
H            4.99425283796613        0.20640902161768       -0.73507418945416
H            2.72858142077052        0.33186194965518       -1.54644552220191
H            0.19474858444073        0.18813559772875       -1.20498709480613
H            0.32277949744880        1.37768005678285        0.10698170220277
H            4.90631813030921        4.17833867901240       -1.28702589548777
H            3.21569300490589        4.43169379566201       -0.75160155802081
H            4.45712823383747        3.98812216171143        0.43739357854144
H            5.24748171519685       -0.45805019210589        1.53211411750598
