31
 energy: -58.959169651901 gnorm: 0.000145368490 xtb: 6.7.1 (edcfbbe)
N            4.95482839714203        0.40158834161602        1.39875337679520
C            4.04542334835502       -0.07965207094227        0.53908553497654
N            4.46785748748598       -0.84130077963547       -0.47392747961298
C            3.58047393453029       -1.32721560229336       -1.32140614036822
Cl           4.22721025404735       -2.29133486675858       -2.57019665641837
N            2.27404176731258       -1.17621777133091       -1.33770436831202
C            1.84550364530339       -0.41281251667649       -0.33073516852968
C            2.66604601243706        0.16795991071169        0.65185487998886
N            1.88964797201449        0.87531595600444        1.53572035246408
C            0.67456335185849        0.72280259283727        1.10847904097919
N            0.57180824990971       -0.04948548975020       -0.01787800546868
C           -0.61501700921165       -0.38121300030513       -0.76315361964239
C           -1.58823478951395       -1.25755514811644        0.03779732590440
C           -2.95952117363290       -0.73444079019710       -0.38042592813079
C           -2.66323614840314        0.73945249237127       -0.72385418351948
O           -1.30496845629980        0.79808639752875       -1.11392067567969
C           -2.96645504256990        1.69570691044277        0.44084440629031
O           -2.50875070077568        1.14799840183536        1.65767882910635
O           -3.39554976241960       -1.47583941869056       -1.49129869745984
H            5.92618084231493        0.19967600461081        1.24482762307217
H            4.65429995728709        0.99568915915767        2.14945552043797
H           -0.19054628250850        1.14734318550418        1.57701189919861
H           -0.26518727264325       -0.88040945851442       -1.67757416745663
H           -1.48477517482396       -2.31025414501411       -0.20915426823264
H           -1.44072164892076       -1.09980190866654        1.10476830844534
H           -3.68702341163173       -0.80220106465803        0.43856006378105
H           -3.25607454451430        1.07172949359471       -1.58663080073963
H           -4.05213460922398        1.86219756363303        0.48212778138281
H           -2.46790888586174        2.65020657973352        0.23004020360698
H           -2.70142047008375        1.76654305714271        2.37058665471826
H           -4.23065983695847       -1.12236201516981       -1.81563164157911
