42
 energy: -62.295783758260 gnorm: 0.000629474499 xtb: 6.7.1 (edcfbbe)
C            3.18556841857553        1.92452156188146        1.49720370322746
C            3.44052368347623        0.41665099061900        1.43704096480787
C            3.07900066291986       -0.14681726742039        0.09166196636748
C            4.03253140218460       -0.48777378380466       -0.84765016206890
C            3.69011323152761       -0.99038043589666       -2.10646614182845
C            2.37724343141319       -1.16807801839772       -2.47508909907894
C            1.38287141721033       -0.83095114548295       -1.55657209153085
C            1.74652804714527       -0.32376176073510       -0.28313672353220
N            0.60128485247348       -0.08290896936585        0.42073205393968
C           -0.47036534843353       -0.39558258571209       -0.36902218365051
C           -0.04080113593099       -0.85987910488306       -1.58118465288781
C           -1.01161689956141       -1.24535604179791       -2.64610789588162
C           -2.32136904908305       -0.51819821929588       -2.32428639855898
O           -2.75119603036254       -0.74687624403139       -0.99862890687353
C           -1.90595581058439       -0.25310608387522        0.03488096610130
C           -2.19947882994719       -1.12237098612926        1.27295267150770
C           -3.65113017822586       -1.04036225416638        1.72928153800288
C           -2.26031644778700        1.24715502023358        0.28339166912501
C           -1.86260840519836        1.78836057129386        1.62542044312483
O           -2.83950934067309        2.51675817810622        2.17049102098936
O           -0.80327477799622        1.63365794213668        2.18175694710462
H            2.13013206387609        2.14553281208458        1.35773876083872
H            3.74758939211426        2.43134453318793        0.71560797788723
H            3.49503974859749        2.32220703108752        2.46129471868108
H            2.85364212992142       -0.07950050859722        2.21466882519781
H            4.49628562189176        0.22328662722684        1.63710826253769
H            5.07794540963275       -0.36544479656695       -0.60177018758229
H            4.48081927106666       -1.24238452782208       -2.79831024581607
H            2.11689026035903       -1.55789821297277       -3.44787551715870
H            0.52767398515013        0.37020792213378        1.31859300356713
H           -1.17796436758092       -2.32660592018975       -2.64262149090237
H           -0.65379192620238       -0.95618630400512       -3.63540903169894
H           -3.14168065357141       -0.88229362292610       -2.94693363929578
H           -2.19291456307897        0.55912906821938       -2.50521019265688
H           -1.96846370774800       -2.15263402584250        0.99641043034029
H           -1.52887453137835       -0.83031732161099        2.08182729207090
H           -3.88933369322291       -0.05353271500135        2.11821533522571
H           -4.30935163697316       -1.25611224488617        0.89279763842532
H           -3.83262431455318       -1.76923826376917        2.51556363464467
H           -3.33563620610406        1.37605343699971        0.15836418018714
H           -1.74982580001545        1.84906985728445       -0.47402798066829
H           -2.56339937532432        2.88081581269026        3.02739853776820
