51
 energy: -84.105349265422 gnorm: 0.000575729026 xtb: 6.7.1 (edcfbbe)
F           -8.76778048691279        1.84402050280685        1.60088765967523
C           -7.72740105068141        1.23586519919924        1.00073979927415
C           -6.62239098894582        1.99166507163434        0.64894348391723
C           -5.55184411449304        1.36896893941938        0.03570049276993
C           -5.58476912005029        0.00057711109508       -0.22905052411936
C           -6.71953045008856       -0.72956768739684        0.12993417586827
C           -7.79346633014923       -0.12353126664228        0.74910227570040
C           -4.48079794894782       -0.74779906154012       -0.89532650054237
C           -3.10397591614931       -0.11385902823883       -0.87949483628806
C           -2.11975304831156       -0.88230742593346       -1.75815493559377
C           -0.73361849973347       -0.25938039431135       -1.65028011994577
N           -0.27510777602941       -0.29108452398314       -0.27284199128123
C           -1.15415092169384        0.49171733181560        0.57218686495153
C           -2.55947221703515       -0.10372225729872        0.55476334349281
C            1.12017465797380        0.07571177102845       -0.14884053163636
C            2.02012251688898       -1.14013040740205       -0.40411779809685
N            3.41945314294768       -0.74474879329998       -0.45404787563928
C            3.92558775734503       -0.41741337362848       -1.69738354789492
N            5.24163386661788       -0.02845986344468       -1.71692170822116
C            6.05045490494783        0.06861102985750       -0.61078076949463
C            7.37947501866038        0.47670567885824       -0.71075071729279
C            8.15581227013286        0.55939672705648        0.42654452060385
C            7.62613450003601        0.24061371792031        1.67297356179001
C            6.31175109845664       -0.15944968362313        1.77854791628007
C            5.51177676962960       -0.24953546083332        0.63962548585570
C            4.11029738886976       -0.66652192270571        0.75006017085491
O            3.56296961059979       -0.93312816139810        1.79792361038794
O            3.27134269078564       -0.46878183500778       -2.71325374800170
O           -4.68281864024819       -1.83498439844000       -1.38735946557361
H           -6.61317362919283        3.05066124376191        0.85409399301025
H           -4.70135179628185        1.96767105827691       -0.24884203279818
H           -6.73582716705718       -1.78661548704513       -0.08858728743970
H           -8.67148034468035       -0.68127355582156        1.03358484108969
H           -3.17686612964023        0.91631344524321       -1.24340346307670
H           -2.45374578663128       -0.87038947280691       -2.79650676321883
H           -2.07973758830839       -1.91958061085553       -1.42596620260482
H           -0.76405715592246        0.77954089543987       -2.03226832441731
H           -0.03074235714340       -0.81859957297906       -2.26859100549884
H           -1.20038418069607        1.54935232215105        0.24711821322518
H           -0.76579591532573        0.46584879196101        1.59310191179564
H           -3.21152090281839        0.46897652608520        1.21656311896338
H           -2.50921053436906       -1.13043259562649        0.91964569370954
H            1.39850809506565        0.88120034688386       -0.85106094589001
H            1.31068548392969        0.42928472265445        0.86722555231470
H            1.89831781225090       -1.85983335304816        0.40576490230716
H            1.77364093422288       -1.60429376550952       -1.35866293451093
H            5.61435224378942        0.20561844468100       -2.62741779504132
H            7.78920441531180        0.72410023338164       -1.67884936964355
H            9.18480305013434        0.87589620161430        0.34594230809255
H            8.24526011018085        0.30885005979879        2.55361802192347
H            5.86891265875884       -0.41154341381429        2.72966927592326
