----- Optimization -----
      -----------------------------------------------------------      
     |                   =====================                   |     
     |                           x T B                           |     
     |                   =====================                   |     
     |                         S. Grimme                         |     
     |          Mulliken Center for Theoretical Chemistry        |     
     |                    University of Bonn                     |     
      -----------------------------------------------------------      

   * xtb version 6.7.1 (edcfbbe) compiled by 'conda@3ef47c1a292c' on 2024-11-25

   xtb is free software: you can redistribute it and/or modify it under
   the terms of the GNU Lesser General Public License as published by
   the Free Software Foundation, either version 3 of the License, or
   (at your option) any later version.
   
   xtb is distributed in the hope that it will be useful,
   but WITHOUT ANY WARRANTY; without even the implied warranty of
   MERCHANTABILITY or FITNESS FOR A PARTICULAR PURPOSE.  See the
   GNU Lesser General Public License for more details.
   
   Cite this work as:
   * C. Bannwarth, E. Caldeweyher, S. Ehlert, A. Hansen, P. Pracht,
     J. Seibert, S. Spicher, S. Grimme, WIREs Comput. Mol. Sci., 2020, 11,
     e01493. DOI: 10.1002/wcms.1493
   
   for GFN2-xTB:
   * C. Bannwarth, S. Ehlert and S. Grimme., J. Chem. Theory Comput., 2019,
     15, 1652-1671. DOI: 10.1021/acs.jctc.8b01176
   for GFN1-xTB:
   * S. Grimme, C. Bannwarth, P. Shushkov, J. Chem. Theory Comput., 2017,
     13, 1989-2009. DOI: 10.1021/acs.jctc.7b00118
   for GFN0-xTB:
   * P. Pracht, E. Caldeweyher, S. Ehlert, S. Grimme, ChemRxiv, 2019, preprint.
     DOI: 10.26434/chemrxiv.8326202.v1
   for GFN-FF:
   * S. Spicher and S. Grimme, Angew. Chem. Int. Ed., 2020, 59, 15665-15673.
     DOI: 10.1002/anie.202004239
   
   for ALPB and GBSA implicit solvation:
   * S. Ehlert, M. Stahn, S. Spicher, S. Grimme, J. Chem. Theory Comput.,
     2021, 17, 4250-4261. DOI: 10.1021/acs.jctc.1c00471
   
   for ddCOSMO and CPCM-X implicit solvation:
   * M. Stahn, S. Ehlert, S. Grimme, J. Phys. Chem. A,
     2023, XX, XXXX-XXXX. DOI: 10.1021/acs.jpca.3c04382
   
   for DFT-D4:
   * E. Caldeweyher, C. Bannwarth and S. Grimme, J. Chem. Phys., 2017,
     147, 034112. DOI: 10.1063/1.4993215
   * E. Caldeweyher, S. Ehlert, A. Hansen, H. Neugebauer, S. Spicher,
     C. Bannwarth and S. Grimme, J. Chem. Phys., 2019, 150, 154122.
     DOI: 10.1063/1.5090222
   * E. Caldeweyher, J.-M. Mewes, S. Ehlert and S. Grimme, Phys. Chem. Chem. Phys.
     2020, 22, 8499-8512. DOI: 10.1039/D0CP00502A
   
   for sTDA-xTB:
   * S. Grimme and C. Bannwarth, J. Chem. Phys., 2016, 145, 054103.
     DOI: 10.1063/1.4959605
   
   in the mass-spec context:
   * V. Asgeirsson, C. Bauer and S. Grimme, Chem. Sci., 2017, 8, 4879.
     DOI: 10.1039/c7sc00601b
   * J. Koopman and S. Grimme, ACS Omega 2019, 4, 12, 15120-15133.
     DOI: 10.1021/acsomega.9b02011
   
   for metadynamics refer to:
   * S. Grimme, J. Chem. Theory Comput., 2019, 155, 2847-2862
     DOI: 10.1021/acs.jctc.9b00143
   
   for SPH calculations refer to:
   * S. Spicher and S. Grimme, J. Chem. Theory Comput., 2021, 17, 1701-1714
     DOI: 10.1021/acs.jctc.0c01306
   
   for ONIOM refer to:
   * C. Plett, A. Katbashev, S. Ehlert, S. Grimme, M. Bursch,
     Phys. Chem. Chem. Phys., 2023, 25, 17860-17868. DOI: 10.1039/D3CP02178E
   
   for DIPRO refer to:
   * J. Kohn, N. Gildemeister, S. Grimme, D. Fazzi, A. Hansen,
     J. Chem. Phys., 2023, just accepted.
   
   for PTB refer to:
   * S. Grimme, M. Mueller, A. Hansen, J. Chem. Phys., 2023, 158, 124111.
     DOI: 10.1063/5.0137838
   
   with help from (in alphabetical order)
   P. Atkinson, C. Bannwarth, F. Bohle, G. Brandenburg, E. Caldeweyher
   M. Checinski, S. Dohm, S. Ehlert, S. Ehrlich, I. Gerasimov, C. Hölzer
   A. Katbashev, J. Kohn, J. Koopman, C. Lavigne, S. Lehtola, F. März, M. Müller,
   F. Musil, H. Neugebauer, J. Pisarek, C. Plett, P. Pracht, F. Pultar,
   J. Seibert, P. Shushkov, S. Spicher, M. Stahn, M. Steiner, T. Strunk,
   J. Stückrath, T. Rose, and J. Unsleber
   
 * started run on 2025/05/15 at 16:35:55.445     
   ID    Z sym.   atoms
    1    8 O      1, 21
    2    6 C      2, 3, 5-15, 17-20, 22-24
    3    7 N      4, 16
    4    1 H      25-48

           -------------------------------------------------
          |                Calculation Setup                |
           -------------------------------------------------

          program call               : xtb /rds/general/user/hgt20/home/callum/QDESCP/Quinine_rdkit_conf_8/Quinine_rdkit_conf_8.xyz --opt normal --acc 1 --gfn 2 --chrg 0 --uhf 0 -P 1
          hostname                   : login-c
          coordinate file            : /rds/general/user/hgt20/home/callum/QDESCP/Quinine_rdkit_conf_8/Quinine_rdkit_conf_8.xyz
          omp threads                :                     1


           -------------------------------------------------
          |                 G F N 2 - x T B                 |
           -------------------------------------------------

        Reference                      10.1021/acs.jctc.8b01176
      * Hamiltonian:
        H0-scaling (s, p, d)           1.850000    2.230000    2.230000
        zeta-weighting                 0.500000
      * Dispersion:
        s8                             2.700000
        a1                             0.520000
        a2                             5.000000
        s9                             5.000000
      * Repulsion:
        kExp                           1.500000    1.000000
        rExp                           1.000000
      * Coulomb:
        alpha                          2.000000
        third order                    shell-resolved
        anisotropic                    true
        a3                             3.000000
        a5                             4.000000
        cn-shift                       1.200000
        cn-exp                         4.000000
        max-rad                        5.000000


          ...................................................
          :                      SETUP                      :
          :.................................................:
          :  # basis functions                 120          :
          :  # atomic orbitals                 120          :
          :  # shells                           72          :
          :  # electrons                       126          :
          :  max. iterations                   250          :
          :  Hamiltonian                  GFN2-xTB          :
          :  restarted?                      false          :
          :  GBSA solvation                  false          :
          :  PC potential                    false          :
          :  electronic temp.          300.0000000     K    :
          :  accuracy                    1.0000000          :
          :  -> integral cutoff          0.2500000E+02      :
          :  -> integral neglect         0.1000000E-07      :
          :  -> SCF convergence          0.1000000E-05 Eh   :
          :  -> wf. convergence          0.1000000E-03 e    :
          :  Broyden damping             0.4000000          :
          :  net charge                          0          :
          :  unpaired electrons                  0          :
          ...................................................

 iter      E             dE          RMSdq      gap      omega  full diag
   1    -69.8870210 -0.698870E+02  0.385E+00    2.53       0.0  T
   2    -69.9533048 -0.662838E-01  0.229E+00    2.50       1.0  T
   3    -69.9379867  0.153181E-01  0.965E-01    2.33       1.0  T
   4    -69.9558029 -0.178163E-01  0.421E-01    2.32       1.0  T
   5    -69.9615991 -0.579614E-02  0.110E-01    2.24       1.0  T
   6    -69.9619868 -0.387731E-03  0.525E-02    2.28       1.0  T
   7    -69.9620311 -0.442984E-04  0.248E-02    2.27       1.0  T
   8    -69.9620399 -0.875726E-05  0.954E-03    2.27       1.5  T
   9    -69.9620412 -0.131512E-05  0.294E-03    2.27       4.9  T
  10    -69.9620413 -0.982858E-07  0.132E-03    2.27      11.0  T
  11    -69.9620413 -0.315449E-07  0.616E-04    2.27      23.4  T
  12    -69.9620413 -0.251542E-08  0.301E-04    2.27      48.0  T

   *** convergence criteria satisfied after 12 iterations ***

         #    Occupation            Energy/Eh            Energy/eV
      -------------------------------------------------------------
         1        2.0000           -0.7146984             -19.4479
       ...           ...                  ...                  ...
        57        2.0000           -0.4229708             -11.5096
        58        2.0000           -0.4077013             -11.0941
        59        2.0000           -0.4029311             -10.9643
        60        2.0000           -0.3956955             -10.7674
        61        2.0000           -0.3753463             -10.2137
        62        2.0000           -0.3719347             -10.1209
        63        2.0000           -0.3597486              -9.7893 (HOMO)
        64                         -0.2763084              -7.5187 (LUMO)
        65                         -0.2263273              -6.1587
        66                         -0.2151335              -5.8541
        67                         -0.1989865              -5.4147
        68                         -0.1518692              -4.1326
       ...                                ...                  ...
       120                          0.6748028              18.3623
      -------------------------------------------------------------
                  HL-Gap            0.0834402 Eh            2.2705 eV
             Fermi-level           -0.3180285 Eh           -8.6540 eV

 SCC (total)                   0 d,  0 h,  0 min,  0.072 sec
 SCC setup                      ...        0 min,  0.000 sec (  0.605%)
 Dispersion                     ...        0 min,  0.001 sec (  0.817%)
 classical contributions        ...        0 min,  0.000 sec (  0.256%)
 integral evaluation            ...        0 min,  0.009 sec ( 12.820%)
 iterations                     ...        0 min,  0.030 sec ( 41.270%)
 molecular gradient             ...        0 min,  0.032 sec ( 43.960%)
 printout                       ...        0 min,  0.000 sec (  0.263%)

         :::::::::::::::::::::::::::::::::::::::::::::::::::::
         ::                     SUMMARY                     ::
         :::::::::::::::::::::::::::::::::::::::::::::::::::::
         :: total energy             -69.029507788252 Eh    ::
         :: gradient norm              0.105267845047 Eh/a0 ::
         :: HOMO-LUMO gap              2.270522484187 eV    ::
         ::.................................................::
         :: SCC energy               -69.960996307304 Eh    ::
         :: -> isotropic ES            0.056569710427 Eh    ::
         :: -> anisotropic ES          0.008154721918 Eh    ::
         :: -> anisotropic XC          0.037768214393 Eh    ::
         :: -> dispersion             -0.053835842210 Eh    ::
         :: repulsion energy           0.931488519052 Eh    ::
         :: add. restraining           0.000000000000 Eh    ::
         :: total charge               0.000000000000 e     ::
         :::::::::::::::::::::::::::::::::::::::::::::::::::::

      ----------------------------------------------------------- 
     |                   =====================                   |
     |                        A N C O P T                        |
     |                   =====================                   |
     |               Approximate Normal Coordinate               |
     |                Rational Function Optimizer                |
      ----------------------------------------------------------- 
      ----------------------------------------------------------- 
     |                   =====================                   |
     |                        A N C O P T                        |
     |                   =====================                   |
     |               Approximate Normal Coordinate               |
     |                Rational Function Optimizer                |
      ----------------------------------------------------------- 

          ...................................................
          :                      SETUP                      :
          :.................................................:
          :   optimization level            normal          :
          :   max. optcycles                   200          :
          :   ANC micro-cycles                  20          :
          :   degrees of freedom               138          :
          :.................................................:
          :   RF solver                   davidson          :
          :   write xtbopt.log                true          :
          :   linear?                        false          :
          :   energy convergence         0.5000000E-05 Eh   :
          :   grad. convergence          0.1000000E-02 Eh/α :
          :   maxmium RF displ.          1.0000000          :
          :   Hlow (freq-cutoff)         0.1000000E-01      :
          :   Hmax (freq-cutoff)         5.0000000          :
          :   S6 in model hess.         20.0000000          :
          ...................................................

generating ANC from exact Hessian ...
Using Lindh-Hessian (1995)
 Shifting diagonal of input Hessian by    9.7795732351152204E-003
 Lowest  eigenvalues of input Hessian
    0.000000    0.000000    0.000000    0.000000    0.000000    0.000000
    0.010000    0.010098    0.010390    0.010746    0.011595    0.012784
    0.013522    0.013824    0.014387    0.014686    0.015960    0.016171
 Highest eigenvalues
    1.856804    1.858776    1.921023    2.001106    2.052527    2.168155


........................................................................
.............................. CYCLE    1 ..............................
........................................................................

 iter      E             dE          RMSdq      gap      omega  full diag
   1    -69.9620413 -0.699620E+02  0.121E-04    2.27       0.0  T
   2    -69.9620413 -0.627836E-10  0.106E-04    2.27     136.1  T
   3    -69.9620413 -0.388695E-09  0.460E-05    2.27     313.7  T
     SCC iter.                  ...        0 min,  0.008 sec
     gradient                   ...        0 min,  0.031 sec
 * total energy  :   -69.0295078 Eh     change       -0.2384027E-08 Eh
   gradient norm :     0.1052703 Eh/α   predicted     0.0000000E+00 (-100.00%)
   displ. norm   :     0.3359553 α      lambda       -0.1614545E-01
   maximum displ.:     0.1230308 α      in ANC's #44, #12, #30, ...

........................................................................
.............................. CYCLE    2 ..............................
........................................................................

 iter      E             dE          RMSdq      gap      omega  full diag
   1    -70.0038076 -0.700038E+02  0.185E-01    2.39       0.0  T
   2    -70.0038911 -0.835367E-04  0.113E-01    2.41       1.0  T
   3    -70.0038484  0.427162E-04  0.436E-02    2.40       1.0  T
   4    -70.0039064 -0.579699E-04  0.116E-02    2.41       1.2  T
   5    -70.0039119 -0.550891E-05  0.407E-03    2.41       3.5  T
   6    -70.0039121 -0.250771E-06  0.176E-03    2.41       8.2  T
   7    -70.0039121 -0.155187E-07  0.764E-04    2.41      18.9  T
   8    -70.0039122 -0.121955E-07  0.272E-04    2.41      53.1  T
     SCC iter.                  ...        0 min,  0.044 sec
     gradient                   ...        0 min,  0.031 sec
 * total energy  :   -69.0404605 Eh     change       -0.1095273E-01 Eh
   gradient norm :     0.0422294 Eh/α   predicted    -0.8992983E-02 ( -17.89%)
   displ. norm   :     0.2816733 α      lambda       -0.4284940E-02
   maximum displ.:     0.1097954 α      in ANC's #12, #6, #44, ...

........................................................................
.............................. CYCLE    3 ..............................
........................................................................

 iter      E             dE          RMSdq      gap      omega  full diag
   1    -70.0261386 -0.700261E+02  0.112E-01    2.48       0.0  T
   2    -70.0261840 -0.453735E-04  0.691E-02    2.49       1.0  T
   3    -70.0261710  0.129467E-04  0.284E-02    2.49       1.0  T
   4    -70.0261901 -0.190716E-04  0.800E-03    2.49       1.8  T
   5    -70.0261925 -0.243196E-05  0.266E-03    2.49       5.4  T
   6    -70.0261927 -0.158288E-06  0.110E-03    2.49      13.1  T
   7    -70.0261927 -0.598310E-08  0.503E-04    2.49      28.7  T
   8    -70.0261927 -0.536545E-08  0.172E-04    2.49      84.1  T
     SCC iter.                  ...        0 min,  0.019 sec
     gradient                   ...        0 min,  0.041 sec
 * total energy  :   -69.0428978 Eh     change       -0.2437258E-02 Eh
   gradient norm :     0.0095258 Eh/α   predicted    -0.2313739E-02 (  -5.07%)
   displ. norm   :     0.1816003 α      lambda       -0.5751867E-03
   maximum displ.:     0.0910650 α      in ANC's #6, #12, #4, ...

........................................................................
.............................. CYCLE    4 ..............................
........................................................................

 iter      E             dE          RMSdq      gap      omega  full diag
   1    -70.0273260 -0.700273E+02  0.481E-02    2.50       0.0  T
   2    -70.0273286 -0.268039E-05  0.291E-02    2.50       1.0  T
   3    -70.0273252  0.344209E-05  0.895E-03    2.50       1.6  T
   4    -70.0273291 -0.394449E-05  0.235E-03    2.50       6.2  T
   5    -70.0273293 -0.201631E-06  0.763E-04    2.50      18.9  T
   6    -70.0273293 -0.676012E-08  0.367E-04    2.50      39.3  T
     SCC iter.                  ...        0 min,  0.014 sec
     gradient                   ...        0 min,  0.031 sec
 * total energy  :   -69.0433172 Eh     change       -0.4194612E-03 Eh
   gradient norm :     0.0054026 Eh/α   predicted    -0.2970907E-03 ( -29.17%)
   displ. norm   :     0.2389472 α      lambda       -0.4143656E-03
   maximum displ.:     0.1222508 α      in ANC's #6, #4, #12, ...

........................................................................
.............................. CYCLE    5 ..............................
........................................................................

 iter      E             dE          RMSdq      gap      omega  full diag
   1    -70.0267937 -0.700268E+02  0.611E-02    2.50       0.0  T
   2    -70.0267959 -0.225922E-05  0.366E-02    2.50       1.0  T
   3    -70.0267908  0.506800E-05  0.107E-02    2.50       1.4  T
   4    -70.0267966 -0.578105E-05  0.224E-03    2.50       6.5  T
   5    -70.0267968 -0.150883E-06  0.841E-04    2.50      17.2  T
   6    -70.0267968 -0.444703E-08  0.373E-04    2.50      38.7  T
     SCC iter.                  ...        0 min,  0.014 sec
     gradient                   ...        0 min,  0.035 sec
 * total energy  :   -69.0435664 Eh     change       -0.2491510E-03 Eh
   gradient norm :     0.0037041 Eh/α   predicted    -0.2190128E-03 ( -12.10%)
   displ. norm   :     0.1333682 α      lambda       -0.1154798E-03
   maximum displ.:     0.0663226 α      in ANC's #6, #3, #4, ...

........................................................................
.............................. CYCLE    6 ..............................
........................................................................

 iter      E             dE          RMSdq      gap      omega  full diag
   1    -70.0268025 -0.700268E+02  0.337E-02    2.50       0.0  T
   2    -70.0268029 -0.400038E-06  0.199E-02    2.50       1.0  T
   3    -70.0268022  0.612201E-06  0.420E-03    2.50       3.4  T
   4    -70.0268030 -0.751552E-06  0.105E-03    2.50      13.7  T
   5    -70.0268030 -0.226490E-07  0.425E-04    2.50      34.0  T
   6    -70.0268030 -0.164430E-08  0.147E-04    2.50      98.4  T
     SCC iter.                  ...        0 min,  0.014 sec
     gradient                   ...        0 min,  0.032 sec
 * total energy  :   -69.0436386 Eh     change       -0.7217837E-04 Eh
   gradient norm :     0.0031973 Eh/α   predicted    -0.5876755E-04 ( -18.58%)
   displ. norm   :     0.1481722 α      lambda       -0.9897954E-04
   maximum displ.:     0.0727343 α      in ANC's #3, #5, #4, ...

........................................................................
.............................. CYCLE    7 ..............................
........................................................................

 iter      E             dE          RMSdq      gap      omega  full diag
   1    -70.0269957 -0.700270E+02  0.379E-02    2.49       0.0  T
   2    -70.0269962 -0.515532E-06  0.223E-02    2.49       1.0  T
   3    -70.0269960  0.133800E-06  0.299E-03    2.49       4.8  T
   4    -70.0269963 -0.266613E-06  0.126E-03    2.49      11.4  T
   5    -70.0269963 -0.280394E-07  0.445E-04    2.49      32.4  T
   6    -70.0269963 -0.318339E-08  0.155E-04    2.49      92.9  T
     SCC iter.                  ...        0 min,  0.023 sec
     gradient                   ...        0 min,  0.032 sec
 * total energy  :   -69.0437073 Eh     change       -0.6876316E-04 Eh
   gradient norm :     0.0023106 Eh/α   predicted    -0.5058043E-04 ( -26.44%)
   displ. norm   :     0.1429468 α      lambda       -0.7505713E-04
   maximum displ.:     0.0789076 α      in ANC's #5, #3, #4, ...

........................................................................
.............................. CYCLE    8 ..............................
........................................................................

 iter      E             dE          RMSdq      gap      omega  full diag
   1    -70.0274807 -0.700275E+02  0.347E-02    2.49       0.0  T
   2    -70.0274812 -0.488014E-06  0.203E-02    2.49       1.0  T
   3    -70.0274811  0.713459E-07  0.232E-03    2.49       6.2  T
   4    -70.0274813 -0.195141E-06  0.110E-03    2.49      13.1  T
   5    -70.0274813 -0.281267E-07  0.454E-04    2.49      31.8  T
   6    -70.0274813 -0.337553E-08  0.138E-04    2.49     104.9  T
     SCC iter.                  ...        0 min,  0.014 sec
     gradient                   ...        0 min,  0.041 sec
 * total energy  :   -69.0437617 Eh     change       -0.5436640E-04 Eh
   gradient norm :     0.0020013 Eh/α   predicted    -0.3830096E-04 ( -29.55%)
   displ. norm   :     0.1126970 α      lambda       -0.4328900E-04
   maximum displ.:     0.0679664 α      in ANC's #3, #5, #4, ...

........................................................................
.............................. CYCLE    9 ..............................
........................................................................

 iter      E             dE          RMSdq      gap      omega  full diag
   1    -70.0277348 -0.700277E+02  0.261E-02    2.49       0.0  T
   2    -70.0277351 -0.256481E-06  0.153E-02    2.49       1.0  T
   3    -70.0277349  0.179658E-06  0.254E-03    2.49       5.7  T
   4    -70.0277352 -0.274067E-06  0.808E-04    2.49      17.9  T
   5    -70.0277352 -0.555808E-08  0.326E-04    2.49      44.3  T
     SCC iter.                  ...        0 min,  0.012 sec
     gradient                   ...        0 min,  0.032 sec
 * total energy  :   -69.0437936 Eh     change       -0.3188912E-04 Eh
   gradient norm :     0.0016545 Eh/α   predicted    -0.2191981E-04 ( -31.26%)
   displ. norm   :     0.1334563 α      lambda       -0.2481234E-04
   maximum displ.:     0.0874353 α      in ANC's #3, #5, #4, ...

........................................................................
.............................. CYCLE   10 ..............................
........................................................................

 iter      E             dE          RMSdq      gap      omega  full diag
   1    -70.0278236 -0.700278E+02  0.303E-02    2.49       0.0  T
   2    -70.0278240 -0.388532E-06  0.177E-02    2.49       1.0  T
   3    -70.0278238  0.173694E-06  0.270E-03    2.49       5.3  T
   4    -70.0278241 -0.291105E-06  0.932E-04    2.49      15.5  T
   5    -70.0278241 -0.101409E-07  0.414E-04    2.49      34.8  T
     SCC iter.                  ...        0 min,  0.012 sec
     gradient                   ...        0 min,  0.049 sec
 * total energy  :   -69.0438168 Eh     change       -0.2321098E-04 Eh
   gradient norm :     0.0011134 Eh/α   predicted    -0.1250936E-04 ( -46.11%)
   displ. norm   :     0.0583437 α      lambda       -0.9396414E-05
   maximum displ.:     0.0430058 α      in ANC's #3, #5, #2, ...

........................................................................
.............................. CYCLE   11 ..............................
........................................................................

 iter      E             dE          RMSdq      gap      omega  full diag
   1    -70.0278283 -0.700278E+02  0.140E-02    2.49       0.0  T
   2    -70.0278284 -0.853885E-07  0.817E-03    2.49       1.8  T
   3    -70.0278283  0.977076E-07  0.161E-03    2.49       8.9  T
   4    -70.0278284 -0.124384E-06  0.441E-04    2.49      32.8  T
   5    -70.0278284 -0.380402E-08  0.199E-04    2.49      72.7  T
     SCC iter.                  ...        0 min,  0.012 sec
     gradient                   ...        0 min,  0.058 sec
 * total energy  :   -69.0438280 Eh     change       -0.1124635E-04 Eh
   gradient norm :     0.0007202 Eh/α   predicted    -0.4709109E-05 ( -58.13%)
   displ. norm   :     0.0678454 α      lambda       -0.1014120E-04
   maximum displ.:     0.0476790 α      in ANC's #3, #7, #2, ...

........................................................................
.............................. CYCLE   12 ..............................
........................................................................

 iter      E             dE          RMSdq      gap      omega  full diag
   1    -70.0277876 -0.700278E+02  0.173E-02    2.49       0.0  T
   2    -70.0277877 -0.858216E-07  0.102E-02    2.49       1.4  T
   3    -70.0277875  0.185851E-06  0.216E-03    2.49       6.7  T
   4    -70.0277877 -0.223654E-06  0.455E-04    2.49      31.7  T
   5    -70.0277877 -0.270254E-08  0.209E-04    2.49      69.1  T
     SCC iter.                  ...        0 min,  0.012 sec
     gradient                   ...        0 min,  0.032 sec
 * total energy  :   -69.0438390 Eh     change       -0.1092540E-04 Eh
   gradient norm :     0.0007318 Eh/α   predicted    -0.5086090E-05 ( -53.45%)
   displ. norm   :     0.0632712 α      lambda       -0.6849033E-05
   maximum displ.:     0.0461687 α      in ANC's #3, #7, #1, ...

........................................................................
.............................. CYCLE   13 ..............................
........................................................................

 iter      E             dE          RMSdq      gap      omega  full diag
   1    -70.0276635 -0.700277E+02  0.167E-02    2.49       0.0  T
   2    -70.0276635 -0.603695E-07  0.981E-03    2.49       1.5  T
   3    -70.0276634  0.132696E-06  0.186E-03    2.49       7.8  T
   4    -70.0276635 -0.162148E-06  0.399E-04    2.49      36.2  T
   5    -70.0276635 -0.143979E-08  0.166E-04    2.49      87.1  T
     SCC iter.                  ...        0 min,  0.027 sec
     gradient                   ...        0 min,  0.031 sec
 * total energy  :   -69.0438462 Eh     change       -0.7245475E-05 Eh
   gradient norm :     0.0007194 Eh/α   predicted    -0.3432353E-05 ( -52.63%)
   displ. norm   :     0.0470002 α      lambda        0.5954795E-06
   maximum displ.:     0.0338819 α      in ANC's #3, #7, #1, ...

........................................................................
.............................. CYCLE   14 ..............................
........................................................................

 iter      E             dE          RMSdq      gap      omega  full diag
   1    -70.0275116 -0.700275E+02  0.125E-02    2.50       0.0  T
   2    -70.0275116 -0.357554E-07  0.733E-03    2.49       2.0  T
   3    -70.0275116  0.834503E-07  0.147E-03    2.50       9.8  T
   4    -70.0275117 -0.100928E-06  0.303E-04    2.49      47.7  T
   5    -70.0275117 -0.910859E-09  0.131E-04    2.50     110.4  T
     SCC iter.                  ...        0 min,  0.012 sec
     gradient                   ...        0 min,  0.032 sec
 * total energy  :   -69.0438468 Eh     change       -0.5673604E-06 Eh
   gradient norm :     0.0013420 Eh/α   predicted     0.2980172E-06 (-152.53%)
   displ. norm   :     0.0246372 α      lambda       -0.4878121E-05
   maximum displ.:     0.0182898 α      in ANC's #3, #1, #2, ...

........................................................................
.............................. CYCLE   15 ..............................
........................................................................

 iter      E             dE          RMSdq      gap      omega  full diag
   1    -70.0276264 -0.700276E+02  0.781E-03    2.49       0.0  T
   2    -70.0276264 -0.187021E-07  0.458E-03    2.49       3.1  T
   3    -70.0276264  0.104985E-07  0.616E-04    2.49      23.4  T
   4    -70.0276264 -0.135698E-07  0.245E-04    2.49      58.8  T
     SCC iter.                  ...        0 min,  0.013 sec
     gradient                   ...        0 min,  0.031 sec
 * total energy  :   -69.0438524 Eh     change       -0.5649528E-05 Eh
   gradient norm :     0.0006163 Eh/α   predicted    -0.2440556E-05 ( -56.80%)
   displ. norm   :     0.0438985 α      lambda       -0.5747815E-05
   maximum displ.:     0.0310598 α      in ANC's #3, #1, #2, ...

........................................................................
.............................. CYCLE   16 ..............................
........................................................................

 iter      E             dE          RMSdq      gap      omega  full diag
   1    -70.0278776 -0.700279E+02  0.122E-02    2.49       0.0  T
   2    -70.0278776 -0.285327E-07  0.721E-03    2.49       2.0  T
   3    -70.0278775  0.400884E-07  0.107E-03    2.49      13.5  T
   4    -70.0278776 -0.519645E-07  0.276E-04    2.49      52.4  T
   5    -70.0278776 -0.776168E-09  0.144E-04    2.49     100.3  T
     SCC iter.                  ...        0 min,  0.012 sec
     gradient                   ...        0 min,  0.046 sec
 * total energy  :   -69.0438587 Eh     change       -0.6233523E-05 Eh
   gradient norm :     0.0005268 Eh/α   predicted    -0.2877585E-05 ( -53.84%)
   displ. norm   :     0.0512847 α      lambda       -0.4210247E-05
   maximum displ.:     0.0372509 α      in ANC's #3, #1, #2, ...

........................................................................
.............................. CYCLE   17 ..............................
........................................................................

 iter      E             dE          RMSdq      gap      omega  full diag
   1    -70.0279245 -0.700279E+02  0.137E-02    2.49       0.0  T
   2    -70.0279245 -0.338128E-07  0.808E-03    2.49       1.8  T
   3    -70.0279245  0.228589E-07  0.903E-04    2.49      16.0  T
   4    -70.0279245 -0.361687E-07  0.305E-04    2.49      47.4  T
     SCC iter.                  ...        0 min,  0.010 sec
     gradient                   ...        0 min,  0.032 sec
 * total energy  :   -69.0438636 Eh     change       -0.4954922E-05 Eh
   gradient norm :     0.0007504 Eh/α   predicted    -0.2109459E-05 ( -57.43%)
   displ. norm   :     0.0550458 α      lambda       -0.4029012E-05
   maximum displ.:     0.0392691 α      in ANC's #3, #1, #2, ...

   *** GEOMETRY OPTIMIZATION CONVERGED AFTER 17 ITERATIONS ***

------------------------------------------------------------------------
 total energy gain   :        -0.0143558 Eh       -9.0084 kcal/mol
 total RMSD          :         0.2064885 a0        0.1093 Å
 total power (kW/mol):        -2.2171317 (step)  -33.6993 (real)
------------------------------------------------------------------------

 ANCopt (total)                0 d,  0 h,  0 min,  1.118 sec
 optimizer setup                ...        0 min,  0.000 sec (  0.008%)
 model hessian                  ...        0 min,  0.032 sec (  2.878%)
 ANC generation                 ...        0 min,  0.002 sec (  0.171%)
 coordinate transformation      ...        0 min,  0.000 sec (  0.015%)
 single point calculation       ...        0 min,  1.079 sec ( 96.456%)
 optimization log               ...        0 min,  0.003 sec (  0.291%)
 hessian update                 ...        0 min,  0.000 sec (  0.024%)
 rational function              ...        0 min,  0.001 sec (  0.101%)

================
 final structure:
================
48
 xtb: 6.7.1 (edcfbbe)
O           -0.30108556260268       -2.16083529949899       -0.73756205667294
C           -0.09795836405697       -1.30786818563555        0.36501338965563
C            0.66792338791243       -0.04122557686413       -0.08069121545592
N            1.79859534378091       -0.42749024925755       -0.92914874194951
C            2.25264358521657        0.75203594101922       -1.65401346634171
C            2.53757505824989        1.91150694281543       -0.67683658135200
C            2.90162270583161       -0.95033489746277       -0.13604854354012
C            3.53283856101566        0.15069239316562        0.75763790576209
C            3.87292183362206       -0.40463550832762        2.10864673690948
C            3.57071782795961        0.10282992390656        3.28918766212647
C            2.55584378010015        1.33416558110557        0.74408517153271
C            1.14990145924656        0.82928691599348        1.09010929314610
C           -1.39588869812645       -0.90634160362398        1.02222406159879
C           -1.48484935133834       -0.94914428823548        2.39381744306709
C           -2.64845231386013       -0.49947099164316        3.03296173123212
N           -3.68480545675848       -0.02963798321152        2.39794437848713
C           -3.64385902207063        0.00972941660211        1.05407516073081
C           -2.51696985359183       -0.42331980936142        0.29720264971891
C           -2.57327309425180       -0.35310879929169       -1.10977191582461
C           -3.69109007277077        0.13196809613393       -1.74262389113249
O           -3.84107883966939        0.23622946303390       -3.09162051000096
C           -2.78854350355188       -0.19993947492845       -3.91676109148212
C           -4.80132463389731        0.57262710465695       -0.98526544480478
C           -4.77739661529010        0.50852440268805        0.37349280513663
H            0.49442109143016       -2.08693016722705       -1.28586838163497
H            0.50439450707099       -1.84032297404426        1.12177934405399
H           -0.00987939121936        0.53448612296594       -0.71970645470202
H            1.48242158997580        1.02674132101644       -2.37934327322416
H            3.15078429012923        0.47345001283261       -2.20961605180239
H            1.76284258152016        2.67681045434651       -0.74612766976901
H            3.49477882061961        2.38218833797556       -0.90499103849724
H            3.64059676326845       -1.36701559825228       -0.82596419376790
H            2.52682435512837       -1.76833013660471        0.48107218059906
H            4.47491365951561        0.48188385372100        0.30134267962722
H            4.44024224336370       -1.32733540716239        2.05916958806613
H            3.02058126409597        1.01987723409461        3.41152238798343
H            3.87423326119464       -0.38501063873253        4.20015188375301
H            2.87413169294298        2.10267978333939        1.45164156952804
H            0.46838780245400        1.66591703548212        1.24927248453241
H            1.18632615671351        0.24589144264519        2.01068157608909
H           -0.66375220275347       -1.32297451311622        2.98801060647083
H           -2.72338293934379       -0.52341678472544        4.11282514310291
H           -1.73563162131464       -0.72856556225234       -1.67103409164092
H           -3.12996904853333       -0.04309763316493       -4.93874049228260
H           -2.57134014665570       -1.26143492192926       -3.76341443131077
H           -1.87791067203455        0.38393075393660       -3.74601053256900
H           -5.65979665450066        0.94607917926079       -1.52144051268427
H           -5.61832556416273        0.82825529181720        0.96813274953272

 Bond Distances (Angstroems)
 ---------------------------
O1-C2=1.4087         O1-H25=0.9690        C2-O1=1.4087         C2-C3=1.5458         C2-C13=1.5092        C2-H26=1.1041        
C3-C2=1.5458         C3-N4=1.4654         C3-C12=1.5365        C3-H27=1.0951        N4-C3=1.4654         N4-C5=1.4570         
N4-C7=1.4557         C5-N4=1.4570         C5-C6=1.5429         C5-H28=1.0931        C5-H29=1.0922        C6-C5=1.5429         
C6-C11=1.5338        C6-H30=1.0912        C6-H31=1.0908        C7-N4=1.4557         C7-C8=1.5522         C7-H32=1.0935        
C7-H33=1.0911        C8-C7=1.5522         C8-C9=1.4998         C8-C11=1.5347        C8-H34=1.0979        C9-C8=1.4998         
C9-C10=1.3200        C9-H35=1.0843        C10-C9=1.3200        C10-H36=1.0764       C10-H37=1.0770       C11-C6=1.5338        
C11-C8=1.5347        C11-C12=1.5334       C11-H38=1.0920       C12-C3=1.5365        C12-C11=1.5334       C12-H39=1.0908       
C12-H40=1.0905       C13-C2=1.5092        C13-C14=1.3751       C13-C18=1.4198       C14-C13=1.3751       C14-C15=1.4017       
C14-H41=1.0803       C15-C14=1.4017       C15-N16=1.3031       C15-H42=1.0827       N16-C15=1.3031       N16-C17=1.3451       
C17-N16=1.3451       C17-C18=1.4249       C17-C24=1.4131       C18-C13=1.4198       C18-C17=1.4249       C18-C19=1.4099       
C19-C18=1.4099       C19-C20=1.3731       C19-H43=1.0759       C20-C19=1.3731       C20-O21=1.3613       C20-C23=1.4144       
O21-C20=1.3613       O21-C22=1.4067       C22-O21=1.4067       C22-H44=1.0889       C22-H45=1.0943       C22-H46=1.0951       
C23-C20=1.4144       C23-C24=1.3605       C23-H47=1.0789       C24-C17=1.4131       C24-C23=1.3605       C24-H48=1.0784       
H25-O1=0.9690        H26-C2=1.1041        H27-C3=1.0951        H28-C5=1.0931        H29-C5=1.0922        H30-C6=1.0912        
H31-C6=1.0908        H32-C7=1.0935        H33-C7=1.0911        H34-C8=1.0979        H35-C9=1.0843        H36-C10=1.0764       
H37-C10=1.0770       H38-C11=1.0920       H39-C12=1.0908       H40-C12=1.0905       H41-C14=1.0803       H42-C15=1.0827       
H43-C19=1.0759       H44-C22=1.0889       H45-C22=1.0943       H46-C22=1.0951       H47-C23=1.0789       H48-C24=1.0784       
 C  H  Rav=1.0885 sigma=0.0075  Rmin=1.0759  Rmax=1.1041    23
 C  C  Rav=1.4579 sigma=0.0748  Rmin=1.3200  Rmax=1.5522    19
 N  C  Rav=1.4053 sigma=0.0677  Rmin=1.3031  Rmax=1.4654     5
 O  H  Rav=0.9690 sigma=0.0000  Rmin=0.9690  Rmax=0.9690     1
 O  C  Rav=1.3923 sigma=0.0219  Rmin=1.3613  Rmax=1.4087     3

 selected bond angles (degree)
 --------------------
H25-O1-C2=106.16               C3-C2-O1=109.99                C13-C2-O1=112.20               C13-C2-C3=109.49               
H26-C2-O1=108.85               H26-C2-C3=108.81               H26-C2-C13=107.40              N4-C3-C2=109.46                
C12-C3-C2=113.57               C12-C3-N4=110.39               H27-C3-C2=107.00               H27-C3-N4=106.16               
H27-C3-C12=109.93              C5-N4-C3=108.37                C7-N4-C3=111.34                C7-N4-C5=109.01                
C6-C5-N4=110.54                H28-C5-N4=108.30               H28-C5-C6=111.19               H29-C5-N4=107.63               
H29-C5-C6=111.22               H29-C5-H28=107.82              C11-C6-C5=107.82               H30-C6-C5=110.84               
H30-C6-C11=109.35              H31-C6-C5=110.72               H31-C6-C11=110.23              H31-C6-H30=107.89              
C8-C7-N4=111.53                H32-C7-N4=107.77               H32-C7-C8=111.02               H33-C7-N4=108.49               
H33-C7-C8=110.23               H33-C7-H32=107.66              C9-C8-C7=110.38                C11-C8-C7=106.44               
C11-C8-C9=115.97               H34-C8-C7=108.88               H34-C8-C9=106.95               H34-C8-C11=108.06              
C10-C9-C8=127.69               H35-C9-C8=113.12               H35-C9-C10=119.19              H36-C10-C9=123.10              
H37-C10-C9=121.18              H37-C10-H36=115.71             

 selected dihedral angles (degree)
 ---------------------------------
C3-C2-O1-H25= 36.29           C13-C2-O1-H25=158.43          H26-C2-O1-H25=277.15          N4-C3-C2-O1=314.00            
N4-C3-C2-C13=190.26           N4-C3-C2-H26= 73.15           C12-C3-C2-O1=190.11           C12-C3-C2-C13= 66.38          
C12-C3-C2-H26=309.27          H27-C3-C2-O1= 68.62           H27-C3-C2-C13=304.89          H27-C3-C2-H26=187.78          
C5-N4-C3-C2=163.10            C5-N4-C3-C12=288.83           C5-N4-C3-H27= 47.94           C7-N4-C3-C2=282.98            
C7-N4-C3-C12= 48.71           C7-N4-C3-H27=167.81           C6-C5-N4-C3= 53.16            C6-C5-N4-C7=291.84            
H28-C5-N4-C3=291.12           H28-C5-N4-C7=169.80           H29-C5-N4-C3=174.81           H29-C5-N4-C7= 53.48           
C11-C6-C5-N4= 12.82           C11-C6-C5-H28=133.15          C11-C6-C5-H29=253.33          H30-C6-C5-N4=253.18           
H30-C6-C5-H28= 13.50          H30-C6-C5-H29=133.68          H31-C6-C5-N4=133.48           H31-C6-C5-H28=253.81          
H31-C6-C5-H29= 13.98          C8-C7-N4-C3=293.11            C8-C7-N4-C5= 52.61            H32-C7-N4-C3=171.01           
H32-C7-N4-C5=290.51           H33-C7-N4-C3= 54.71           H33-C7-N4-C5=174.21           C9-C8-C7-N4=139.98            
C9-C8-C7-H32=260.19           C9-C8-C7-H33= 19.40           C11-C8-C7-N4= 13.35           C11-C8-C7-H32=133.56          
C11-C8-C7-H33=252.77          H34-C8-C7-N4=257.09           H34-C8-C7-H32= 17.30          H34-C8-C7-H33=136.51          
C10-C9-C8-C7=229.52           C10-C9-C8-C11=350.63          C10-C9-C8-H34=111.22          H35-C9-C8-C7= 50.03           
H35-C9-C8-C11=171.14          H35-C9-C8-H34=291.73          H36-C10-C9-C8=359.83          H36-C10-C9-H35=179.29         
H37-C10-C9-C8=180.31          H37-C10-C9-H35=359.77         
           -------------------------------------------------
          |                Final Singlepoint                |
           -------------------------------------------------

          ...................................................
          :                      SETUP                      :
          :.................................................:
          :  # basis functions                 120          :
          :  # atomic orbitals                 120          :
          :  # shells                           72          :
          :  # electrons                       126          :
          :  max. iterations                   250          :
          :  Hamiltonian                  GFN2-xTB          :
          :  restarted?                      false          :
          :  GBSA solvation                  false          :
          :  PC potential                    false          :
          :  electronic temp.          300.0000000     K    :
          :  accuracy                    1.0000000          :
          :  -> integral cutoff          0.2500000E+02      :
          :  -> integral neglect         0.1000000E-07      :
          :  -> SCF convergence          0.1000000E-05 Eh   :
          :  -> wf. convergence          0.1000000E-03 e    :
          :  Broyden damping             0.4000000          :
          :  net charge                          0          :
          :  unpaired electrons                  0          :
          ...................................................

 iter      E             dE          RMSdq      gap      omega  full diag
   1    -70.0279245 -0.700279E+02  0.157E-04    2.49       0.0  T
   2    -70.0279245 -0.193467E-09  0.107E-04    2.49     135.3  T
   3    -70.0279245 -0.343519E-09  0.572E-05    2.49     252.2  T

   *** convergence criteria satisfied after 3 iterations ***

         #    Occupation            Energy/Eh            Energy/eV
      -------------------------------------------------------------
         1        2.0000           -0.7161415             -19.4872
       ...           ...                  ...                  ...
        57        2.0000           -0.4214661             -11.4687
        58        2.0000           -0.4096406             -11.1469
        59        2.0000           -0.4036088             -10.9828
        60        2.0000           -0.3948967             -10.7457
        61        2.0000           -0.3748423             -10.2000
        62        2.0000           -0.3669209              -9.9844
        63        2.0000           -0.3581859              -9.7467 (HOMO)
        64                         -0.2665672              -7.2537 (LUMO)
        65                         -0.2278116              -6.1991
        66                         -0.2095314              -5.7016
        67                         -0.1946522              -5.2968
        68                         -0.1469180              -3.9978
       ...                                ...                  ...
       120                          0.7049978              19.1840
      -------------------------------------------------------------
                  HL-Gap            0.0916187 Eh            2.4931 eV
             Fermi-level           -0.3123765 Eh           -8.5002 eV

 SCC (total)                   0 d,  0 h,  0 min,  0.060 sec
 SCC setup                      ...        0 min,  0.000 sec (  0.590%)
 Dispersion                     ...        0 min,  0.000 sec (  0.649%)
 classical contributions        ...        0 min,  0.000 sec (  0.298%)
 integral evaluation            ...        0 min,  0.009 sec ( 14.868%)
 iterations                     ...        0 min,  0.007 sec ( 12.075%)
 molecular gradient             ...        0 min,  0.043 sec ( 71.193%)
 printout                       ...        0 min,  0.000 sec (  0.315%)

         :::::::::::::::::::::::::::::::::::::::::::::::::::::
         ::                     SUMMARY                     ::
         :::::::::::::::::::::::::::::::::::::::::::::::::::::
         :: total energy             -69.043863624368 Eh    ::
         :: gradient norm              0.000750655239 Eh/a0 ::
         :: HOMO-LUMO gap              2.493071395634 eV    ::
         ::.................................................::
         :: SCC energy               -70.026809136724 Eh    ::
         :: -> isotropic ES            0.054823839316 Eh    ::
         :: -> anisotropic ES          0.006850697436 Eh    ::
         :: -> anisotropic XC          0.036227889165 Eh    ::
         :: -> dispersion             -0.055081074084 Eh    ::
         :: repulsion energy           0.982945512356 Eh    ::
         :: add. restraining           0.000000000000 Eh    ::
         :: total charge              -0.000000000000 e     ::
         :::::::::::::::::::::::::::::::::::::::::::::::::::::

           -------------------------------------------------
          |                Property Printout                |
           -------------------------------------------------

    * Orbital Energies and Occupations

         #    Occupation            Energy/Eh            Energy/eV
      -------------------------------------------------------------
         1        2.0000           -0.7161415             -19.4872
       ...           ...                  ...                  ...
        51        2.0000           -0.4413619             -12.0101
        52        2.0000           -0.4404016             -11.9839
        53        2.0000           -0.4372277             -11.8976
        54        2.0000           -0.4367429             -11.8844
        55        2.0000           -0.4285412             -11.6612
        56        2.0000           -0.4224457             -11.4953
        57        2.0000           -0.4214661             -11.4687
        58        2.0000           -0.4096406             -11.1469
        59        2.0000           -0.4036088             -10.9828
        60        2.0000           -0.3948967             -10.7457
        61        2.0000           -0.3748423             -10.2000
        62        2.0000           -0.3669209              -9.9844
        63        2.0000           -0.3581859              -9.7467 (HOMO)
        64                         -0.2665672              -7.2537 (LUMO)
        65                         -0.2278116              -6.1991
        66                         -0.2095314              -5.7016
        67                         -0.1946522              -5.2968
        68                         -0.1469180              -3.9978
        69                         -0.0632279              -1.7205
        70                          0.0085254               0.2320
        71                          0.0225688               0.6141
        72                          0.0330923               0.9005
        73                          0.0341199               0.9284
        74                          0.0503520               1.3701
       ...                                ...                  ...
       120                          0.7049978              19.1840
      -------------------------------------------------------------
                  HL-Gap            0.0916187 Eh            2.4931 eV
             Fermi-level           -0.3123765 Eh           -8.5002 eV

     #   Z          covCN         q      C6AA      α(0)
     1   8 O        1.655    -0.446    21.759     6.297
     2   6 C        3.732     0.111    18.840     6.196
     3   6 C        3.826     0.033    19.994     6.363
     4   7 N        2.729    -0.200    25.333     7.475
     5   6 C        3.782     0.011    20.412     6.436
     6   6 C        3.808    -0.065    21.738     6.637
     7   6 C        3.776     0.009    20.451     6.443
     8   6 C        3.860    -0.027    21.010     6.519
     9   6 C        2.888    -0.032    28.807     8.799
    10   6 C        2.835    -0.095    30.366     9.030
    11   6 C        3.865    -0.008    20.686     6.468
    12   6 C        3.809    -0.065    21.749     6.638
    13   6 C        2.973     0.011    27.764     8.643
    14   6 C        2.917    -0.052    29.286     8.874
    15   6 C        2.904     0.059    26.670     8.468
    16   7 N        1.842    -0.232    26.921     7.689
    17   6 C        2.977     0.081    26.187     8.394
    18   6 C        2.984     0.003    27.957     8.673
    19   6 C        2.914    -0.079    29.974     8.978
    20   6 C        2.864     0.143    24.892     8.178
    21   8 O        1.705    -0.267    18.422     5.795
    22   6 C        3.645     0.036    20.293     6.474
    23   6 C        2.916    -0.048    29.187     8.859
    24   6 C        2.921    -0.039    28.967     8.826
    25   1 H        0.804     0.302     0.714     1.327
    26   1 H        0.923     0.014     2.826     2.629
    27   1 H        0.924     0.037     2.494     2.470
    28   1 H        0.924     0.029     2.600     2.521
    29   1 H        0.924     0.033     2.539     2.492
    30   1 H        0.924     0.030     2.582     2.513
    31   1 H        0.924     0.029     2.604     2.524
    32   1 H        0.924     0.030     2.581     2.512
    33   1 H        0.924     0.037     2.491     2.468
    34   1 H        0.924     0.036     2.505     2.475
    35   1 H        0.925     0.030     2.592     2.518
    36   1 H        0.926     0.038     2.476     2.461
    37   1 H        0.926     0.036     2.505     2.475
    38   1 H        0.924     0.028     2.610     2.526
    39   1 H        0.924     0.027     2.634     2.538
    40   1 H        0.924     0.036     2.504     2.474
    41   1 H        0.926     0.027     2.624     2.533
    42   1 H        0.925     0.036     2.501     2.473
    43   1 H        0.926     0.061     2.182     2.310
    44   1 H        0.925     0.062     2.181     2.309
    45   1 H        0.924     0.046     2.366     2.406
    46   1 H        0.924     0.038     2.478     2.462
    47   1 H        0.926     0.054     2.275     2.359
    48   1 H        0.926     0.060     2.202     2.321

 Mol. C6AA /au·bohr⁶  :      24095.164804
 Mol. C8AA /au·bohr⁸  :     561732.226481
 Mol. α(0) /au        :        239.249909


Wiberg/Mayer (AO) data.
largest (>0.10) Wiberg bond orders for each atom

 ---------------------------------------------------------------------------
     #   Z sym  total        # sym  WBO       # sym  WBO       # sym  WBO
 ---------------------------------------------------------------------------
     1   8 O    1.963 --     2 C    0.993    25 H    0.876
     2   6 C    3.960 --     1 O    0.993    13 C    0.992     3 C    0.953
                            26 H    0.949
     3   6 C    3.982 --     4 N    0.986    12 C    0.985    27 H    0.962
                             2 C    0.953
     4   7 N    3.135 --     7 C    1.005     5 C    1.000     3 C    0.986
     5   6 C    3.986 --     4 N    1.000     6 C    0.990    29 H    0.976
                            28 H    0.975
     6   6 C    3.998 --    11 C    0.997     5 C    0.990    30 H    0.980
                            31 H    0.980
     7   6 C    3.986 --     4 N    1.005    32 H    0.975    33 H    0.970
                             8 C    0.963
     8   6 C    3.996 --     9 C    1.017    11 C    0.986     7 C    0.963
                            34 H    0.952
     9   6 C    3.991 --    10 C    1.974     8 C    1.017    35 H    0.965
    10   6 C    3.992 --     9 C    1.974    37 H    0.976    36 H    0.973
    11   6 C    3.996 --     6 C    0.997    12 C    0.997     8 C    0.986
                            38 H    0.966
    12   6 C    3.997 --    11 C    0.997     3 C    0.985    39 H    0.979
                            40 H    0.971
    13   6 C    3.986 --    14 C    1.515    18 C    1.262     2 C    0.992
                            16 N    0.102
    14   6 C    3.990 --    13 C    1.515    15 C    1.319    41 H    0.967
    15   6 C    3.973 --    16 N    1.538    14 C    1.319    42 H    0.963
    16   7 N    3.063 --    15 C    1.538    17 C    1.297    13 C    0.102
    17   6 C    3.983 --    16 N    1.297    24 C    1.252    18 C    1.235
    18   6 C    3.989 --    19 C    1.285    13 C    1.262    17 C    1.235
    19   6 C    3.984 --    20 C    1.472    18 C    1.285    43 H    0.954
                            24 C    0.105
    20   6 C    3.934 --    19 C    1.472    23 C    1.245    21 O    1.064
    21   8 O    2.229 --    20 C    1.064    22 C    0.985
    22   6 C    3.946 --    21 O    0.985    44 H    0.980    46 H    0.976
                            45 H    0.976
    23   6 C    3.989 --    24 C    1.590    20 C    1.245    47 H    0.967
    24   6 C    3.989 --    23 C    1.590    17 C    1.252    48 H    0.966
                            19 C    0.105
    25   1 H    0.908 --     1 O    0.876
    26   1 H    0.999 --     2 C    0.949
    27   1 H    0.999 --     3 C    0.962
    28   1 H    0.999 --     5 C    0.975
    29   1 H    0.998 --     5 C    0.976
    30   1 H    0.999 --     6 C    0.980
    31   1 H    0.999 --     6 C    0.980
    32   1 H    0.999 --     7 C    0.975
    33   1 H    0.999 --     7 C    0.970
    34   1 H    0.999 --     8 C    0.952
    35   1 H    0.999 --     9 C    0.965
    36   1 H    0.999 --    10 C    0.973
    37   1 H    0.998 --    10 C    0.976
    38   1 H    0.999 --    11 C    0.966
    39   1 H    0.999 --    12 C    0.979
    40   1 H    0.999 --    12 C    0.971
    41   1 H    0.999 --    14 C    0.967
    42   1 H    0.998 --    15 C    0.963
    43   1 H    0.996 --    19 C    0.954
    44   1 H    0.996 --    22 C    0.980
    45   1 H    0.997 --    22 C    0.976
    46   1 H    0.998 --    22 C    0.976
    47   1 H    0.996 --    23 C    0.967
    48   1 H    0.995 --    24 C    0.966
 ---------------------------------------------------------------------------

Topologies differ in total number of bonds
Writing topology from bond orders to xtbtopo.mol

molecular dipole:
                 x           y           z       tot (Debye)
 q only:        1.113       0.335      -0.690
   full:        1.923       0.417      -0.703       5.311
molecular quadrupole (traceless):
                xx          xy          yy          xz          yz          zz
 q only:       -3.637      -2.510      -2.684       1.504       0.570       6.321
  q+dip:       -6.536      -4.648      -2.538       5.141      -2.124       9.074
   full:       -7.400      -1.766       0.064       4.927      -1.619       7.336

           -------------------------------------------------
          |                Geometry Summary                 |
           -------------------------------------------------

      molecular mass/u    :      324.4175123
   center of mass at/Å    :       -0.5172040      -0.0981644       0.1039802
  moments of inertia/u·Å² :        0.1261755E+04   0.3050363E+04   0.3791609E+04
rotational constants/cm⁻¹ :        0.1336046E-01   0.5526435E-02   0.4446036E-02

 * 47 selected distances

     #   Z          #   Z                                           value/Å
     1   8 O        2   6 C                                       1.4087180
     3   6 C        4   7 N                                       1.4654351
     4   7 N        5   6 C                                       1.4570076
     5   6 C        6   6 C                                       1.5428655 (max)
     4   7 N        7   6 C                                       1.4556937
     9   6 C       10   6 C                                       1.3200476
     6   6 C       11   6 C                                       1.5338435
     8   6 C       11   6 C                                       1.5347025
     3   6 C       12   6 C                                       1.5365120
    11   6 C       12   6 C                                       1.5333980
    13   6 C       14   6 C                                       1.3751417
    14   6 C       15   6 C                                       1.4016718
    15   6 C       16   7 N                                       1.3030803
    16   7 N       17   6 C                                       1.3450692
    13   6 C       18   6 C                                       1.4197850
    17   6 C       18   6 C                                       1.4248745
    18   6 C       19   6 C                                       1.4098501
    19   6 C       20   6 C                                       1.3730682
    20   6 C       21   8 O                                       1.3613079
    21   8 O       22   6 C                                       1.4067449
    20   6 C       23   6 C                                       1.4143526
    17   6 C       24   6 C                                       1.4131159
    23   6 C       24   6 C                                       1.3604801
     1   8 O       25   1 H                                       0.9689855 (min)
     2   6 C       26   1 H                                       1.1040978
     3   6 C       27   1 H                                       1.0950805
     5   6 C       28   1 H                                       1.0930730
     5   6 C       29   1 H                                       1.0922277
     6   6 C       30   1 H                                       1.0911926
     6   6 C       31   1 H                                       1.0907954
     7   6 C       32   1 H                                       1.0934758
     7   6 C       33   1 H                                       1.0910675
     8   6 C       34   1 H                                       1.0979066
     9   6 C       35   1 H                                       1.0842858
    10   6 C       36   1 H                                       1.0763791
    10   6 C       37   1 H                                       1.0770172
    11   6 C       38   1 H                                       1.0920428
    12   6 C       39   1 H                                       1.0907539
    12   6 C       40   1 H                                       1.0904726
    14   6 C       41   1 H                                       1.0802848
    15   6 C       42   1 H                                       1.0827249
    19   6 C       43   1 H                                       1.0759305
    22   6 C       44   1 H                                       1.0888585
    22   6 C       45   1 H                                       1.0942876
    22   6 C       46   1 H                                       1.0951313
    23   6 C       47   1 H                                       1.0788534
    24   6 C       48   1 H                                       1.0784184

 * 5 distinct bonds (by element types)

   Z      Z             #   av. dist./Å        max./Å        min./Å
   1 H    6 C          23     1.0884503     1.1040978     1.0759305
   6 C    6 C          15     1.4395806     1.5428655     1.3200476
   6 C    7 N           5     1.4052572     1.4654351     1.3030803
   1 H    8 O           1     0.9689855     0.9689855     0.9689855
   6 C    8 O           3     1.3922570     1.4087180     1.3613079


optimized geometry written to: xtbopt.xyz


           -------------------------------------------------
          | TOTAL ENERGY              -69.043863624368 Eh   |
          | GRADIENT NORM               0.000750655239 Eh/α |
          | HOMO-LUMO GAP               2.493071395634 eV   |
           -------------------------------------------------

------------------------------------------------------------------------
 * finished run on 2025/05/15 at 16:35:56.714     
------------------------------------------------------------------------
 total:
 * wall-time:     0 d,  0 h,  0 min,  1.269 sec
 *  cpu-time:     0 d,  0 h,  0 min,  1.097 sec
 * ratio c/w:     0.864 speedup
 SCF:
 * wall-time:     0 d,  0 h,  0 min,  0.072 sec
 *  cpu-time:     0 d,  0 h,  0 min,  0.072 sec
 * ratio c/w:     0.996 speedup
 ANC optimizer:
 * wall-time:     0 d,  0 h,  0 min,  1.182 sec
 *  cpu-time:     0 d,  0 h,  0 min,  1.011 sec
 * ratio c/w:     0.856 speedup



----- Single-point -----
      -----------------------------------------------------------      
     |                   =====================                   |     
     |                           x T B                           |     
     |                   =====================                   |     
     |                         S. Grimme                         |     
     |          Mulliken Center for Theoretical Chemistry        |     
     |                    University of Bonn                     |     
      -----------------------------------------------------------      

   * xtb version 6.7.1 (edcfbbe) compiled by 'conda@3ef47c1a292c' on 2024-11-25

   xtb is free software: you can redistribute it and/or modify it under
   the terms of the GNU Lesser General Public License as published by
   the Free Software Foundation, either version 3 of the License, or
   (at your option) any later version.
   
   xtb is distributed in the hope that it will be useful,
   but WITHOUT ANY WARRANTY; without even the implied warranty of
   MERCHANTABILITY or FITNESS FOR A PARTICULAR PURPOSE.  See the
   GNU Lesser General Public License for more details.
   
   Cite this work as:
   * C. Bannwarth, E. Caldeweyher, S. Ehlert, A. Hansen, P. Pracht,
     J. Seibert, S. Spicher, S. Grimme, WIREs Comput. Mol. Sci., 2020, 11,
     e01493. DOI: 10.1002/wcms.1493
   
   for GFN2-xTB:
   * C. Bannwarth, S. Ehlert and S. Grimme., J. Chem. Theory Comput., 2019,
     15, 1652-1671. DOI: 10.1021/acs.jctc.8b01176
   for GFN1-xTB:
   * S. Grimme, C. Bannwarth, P. Shushkov, J. Chem. Theory Comput., 2017,
     13, 1989-2009. DOI: 10.1021/acs.jctc.7b00118
   for GFN0-xTB:
   * P. Pracht, E. Caldeweyher, S. Ehlert, S. Grimme, ChemRxiv, 2019, preprint.
     DOI: 10.26434/chemrxiv.8326202.v1
   for GFN-FF:
   * S. Spicher and S. Grimme, Angew. Chem. Int. Ed., 2020, 59, 15665-15673.
     DOI: 10.1002/anie.202004239
   
   for ALPB and GBSA implicit solvation:
   * S. Ehlert, M. Stahn, S. Spicher, S. Grimme, J. Chem. Theory Comput.,
     2021, 17, 4250-4261. DOI: 10.1021/acs.jctc.1c00471
   
   for ddCOSMO and CPCM-X implicit solvation:
   * M. Stahn, S. Ehlert, S. Grimme, J. Phys. Chem. A,
     2023, XX, XXXX-XXXX. DOI: 10.1021/acs.jpca.3c04382
   
   for DFT-D4:
   * E. Caldeweyher, C. Bannwarth and S. Grimme, J. Chem. Phys., 2017,
     147, 034112. DOI: 10.1063/1.4993215
   * E. Caldeweyher, S. Ehlert, A. Hansen, H. Neugebauer, S. Spicher,
     C. Bannwarth and S. Grimme, J. Chem. Phys., 2019, 150, 154122.
     DOI: 10.1063/1.5090222
   * E. Caldeweyher, J.-M. Mewes, S. Ehlert and S. Grimme, Phys. Chem. Chem. Phys.
     2020, 22, 8499-8512. DOI: 10.1039/D0CP00502A
   
   for sTDA-xTB:
   * S. Grimme and C. Bannwarth, J. Chem. Phys., 2016, 145, 054103.
     DOI: 10.1063/1.4959605
   
   in the mass-spec context:
   * V. Asgeirsson, C. Bauer and S. Grimme, Chem. Sci., 2017, 8, 4879.
     DOI: 10.1039/c7sc00601b
   * J. Koopman and S. Grimme, ACS Omega 2019, 4, 12, 15120-15133.
     DOI: 10.1021/acsomega.9b02011
   
   for metadynamics refer to:
   * S. Grimme, J. Chem. Theory Comput., 2019, 155, 2847-2862
     DOI: 10.1021/acs.jctc.9b00143
   
   for SPH calculations refer to:
   * S. Spicher and S. Grimme, J. Chem. Theory Comput., 2021, 17, 1701-1714
     DOI: 10.1021/acs.jctc.0c01306
   
   for ONIOM refer to:
   * C. Plett, A. Katbashev, S. Ehlert, S. Grimme, M. Bursch,
     Phys. Chem. Chem. Phys., 2023, 25, 17860-17868. DOI: 10.1039/D3CP02178E
   
   for DIPRO refer to:
   * J. Kohn, N. Gildemeister, S. Grimme, D. Fazzi, A. Hansen,
     J. Chem. Phys., 2023, just accepted.
   
   for PTB refer to:
   * S. Grimme, M. Mueller, A. Hansen, J. Chem. Phys., 2023, 158, 124111.
     DOI: 10.1063/5.0137838
   
   with help from (in alphabetical order)
   P. Atkinson, C. Bannwarth, F. Bohle, G. Brandenburg, E. Caldeweyher
   M. Checinski, S. Dohm, S. Ehlert, S. Ehrlich, I. Gerasimov, C. Hölzer
   A. Katbashev, J. Kohn, J. Koopman, C. Lavigne, S. Lehtola, F. März, M. Müller,
   F. Musil, H. Neugebauer, J. Pisarek, C. Plett, P. Pracht, F. Pultar,
   J. Seibert, P. Shushkov, S. Spicher, M. Stahn, M. Steiner, T. Strunk,
   J. Stückrath, T. Rose, and J. Unsleber
   
 * started run on 2025/05/15 at 16:35:56.731     
   ID    Z sym.   atoms
    1    8 O      1, 21
    2    6 C      2, 3, 5-15, 17-20, 22-24
    3    7 N      4, 16
    4    1 H      25-48

           -------------------------------------------------
          |                Calculation Setup                |
           -------------------------------------------------

          program call               : xtb /rds/general/user/hgt20/home/callum/QDESCP/Quinine_rdkit_conf_8/Quinine_rdkit_conf_8.xyz --acc 1 --gfn 2 --chrg 0 --uhf 0 --etemp 300 --input /rds/general/user/hgt20/home/callum/QDESCP/Quinine_rdkit_conf_8/Quinine_rdkit_conf_8_xtb.inp -P 1
          hostname                   : login-c
          coordinate file            : /rds/general/user/hgt20/home/callum/QDESCP/Quinine_rdkit_conf_8/Quinine_rdkit_conf_8.xyz
          omp threads                :                     1


           -------------------------------------------------
          |                 G F N 2 - x T B                 |
           -------------------------------------------------

        Reference                      10.1021/acs.jctc.8b01176
      * Hamiltonian:
        H0-scaling (s, p, d)           1.850000    2.230000    2.230000
        zeta-weighting                 0.500000
      * Dispersion:
        s8                             2.700000
        a1                             0.520000
        a2                             5.000000
        s9                             5.000000
      * Repulsion:
        kExp                           1.500000    1.000000
        rExp                           1.000000
      * Coulomb:
        alpha                          2.000000
        third order                    shell-resolved
        anisotropic                    true
        a3                             3.000000
        a5                             4.000000
        cn-shift                       1.200000
        cn-exp                         4.000000
        max-rad                        5.000000

q/qsh data taken from xtbrestart
CAMM data taken from xtbrestart

          ...................................................
          :                      SETUP                      :
          :.................................................:
          :  # basis functions                 120          :
          :  # atomic orbitals                 120          :
          :  # shells                           72          :
          :  # electrons                       126          :
          :  max. iterations                   250          :
          :  Hamiltonian                  GFN2-xTB          :
          :  restarted?                       true          :
          :  GBSA solvation                  false          :
          :  PC potential                    false          :
          :  electronic temp.          300.0000000     K    :
          :  accuracy                    1.0000000          :
          :  -> integral cutoff          0.2500000E+02      :
          :  -> integral neglect         0.1000000E-07      :
          :  -> SCF convergence          0.1000000E-05 Eh   :
          :  -> wf. convergence          0.1000000E-03 e    :
          :  Broyden damping             0.4000000          :
          :  net charge                          0          :
          :  unpaired electrons                  0          :
          ...................................................

 iter      E             dE          RMSdq      gap      omega  full diag
   1    -70.0279245 -0.700279E+02  0.166E-05    2.49       0.0  T
   2    -70.0279245 -0.417799E-11  0.106E-05    2.49    1360.1  T
   3    -70.0279245 -0.203215E-11  0.645E-06    2.49    2236.2  T

   *** convergence criteria satisfied after 3 iterations ***

         #    Occupation            Energy/Eh            Energy/eV
      -------------------------------------------------------------
         1        2.0000           -0.7161415             -19.4872
       ...           ...                  ...                  ...
        57        2.0000           -0.4214661             -11.4687
        58        2.0000           -0.4096406             -11.1469
        59        2.0000           -0.4036087             -10.9828
        60        2.0000           -0.3948966             -10.7457
        61        2.0000           -0.3748421             -10.2000
        62        2.0000           -0.3669208              -9.9844
        63        2.0000           -0.3581859              -9.7467 (HOMO)
        64                         -0.2665670              -7.2537 (LUMO)
        65                         -0.2278115              -6.1991
        66                         -0.2095314              -5.7016
        67                         -0.1946520              -5.2968
        68                         -0.1469179              -3.9978
       ...                                ...                  ...
       120                          0.7049979              19.1840
      -------------------------------------------------------------
                  HL-Gap            0.0916189 Eh            2.4931 eV
             Fermi-level           -0.3123765 Eh           -8.5002 eV

 SCC (total)                   0 d,  0 h,  0 min,  0.059 sec
 SCC setup                      ...        0 min,  0.000 sec (  0.720%)
 Dispersion                     ...        0 min,  0.001 sec (  1.064%)
 classical contributions        ...        0 min,  0.000 sec (  0.314%)
 integral evaluation            ...        0 min,  0.009 sec ( 16.016%)
 iterations                     ...        0 min,  0.009 sec ( 14.750%)
 molecular gradient             ...        0 min,  0.039 sec ( 66.752%)
 printout                       ...        0 min,  0.000 sec (  0.374%)

         :::::::::::::::::::::::::::::::::::::::::::::::::::::
         ::                     SUMMARY                     ::
         :::::::::::::::::::::::::::::::::::::::::::::::::::::
         :: total energy             -69.043863624402 Eh    ::
         :: gradient norm              0.000750679560 Eh/a0 ::
         :: HOMO-LUMO gap              2.493076560510 eV    ::
         ::.................................................::
         :: SCC energy               -70.026809136758 Eh    ::
         :: -> isotropic ES            0.054823927315 Eh    ::
         :: -> anisotropic ES          0.006850731625 Eh    ::
         :: -> anisotropic XC          0.036227868828 Eh    ::
         :: -> dispersion             -0.055081068557 Eh    ::
         :: repulsion energy           0.982945512356 Eh    ::
         :: add. restraining           0.000000000000 Eh    ::
         :: total charge               0.000000000000 e     ::
         :::::::::::::::::::::::::::::::::::::::::::::::::::::

           -------------------------------------------------
          |                Property Printout                |
           -------------------------------------------------

    * Orbital Energies and Occupations

         #    Occupation            Energy/Eh            Energy/eV
      -------------------------------------------------------------
         1        2.0000           -0.7161415             -19.4872
       ...           ...                  ...                  ...
        51        2.0000           -0.4413618             -12.0101
        52        2.0000           -0.4404015             -11.9839
        53        2.0000           -0.4372275             -11.8976
        54        2.0000           -0.4367429             -11.8844
        55        2.0000           -0.4285411             -11.6612
        56        2.0000           -0.4224456             -11.4953
        57        2.0000           -0.4214661             -11.4687
        58        2.0000           -0.4096406             -11.1469
        59        2.0000           -0.4036087             -10.9828
        60        2.0000           -0.3948966             -10.7457
        61        2.0000           -0.3748421             -10.2000
        62        2.0000           -0.3669208              -9.9844
        63        2.0000           -0.3581859              -9.7467 (HOMO)
        64                         -0.2665670              -7.2537 (LUMO)
        65                         -0.2278115              -6.1991
        66                         -0.2095314              -5.7016
        67                         -0.1946520              -5.2968
        68                         -0.1469179              -3.9978
        69                         -0.0632277              -1.7205
        70                          0.0085255               0.2320
        71                          0.0225689               0.6141
        72                          0.0330923               0.9005
        73                          0.0341199               0.9284
        74                          0.0503521               1.3701
       ...                                ...                  ...
       120                          0.7049979              19.1840
      -------------------------------------------------------------
                  HL-Gap            0.0916189 Eh            2.4931 eV
             Fermi-level           -0.3123765 Eh           -8.5002 eV

     #   Z          covCN         q      C6AA      α(0)
     1   8 O        1.655    -0.446    21.759     6.297
     2   6 C        3.732     0.111    18.840     6.196
     3   6 C        3.826     0.033    19.994     6.363
     4   7 N        2.729    -0.200    25.333     7.475
     5   6 C        3.782     0.011    20.412     6.436
     6   6 C        3.808    -0.065    21.738     6.637
     7   6 C        3.776     0.009    20.451     6.443
     8   6 C        3.860    -0.027    21.010     6.519
     9   6 C        2.888    -0.032    28.807     8.799
    10   6 C        2.835    -0.095    30.366     9.030
    11   6 C        3.865    -0.008    20.686     6.468
    12   6 C        3.809    -0.065    21.749     6.638
    13   6 C        2.973     0.011    27.764     8.643
    14   6 C        2.917    -0.052    29.286     8.874
    15   6 C        2.904     0.059    26.670     8.468
    16   7 N        1.842    -0.232    26.921     7.689
    17   6 C        2.977     0.081    26.187     8.394
    18   6 C        2.984     0.003    27.957     8.673
    19   6 C        2.914    -0.079    29.974     8.978
    20   6 C        2.864     0.143    24.892     8.178
    21   8 O        1.705    -0.267    18.422     5.795
    22   6 C        3.645     0.036    20.293     6.474
    23   6 C        2.916    -0.048    29.187     8.859
    24   6 C        2.921    -0.039    28.967     8.826
    25   1 H        0.804     0.302     0.714     1.327
    26   1 H        0.923     0.014     2.826     2.629
    27   1 H        0.924     0.037     2.494     2.470
    28   1 H        0.924     0.029     2.600     2.521
    29   1 H        0.924     0.033     2.539     2.492
    30   1 H        0.924     0.030     2.582     2.513
    31   1 H        0.924     0.029     2.604     2.524
    32   1 H        0.924     0.030     2.581     2.512
    33   1 H        0.924     0.037     2.491     2.468
    34   1 H        0.924     0.036     2.505     2.475
    35   1 H        0.925     0.030     2.592     2.518
    36   1 H        0.926     0.038     2.476     2.461
    37   1 H        0.926     0.036     2.505     2.475
    38   1 H        0.924     0.028     2.610     2.526
    39   1 H        0.924     0.027     2.634     2.538
    40   1 H        0.924     0.036     2.504     2.474
    41   1 H        0.926     0.027     2.624     2.533
    42   1 H        0.925     0.036     2.501     2.473
    43   1 H        0.926     0.061     2.182     2.310
    44   1 H        0.925     0.062     2.181     2.309
    45   1 H        0.924     0.046     2.366     2.406
    46   1 H        0.924     0.038     2.478     2.462
    47   1 H        0.926     0.054     2.275     2.359
    48   1 H        0.926     0.060     2.202     2.321

 Mol. C6AA /au·bohr⁶  :      24095.164501
 Mol. C8AA /au·bohr⁸  :     561732.229267
 Mol. α(0) /au        :        239.249907


Wiberg/Mayer (AO) data.
largest (>0.10) Wiberg bond orders for each atom

 ---------------------------------------------------------------------------
     #   Z sym  total        # sym  WBO       # sym  WBO       # sym  WBO
 ---------------------------------------------------------------------------
     1   8 O    1.963 --     2 C    0.993    25 H    0.876
     2   6 C    3.960 --     1 O    0.993    13 C    0.992     3 C    0.953
                            26 H    0.949
     3   6 C    3.982 --     4 N    0.986    12 C    0.985    27 H    0.962
                             2 C    0.953
     4   7 N    3.135 --     7 C    1.005     5 C    1.000     3 C    0.986
     5   6 C    3.986 --     4 N    1.000     6 C    0.990    29 H    0.976
                            28 H    0.975
[...]
   
   in the mass-spec context:
   * V. Asgeirsson, C. Bauer and S. Grimme, Chem. Sci., 2017, 8, 4879.
     DOI: 10.1039/c7sc00601b
   * J. Koopman and S. Grimme, ACS Omega 2019, 4, 12, 15120-15133.
     DOI: 10.1021/acsomega.9b02011
   
   for metadynamics refer to:
   * S. Grimme, J. Chem. Theory Comput., 2019, 155, 2847-2862
     DOI: 10.1021/acs.jctc.9b00143
   
   for SPH calculations refer to:
   * S. Spicher and S. Grimme, J. Chem. Theory Comput., 2021, 17, 1701-1714
     DOI: 10.1021/acs.jctc.0c01306
   
   for ONIOM refer to:
   * C. Plett, A. Katbashev, S. Ehlert, S. Grimme, M. Bursch,
     Phys. Chem. Chem. Phys., 2023, 25, 17860-17868. DOI: 10.1039/D3CP02178E
   
   for DIPRO refer to:
   * J. Kohn, N. Gildemeister, S. Grimme, D. Fazzi, A. Hansen,
     J. Chem. Phys., 2023, just accepted.
   
   for PTB refer to:
   * S. Grimme, M. Mueller, A. Hansen, J. Chem. Phys., 2023, 158, 124111.
     DOI: 10.1063/5.0137838
   
   with help from (in alphabetical order)
   P. Atkinson, C. Bannwarth, F. Bohle, G. Brandenburg, E. Caldeweyher
   M. Checinski, S. Dohm, S. Ehlert, S. Ehrlich, I. Gerasimov, C. Hölzer
   A. Katbashev, J. Kohn, J. Koopman, C. Lavigne, S. Lehtola, F. März, M. Müller,
   F. Musil, H. Neugebauer, J. Pisarek, C. Plett, P. Pracht, F. Pultar,
   J. Seibert, P. Shushkov, S. Spicher, M. Stahn, M. Steiner, T. Strunk,
   J. Stückrath, T. Rose, and J. Unsleber
   
 * started run on 2025/05/15 at 16:35:58.814     
   ID    Z sym.   atoms
    1    8 O      1, 21
    2    6 C      2, 3, 5-15, 17-20, 22-24
    3    7 N      4, 16
    4    1 H      25-48

           -------------------------------------------------
          |                Calculation Setup                |
           -------------------------------------------------

          program call               : xtb /rds/general/user/hgt20/home/callum/QDESCP/Quinine_rdkit_conf_8/Quinine_rdkit_conf_8.xyz --acc 1 --gfn 2 --chrg 0 --uhf 2 --etemp 300 --input /rds/general/user/hgt20/home/callum/QDESCP/Quinine_rdkit_conf_8/Quinine_rdkit_conf_8_xtb.inp -P 1
          hostname                   : login-c
          coordinate file            : /rds/general/user/hgt20/home/callum/QDESCP/Quinine_rdkit_conf_8/Quinine_rdkit_conf_8.xyz
          omp threads                :                     1


           -------------------------------------------------
          |                 G F N 2 - x T B                 |
           -------------------------------------------------

        Reference                      10.1021/acs.jctc.8b01176
      * Hamiltonian:
        H0-scaling (s, p, d)           1.850000    2.230000    2.230000
        zeta-weighting                 0.500000
      * Dispersion:
        s8                             2.700000
        a1                             0.520000
        a2                             5.000000
        s9                             5.000000
      * Repulsion:
        kExp                           1.500000    1.000000
        rExp                           1.000000
      * Coulomb:
        alpha                          2.000000
        third order                    shell-resolved
        anisotropic                    true
        a3                             3.000000
        a5                             4.000000
        cn-shift                       1.200000
        cn-exp                         4.000000
        max-rad                        5.000000


          ...................................................
          :                      SETUP                      :
          :.................................................:
          :  # basis functions                 120          :
          :  # atomic orbitals                 120          :
          :  # shells                           72          :
          :  # electrons                       126          :
          :  max. iterations                   250          :
          :  Hamiltonian                  GFN2-xTB          :
          :  restarted?                      false          :
          :  GBSA solvation                  false          :
          :  PC potential                    false          :
          :  electronic temp.          300.0000000     K    :
          :  accuracy                    1.0000000          :
          :  -> integral cutoff          0.2500000E+02      :
          :  -> integral neglect         0.1000000E-07      :
          :  -> SCF convergence          0.1000000E-05 Eh   :
          :  -> wf. convergence          0.1000000E-03 e    :
          :  Broyden damping             0.4000000          :
          :  net charge                          0          :
          :  unpaired electrons                  2          :
          ...................................................

 iter      E             dE          RMSdq      gap      omega  full diag
   1    -69.6441599 -0.696442E+02  0.362E+00    0.95       0.0  T
   2    -69.4322414  0.211919E+00  0.306E+00    0.72       1.0  T
   3    -69.4559823 -0.237410E-01  0.290E+00    1.17       1.0  T
   4    -69.8639929 -0.408011E+00  0.148E+00    1.04       1.0  T
   5    -69.8078886  0.561043E-01  0.131E+00    0.92       1.0  T
   6    -69.7469609  0.609277E-01  0.123E+00    0.97       1.0  T
   7    -69.9060706 -0.159110E+00  0.604E-01    1.01       1.0  T
   8    -69.9151011 -0.903049E-02  0.439E-01    0.99       1.0  T
   9    -69.9029297  0.121714E-01  0.577E-01    0.99       1.0  T
  10    -69.9194631 -0.165334E-01  0.257E-01    0.98       1.0  T
  11    -69.9211569 -0.169380E-02  0.194E-01    0.98       1.0  T
  12    -69.9211213  0.356402E-04  0.186E-01    0.98       1.0  T
  13    -69.9215929 -0.471649E-03  0.164E-01    0.98       1.0  T
  14    -69.9232525 -0.165960E-02  0.350E-02    0.97       1.0  T
  15    -69.9233527 -0.100166E-03  0.230E-02    0.97       1.0  T
  16    -69.9229664  0.386269E-03  0.608E-02    0.97       1.0  T
  17    -69.9233721 -0.405655E-03  0.107E-02    0.97       1.4  T
  18    -69.9233303  0.417662E-04  0.214E-02    0.97       1.0  T
  19    -69.9233791 -0.487529E-04  0.387E-03    0.97       3.7  T
  20    -69.9233759  0.320931E-05  0.597E-03    0.97       2.4  T
  21    -69.9233798 -0.392514E-05  0.625E-04    0.97      23.1  T
  22    -69.9233797  0.673659E-07  0.875E-04    0.97      16.5  T
  23    -69.9233798 -0.420825E-07  0.648E-04    0.97      22.3  T

   *** convergence criteria satisfied after 23 iterations ***

         #    Occupation            Energy/Eh            Energy/eV
      -------------------------------------------------------------
         1        2.0000           -0.7169001             -19.5078
       ...           ...                  ...                  ...
        58        2.0000           -0.4119098             -11.2086
        59        2.0000           -0.4017578             -10.9324
        60        2.0000           -0.3841822             -10.4541
        61        1.9957           -0.3732921             -10.1578
        62        1.6744           -0.3688169             -10.0360
        63        1.3299           -0.3674518              -9.9989
        64        1.0000           -0.2556772              -6.9573 (HOMO)
        65                         -0.2200106              -5.9868 (LUMO)
        66                         -0.2117668              -5.7625
        67                         -0.1865194              -5.0755
        68                         -0.1364593              -3.7132
        69                         -0.0564758              -1.5368
       ...                                ...                  ...
       120                          0.7119759              19.3738
      -------------------------------------------------------------
                  HL-Gap            0.0356666 Eh            0.9705 eV
             Fermi-level           -0.3029845 Eh           -8.2446 eV

 transition dipole moment (au) for excitation:          63          64
     X       Y       Z   
   0.7826  -0.3728   0.0554  total (au/Debye):    0.869   2.208
 dE (eV)             :    3.042
 oscillator strength :  0.79507E-01

 SCC (total)                   0 d,  0 h,  0 min,  0.113 sec
 SCC setup                      ...        0 min,  0.000 sec (  0.373%)
 Dispersion                     ...        0 min,  0.001 sec (  0.508%)
 classical contributions        ...        0 min,  0.000 sec (  0.164%)
 integral evaluation            ...        0 min,  0.009 sec (  8.333%)
 iterations                     ...        0 min,  0.064 sec ( 57.307%)
 molecular gradient             ...        0 min,  0.029 sec ( 25.983%)
 printout                       ...        0 min,  0.008 sec (  7.326%)

         :::::::::::::::::::::::::::::::::::::::::::::::::::::
         ::                     SUMMARY                     ::
         :::::::::::::::::::::::::::::::::::::::::::::::::::::
         :: total energy             -68.939318867556 Eh    ::
         :: gradient norm              0.102288863554 Eh/a0 ::
         :: HOMO-LUMO gap              0.970537739086 eV    ::
         ::.................................................::
         :: SCC energy               -69.922264379912 Eh    ::
         :: -> isotropic ES            0.052132932354 Eh    ::
         :: -> anisotropic ES          0.008253767591 Eh    ::
         :: -> anisotropic XC          0.030172611025 Eh    ::
         :: -> dispersion             -0.055013618790 Eh    ::
         :: repulsion energy           0.982945512356 Eh    ::
         :: add. restraining           0.000000000000 Eh    ::
         :: total charge              -0.000000000001 e     ::
         :::::::::::::::::::::::::::::::::::::::::::::::::::::

           -------------------------------------------------
          |                Property Printout                |
           -------------------------------------------------

    * Orbital Energies and Occupations

         #    Occupation            Energy/Eh            Energy/eV
      -------------------------------------------------------------
         1        2.0000           -0.7169001             -19.5078
       ...           ...                  ...                  ...
        52        2.0000           -0.4356786             -11.8554
        53        2.0000           -0.4335893             -11.7986
        54        2.0000           -0.4300432             -11.7021
        55        2.0000           -0.4255139             -11.5788
        56        2.0000           -0.4225852             -11.4991
        57        2.0000           -0.4165522             -11.3350
        58        2.0000           -0.4119098             -11.2086
        59        2.0000           -0.4017578             -10.9324
        60        2.0000           -0.3841822             -10.4541
        61        1.9957           -0.3732921             -10.1578
        62        1.6744           -0.3688169             -10.0360
        63        1.3299           -0.3674518              -9.9989
        64        1.0000           -0.2556772              -6.9573 (HOMO)
        65                         -0.2200106              -5.9868 (LUMO)
        66                         -0.2117668              -5.7625
        67                         -0.1865194              -5.0755
        68                         -0.1364593              -3.7132
        69                         -0.0564758              -1.5368
        70                          0.0062013               0.1687
        71                          0.0206292               0.5613
        72                          0.0311067               0.8465
        73                          0.0338897               0.9222
        74                          0.0504586               1.3730
        75                          0.0610978               1.6626
       ...                                ...                  ...
       120                          0.7119759              19.3738
      -------------------------------------------------------------
                  HL-Gap            0.0356666 Eh            0.9705 eV
             Fermi-level           -0.3029845 Eh           -8.2446 eV

     #   Z          covCN         q      C6AA      α(0)
     1   8 O        1.655    -0.441    21.664     6.283
     2   6 C        3.732     0.116    18.771     6.184
     3   6 C        3.826     0.031    20.041     6.370
     4   7 N        2.729    -0.186    25.032     7.431
     5   6 C        3.782     0.010    20.431     6.439
     6   6 C        3.808    -0.065    21.738     6.637
     7   6 C        3.776     0.008    20.472     6.447
     8   6 C        3.860    -0.026    20.994     6.516
     9   6 C        2.888    -0.033    28.808     8.800
    10   6 C        2.835    -0.094    30.345     9.027
    11   6 C        3.865    -0.010    20.706     6.471
    12   6 C        3.809    -0.066    21.759     6.640
    13   6 C        2.973    -0.032    28.788     8.801
    14   6 C        2.917    -0.059    29.478     8.903
    15   6 C        2.904     0.038    27.148     8.543
    16   7 N        1.842    -0.185    25.832     7.532
    17   6 C        2.977     0.084    26.120     8.383
    18   6 C        2.984     0.013    27.717     8.636
    19   6 C        2.914    -0.081    30.034     8.987
    20   6 C        2.864     0.142    24.911     8.181
    21   8 O        1.705    -0.254    18.206     5.761
    22   6 C        3.645     0.036    20.307     6.477
    23   6 C        2.916    -0.069    29.708     8.938
    24   6 C        2.921    -0.057    29.416     8.894
    25   1 H        0.804     0.300     0.720     1.333
    26   1 H        0.923     0.017     2.780     2.608
    27   1 H        0.924     0.039     2.464     2.455
    28   1 H        0.924     0.032     2.561     2.502
    29   1 H        0.924     0.035     2.518     2.482
    30   1 H        0.924     0.033     2.544     2.494
    31   1 H        0.924     0.031     2.578     2.511
    32   1 H        0.924     0.032     2.553     2.499
    33   1 H        0.924     0.040     2.444     2.445
    34   1 H        0.924     0.037     2.488     2.467
    35   1 H        0.925     0.031     2.578     2.511
    36   1 H        0.926     0.039     2.456     2.451
    37   1 H        0.926     0.038     2.482     2.464
    38   1 H        0.924     0.031     2.569     2.506
    39   1 H        0.924     0.032     2.562     2.503
    40   1 H        0.924     0.040     2.450     2.448
    41   1 H        0.926     0.025     2.654     2.548
    42   1 H        0.925     0.038     2.477     2.461
    43   1 H        0.926     0.064     2.155     2.296
    44   1 H        0.925     0.063     2.169     2.303
    45   1 H        0.924     0.051     2.313     2.378
    46   1 H        0.924     0.041     2.436     2.441
    47   1 H        0.926     0.044     2.396     2.421
    48   1 H        0.926     0.049     2.337     2.391

 Mol. C6AA /au·bohr⁶  :      24077.576128
 Mol. C8AA /au·bohr⁸  :     561791.762485
 Mol. α(0) /au        :        239.195689


Wiberg/Mayer (AO) data.
largest (>0.10) Wiberg bond orders for each atom

 ---------------------------------------------------------------------------
     #   Z sym  total        # sym  WBO       # sym  WBO       # sym  WBO
 ---------------------------------------------------------------------------
     1   8 O    1.970 --     2 C    0.991    25 H    0.876
     2   6 C    3.939 --     1 O    0.991    13 C    0.978     3 C    0.949
                            26 H    0.945
     3   6 C    3.969 --     4 N    0.984    12 C    0.982    27 H    0.961
                             2 C    0.949
     4   7 N    3.133 --     7 C    1.006     5 C    0.999     3 C    0.984
     5   6 C    3.982 --     4 N    0.999     6 C    0.987    29 H    0.976
                            28 H    0.975
     6   6 C    3.992 --    11 C    0.997     5 C    0.987    30 H    0.979
                            31 H    0.979
     7   6 C    3.981 --     4 N    1.006    32 H    0.975    33 H    0.969
                             8 C    0.959
     8   6 C    3.988 --     9 C    1.016    11 C    0.986     7 C    0.959
                            34 H    0.952
     9   6 C    3.990 --    10 C    1.974     8 C    1.016    35 H    0.965
    10   6 C    3.989 --     9 C    1.974    37 H    0.976    36 H    0.972
    11   6 C    3.995 --     6 C    0.997    12 C    0.997     8 C    0.986
                            38 H    0.964
    12   6 C    3.992 --    11 C    0.997     3 C    0.982    39 H    0.978
                            40 H    0.971
    13   6 C    3.853 --    14 C    1.337    18 C    1.232     2 C    0.978
    14   6 C    3.928 --    15 C    1.423    13 C    1.337    41 H    0.962
    15   6 C    3.912 --    14 C    1.423    16 N    1.352    42 H    0.951
    16   7 N    2.965 --    15 C    1.352    17 C    1.285
    17   6 C    3.917 --    16 N    1.285    24 C    1.263    18 C    1.188
    18   6 C    3.941 --    19 C    1.314    13 C    1.232    17 C    1.188
    19   6 C    3.830 --    18 C    1.314    20 C    1.295    43 H    0.942
    20   6 C    3.855 --    23 C    1.321    19 C    1.295    21 O    1.076
    21   8 O    2.206 --    20 C    1.076    22 C    0.986
    22   6 C    3.944 --    21 O    0.986    44 H    0.980    46 H    0.975
                            45 H    0.973
    23   6 C    3.971 --    24 C    1.450    20 C    1.321    47 H    0.965
    24   6 C    3.897 --    23 C    1.450    17 C    1.263    48 H    0.963
    25   1 H    0.908 --     1 O    0.876
    26   1 H    0.995 --     2 C    0.945
    27   1 H    0.998 --     3 C    0.961
    28   1 H    0.998 --     5 C    0.975
    29   1 H    0.998 --     5 C    0.976
    30   1 H    0.998 --     6 C    0.979
    31   1 H    0.998 --     6 C    0.979
    32   1 H    0.998 --     7 C    0.975
    33   1 H    0.998 --     7 C    0.969
    34   1 H    0.998 --     8 C    0.952
    35   1 H    0.999 --     9 C    0.965
    36   1 H    0.998 --    10 C    0.972
    37   1 H    0.998 --    10 C    0.976
    38   1 H    0.996 --    11 C    0.964
    39   1 H    0.998 --    12 C    0.978
    40   1 H    0.998 --    12 C    0.971
    41   1 H    0.993 --    14 C    0.962
    42   1 H    0.986 --    15 C    0.951
    43   1 H    0.988 --    19 C    0.942
    44   1 H    0.996 --    22 C    0.980
    45   1 H    0.993 --    22 C    0.973
    46   1 H    0.994 --    22 C    0.975
    47   1 H    0.995 --    23 C    0.965
    48   1 H    0.992 --    24 C    0.963
 ---------------------------------------------------------------------------

Topologies differ in total number of bonds
Writing topology from bond orders to xtbtopo.mol

molecular dipole:
                 x           y           z       tot (Debye)
 q only:        1.579       0.354      -0.778
   full:        2.257       0.488      -0.745       6.167
molecular quadrupole (traceless):
                xx          xy          yy          xz          yz          zz
 q only:       -6.358      -1.711      -2.055       1.426       1.172       8.413
  q+dip:       -7.901      -4.411      -3.038       2.644      -0.773      10.939
   full:       -8.590      -1.880      -0.969       2.526      -0.351       9.559


           -------------------------------------------------
          | TOTAL ENERGY              -68.939318867556 Eh   |
          | GRADIENT NORM               0.102288863554 Eh/α |
          | HOMO-LUMO GAP               0.970537739086 eV   |
           -------------------------------------------------

------------------------------------------------------------------------
 * finished run on 2025/05/15 at 16:35:58.943     
------------------------------------------------------------------------
 total:
 * wall-time:     0 d,  0 h,  0 min,  0.128 sec
 *  cpu-time:     0 d,  0 h,  0 min,  0.118 sec
 * ratio c/w:     0.918 speedup
 SCF:
 * wall-time:     0 d,  0 h,  0 min,  0.113 sec
 *  cpu-time:     0 d,  0 h,  0 min,  0.104 sec
 * ratio c/w:     0.924 speedup


