48
 energy: -69.043863624368 gnorm: 0.000750655239 xtb: 6.7.1 (edcfbbe)
O           -0.30108556260268       -2.16083529949899       -0.73756205667294
C           -0.09795836405697       -1.30786818563555        0.36501338965563
C            0.66792338791243       -0.04122557686413       -0.08069121545592
N            1.79859534378091       -0.42749024925755       -0.92914874194951
C            2.25264358521657        0.75203594101922       -1.65401346634171
C            2.53757505824989        1.91150694281543       -0.67683658135200
C            2.90162270583161       -0.95033489746277       -0.13604854354012
C            3.53283856101566        0.15069239316562        0.75763790576209
C            3.87292183362206       -0.40463550832762        2.10864673690948
C            3.57071782795961        0.10282992390656        3.28918766212647
C            2.55584378010015        1.33416558110557        0.74408517153271
C            1.14990145924656        0.82928691599348        1.09010929314610
C           -1.39588869812645       -0.90634160362398        1.02222406159879
C           -1.48484935133834       -0.94914428823548        2.39381744306709
C           -2.64845231386013       -0.49947099164316        3.03296173123212
N           -3.68480545675848       -0.02963798321152        2.39794437848713
C           -3.64385902207063        0.00972941660211        1.05407516073081
C           -2.51696985359183       -0.42331980936142        0.29720264971891
C           -2.57327309425180       -0.35310879929169       -1.10977191582461
C           -3.69109007277077        0.13196809613393       -1.74262389113249
O           -3.84107883966939        0.23622946303390       -3.09162051000096
C           -2.78854350355188       -0.19993947492845       -3.91676109148212
C           -4.80132463389731        0.57262710465695       -0.98526544480478
C           -4.77739661529010        0.50852440268805        0.37349280513663
H            0.49442109143016       -2.08693016722705       -1.28586838163497
H            0.50439450707099       -1.84032297404426        1.12177934405399
H           -0.00987939121936        0.53448612296594       -0.71970645470202
H            1.48242158997580        1.02674132101644       -2.37934327322416
H            3.15078429012923        0.47345001283261       -2.20961605180239
H            1.76284258152016        2.67681045434651       -0.74612766976901
H            3.49477882061961        2.38218833797556       -0.90499103849724
H            3.64059676326845       -1.36701559825228       -0.82596419376790
H            2.52682435512837       -1.76833013660471        0.48107218059906
H            4.47491365951561        0.48188385372100        0.30134267962722
H            4.44024224336370       -1.32733540716239        2.05916958806613
H            3.02058126409597        1.01987723409461        3.41152238798343
H            3.87423326119464       -0.38501063873253        4.20015188375301
H            2.87413169294298        2.10267978333939        1.45164156952804
H            0.46838780245400        1.66591703548212        1.24927248453241
H            1.18632615671351        0.24589144264519        2.01068157608909
H           -0.66375220275347       -1.32297451311622        2.98801060647083
H           -2.72338293934379       -0.52341678472544        4.11282514310291
H           -1.73563162131464       -0.72856556225234       -1.67103409164092
H           -3.12996904853333       -0.04309763316493       -4.93874049228260
H           -2.57134014665570       -1.26143492192926       -3.76341443131077
H           -1.87791067203455        0.38393075393660       -3.74601053256900
H           -5.65979665450066        0.94607917926079       -1.52144051268427
H           -5.61832556416273        0.82825529181720        0.96813274953272
