48
 energy: -69.042890048266 gnorm: 0.000468750201 xtb: 6.7.1 (edcfbbe)
O           -0.28496808339364       -2.24112492011683       -2.34465189499200
C           -0.05173406750788       -1.33777126350144       -1.28663092570910
C           -1.11264201467203       -1.56802714572871       -0.18794628861799
N           -2.45071317562414       -1.46073291018979       -0.77463475269410
C           -3.41327583096890       -2.04015448276580        0.15077404107915
C           -3.31605740916881       -1.36454238939994        1.53476521909516
C           -2.81359315947833       -0.07455540037263       -1.03153230328302
C           -2.88650890484479        0.75397838537813        0.27407758791438
C           -2.10776789076518        2.03911728793615        0.22726964451086
C           -1.92261476270782        2.80015349615590       -0.83552966825128
C           -2.38138990055204       -0.15761150262706        1.40435788592488
C           -0.97706439607466       -0.64313886901373        1.03352391833021
C            1.32490691611495       -1.56930577501876       -0.71976043150532
C            1.77828073487709       -2.85791198981115       -0.58261502198910
C            3.03793182561860       -3.09617482250350       -0.01281804421165
N            3.82565243631043       -2.15266478595295        0.41779876421783
C            3.42115323747211       -0.87448154918159        0.28703685007992
C            2.16905465580530       -0.50786613137294       -0.29067729210061
C            1.86370323904701        0.85964097655674       -0.39560673798418
C            2.73010127421763        1.82960873827943        0.06233114899090
O            2.31272984198082        3.11827853802873       -0.09146019563927
C            3.15219643861486        4.16105115939984        0.34157498574968
C            3.95677335653635        1.45773061949809        0.64512918628200
C            4.28799092840680        0.13633799393298        0.74631324005580
H           -1.24524006655492       -2.30172996988995       -2.44622381382277
H           -0.12662008005738       -0.31086724826254       -1.66853592529900
H           -1.00218765789948       -2.61444614209625        0.12204075782864
H           -4.40737899456821       -1.90896443059049       -0.28248284681984
H           -3.21784197841728       -3.11310360368818        0.22046863171549
H           -4.29997171981166       -1.04220251246988        1.87877275437999
H           -2.91138699680931       -2.05512010875717        2.27659796760581
H           -3.77652180328036       -0.07952389083314       -1.54832923155028
H           -2.07665088195707        0.35019878696165       -1.71250616257253
H           -3.93250598370345        1.01195983577387        0.48508744885952
H           -1.69541941809672        2.35179699551011        1.17895880546717
H           -1.35642835594417        3.71408290257058       -0.77877142380278
H           -2.32531063498771        2.55538026638382       -1.80498448602897
H           -2.35158466761132        0.39530107752451        2.34783573148126
H           -0.34664417247225        0.21595653977077        0.80366682459114
H           -0.52028825542888       -1.17769332275794        1.86775431750256
H            1.16998487432969       -3.68069849205915       -0.92284161580035
H            3.40359214583073       -4.10899274441711        0.10126764272792
H            0.94571166874689        1.19996935844508       -0.84839627991578
H            2.61555436145268        5.08130791657712        0.11548986388253
H            4.10667459310472        4.16041691712053       -0.19448123075065
H            3.33851330409439        4.10916804151369        1.41921009970921
H            4.64266882321681        2.20825117256020        1.00547677817459
H            5.22703660757121       -0.17018060249728        1.17963647718208
