57
 energy: -90.576551973204 gnorm: 0.000490307632 xtb: 6.7.1 (edcfbbe)
C            3.77473656766943        0.74207830281682       -2.33353307636837
N            3.70547074520500        0.52791201179988       -0.90336112400862
C            4.63337829735529        1.12921247885489       -0.12344465152899
N            5.64384366329548        1.73447407979114       -0.70168308764616
C            6.57376581543868        2.30183123329353        0.08804059762497
C            6.55019362454262        2.28832090209436        1.44598458491601
C            5.45686421172550        1.65510837022685        2.12063798001209
N            4.51481264037312        1.09821280580452        1.23123356304577
O            5.25353168161844        1.55813955418821        3.31393931495062
C            2.56994752891716       -0.19812936608735       -0.36038510372475
C            1.36896538911958        0.72401992610631       -0.09803991533085
C            0.21908655300695       -0.08327241780214        0.49896985242202
C            2.11940348652621       -1.34728959861585       -1.26558363947105
C            0.96123642466632       -2.08554736731033       -0.59871352507061
N           -0.14060682637505       -1.15560665886502       -0.41602628058971
C           -1.37020349743847       -1.75754416448772       -0.25529148418944
N           -1.55118695478863       -3.02624727260561       -0.01702992182435
C           -2.91105760186600       -3.21550053126243       -0.02671777228680
C           -3.55434556407194       -1.98521928346895       -0.28946168720699
N           -2.54204204099246       -1.06061087890839       -0.44358307270674
C           -2.69868942611667        0.29235767157997       -0.89671230866003
C           -2.91174298589499        1.29888205419762        0.21256424947722
C           -2.59307810886040        2.63484174639121       -0.00640683181259
C           -2.80496395058009        3.58342742952633        0.97617336878712
C           -3.33854100240880        3.17735568134847        2.18643784860108
F           -3.54740679159434        4.09565308553849        3.14989515478710
C           -3.66153940214814        1.85602027407650        2.43291251516011
C           -3.44739720704753        0.91963412216308        1.43713067860009
C           -4.93221048836505       -1.87777872548377       -0.34869041434460
C           -5.66109084678013       -3.03463117407572       -0.14301678433414
C           -5.03597463357118       -4.25313302970328        0.11756040795596
C           -3.66122788597868       -4.36517598653640        0.17972379525440
H            2.83176662817985        1.14610707948543       -2.70369241949676
H            4.00174535685939       -0.18758519427656       -2.85621907941508
H            4.57412335084858        1.45449009597240       -2.51912226490673
H            7.37582838938789        2.78171389570458       -0.45700670716137
H            7.31985276900908        2.74614181146016        2.04285586685293
H            3.72524360375114        0.66369947127704        1.68997763167994
H            2.87889962583089       -0.65571788776943        0.58767441544418
H            1.04692122527867        1.17222495734945       -1.03912433051347
H            1.64470186423467        1.52939630942384        0.58476466305190
H           -0.64229490262680        0.56062000606904        0.67699318795417
H            0.53208812020267       -0.50087906585570        1.47035885457931
H            2.94483877929973       -2.03861921334613       -1.43557591730625
H            1.77546415663362       -0.96408065121805       -2.22531503420694
H            0.60944899374432       -2.90224324244839       -1.22854088205947
H            1.27970855987945       -2.51483871281701        0.36174671571609
H           -3.56744298471301        0.32076527124468       -1.56705462487661
H           -1.81389715046678        0.56267206162945       -1.48231650705999
H           -2.17728433548625        2.93595635505076       -0.95679547403547
H           -2.56325055426829        4.62205261533187        0.81680160895274
H           -4.07588403071979        1.57273329076552        3.38710911509620
H           -3.69833530118815       -0.11424091942151        1.61959166322686
H           -5.42186382193691       -0.93414568892013       -0.54168620122641
H           -6.73936733917548       -2.99270665731534       -0.18280731494092
H           -5.64728341226615       -5.12935718160924        0.27510339518951
H           -3.17585900488421       -5.30585408028138        0.38315640899924
