66
 energy: -102.675089737489 gnorm: 0.000513334044 xtb: 6.7.1 (edcfbbe)
C           -6.44231401947050       -0.63131969643584        1.62183906768396
C           -5.59607277219833       -1.61671974820550        0.82693105026146
C           -5.71346936949404       -1.36623528237858       -0.68437176320372
C           -5.16467371708967       -0.03979564569475       -1.06704286816459
N           -5.85832750145274        1.03949438402112       -1.36417445417735
C           -4.98275357841388        2.03802061580267       -1.61662615428670
C           -5.42013212207940        3.40472057993826       -1.98783176784186
C           -3.69022705916720        1.56192571932265       -1.46947963187914
N           -3.84323735020195        0.23123373005432       -1.11951947782790
N           -2.75852943602013       -0.57016891495583       -0.90831657955526
C           -1.52005129500737       -0.03177120959064       -1.07322389110941
C           -0.34717769641118       -0.90655999332639       -0.88920187538526
C           -0.39514088651947       -2.28574416690896       -0.58698964587650
C            0.79608434187997       -2.99451902144884       -0.43886595964764
C            2.01880568189332       -2.36599497465739       -0.58506884780449
C            2.06272036983966       -1.01916268733885       -0.88479291905667
S            3.64502406925496       -0.19452555299473       -1.07215202319866
O            3.74144249767760        0.36090144583186       -2.38723193629874
N            3.42347488923596        1.05789332824588        0.01169064498520
C            3.60986527083904        0.67972980302998        1.39412499077113
C            5.08663125607145        0.67719938885118        1.79092216710357
N            5.67553174138387        1.97682968093723        1.50892151981367
C            5.55890226693882        2.26437577554536        0.08813068248202
C            4.08541223335963        2.30463526617543       -0.30924875002530
C            7.04813621496068        2.05586207601413        1.98361480040792
C            7.54560796402555        3.49538088003631        2.05240677922627
O            4.66203662595529       -1.12940721045327       -0.66469544628481
C            0.89987917350864       -0.29971991580944       -1.03683210654992
O           -1.61445257748598       -2.87762134780631       -0.44873513027667
C           -1.70708404912328       -4.27224898873208       -0.18322687864064
C           -3.18424495111292       -4.62930196781372       -0.13146775363997
N           -1.31377711120496        1.20219935174803       -1.36608717822181
C           -2.34744157680446        2.11387826520079       -1.58388576936081
O           -2.11091055261792        3.27154390482645       -1.84766510025636
H           -7.49367872809193       -0.74937982542625        1.37300136615616
H           -6.15475645609307        0.39083748637849        1.38952901755600
H           -6.31779458752189       -0.79482384310848        2.68968986459028
H           -4.55087193990225       -1.52904200001157        1.13740810419379
H           -5.92537888570066       -2.63635539296210        1.04022450769532
H           -6.76403796452439       -1.38441147558602       -0.97297937705416
H           -5.18961324877191       -2.15501350274062       -1.23362983466847
H           -5.14520789241587        4.11215862882711       -1.20718287065735
H           -4.92442148729815        3.71983764573433       -2.90359332445093
H           -6.49739059959830        3.41424773457459       -2.12421230295137
H           -2.90548289697637       -1.55253673330132       -0.71632031433551
H            0.77764687019650       -4.04659021394043       -0.20668387254399
H            2.94448951013852       -2.90694850833752       -0.46902257305891
H            3.06041621655022        1.39751830908631        2.01028325032103
H            3.18088615199923       -0.31522862365367        1.52739978738370
H            5.16969374217056        0.48057240677255        2.86294434622408
H            5.59645546140491       -0.13026757775434        1.23996401930292
H            6.06799923261647        1.49560099341696       -0.52209888100708
H            6.01154493299205        3.23468918568878       -0.11629906033299
H            3.57063837928765        3.10337776951945        0.23161153082744
H            3.97994698828758        2.45647514317975       -1.38294632635583
H            7.06232886458793        1.63602360461068        2.99308711693807
H            7.72816028313426        1.45126470289954        1.35836830898287
H            8.47545176734873        3.53412918565481        2.61417900398398
H            6.80554429697274        4.11347143688352        2.55303645471684
H            7.73123179155645        3.90439821614472        1.06326670496409
H            0.92940597805917        0.75107421229622       -1.27426437990883
H           -1.22833065313172       -4.50073236692872        0.77661356517293
H           -1.20767788833316       -4.83665156076563       -0.97960093164793
H           -3.29478762647129       -5.68953334830582        0.07443668177904
H           -3.68214230622787       -4.06550899082798        0.65310384558015
H           -3.65990428120565       -4.40756056904259       -1.08356122154636
