66
 energy: -102.671496342129 gnorm: 0.000480515788 xtb: 6.7.1 (edcfbbe)
C           -4.18183272424260       -1.58389789168225        3.84030417171475
C           -5.48080042973374       -0.81435316559779        3.63213683116933
C           -5.37158218175518        0.27172473784629        2.55144783290016
C           -5.13241844582372       -0.29823191619516        1.19992102693700
N           -6.06179648376243       -0.66370367487021        0.34235230398551
C           -5.44237065201792       -1.13493736331106       -0.76406905780549
C           -6.17844080204868       -1.64196834215255       -1.94680320962858
C           -4.07125229673628       -1.05852135614265       -0.58878973045889
N           -3.90721829026507       -0.52247689408893        0.67814470142965
N           -2.66104573461371       -0.31135008028779        1.19278882269172
C           -1.58703909260018       -0.60520914713737        0.41396836820302
C           -0.24366253286512       -0.36455251609245        0.96944257241865
C            0.03594903128648        0.50599299895227        2.04367639162445
C            1.35957648461946        0.70295725296889        2.43614453275395
C            2.39142801664002        0.04141502554451        1.79726985210037
C            2.11124537354379       -0.83068002339715        0.76377406871174
S            3.47684187191444       -1.67597234511253       -0.03251999802757
O            2.99385876271380       -2.87363819309997       -0.65471177264609
N            3.92233331387615       -0.51896957047592       -1.16597750566979
C            3.04935140618851       -0.48557739407572       -2.32099061490846
C            3.41072784060520        0.72029049029165       -3.18411921039628
N            4.79835499306418        0.63792600176772       -3.59858151889930
C            5.65256795478685        0.61526030385627       -2.42569123304639
C            5.31227153068646       -0.60099060746241       -1.57299055289625
C            5.15575285484818        1.68640771706275       -4.53957143157746
C            6.45057010835337        1.36937552069220       -5.27948694156025
O            4.54658808482959       -1.78113584508188        0.91723687305411
C            0.81322288729678       -1.03149005675041        0.35176095054837
O           -1.01305788288225        1.12234834630186        2.65463721298060
C           -0.78148518035484        2.06798729152448        3.69165022488558
C           -2.13636787994198        2.59938509674239        4.13352722447047
N           -1.67083827525886       -1.09735615344227       -0.76952869841814
C           -2.89289218010376       -1.36167740882377       -1.38986507408835
O           -2.93491041979776       -1.80124727560251       -2.51755351803558
H           -3.37021599978509       -0.91460711215302        4.12448804655676
H           -3.89579266160024       -2.11929796456716        2.93791439679060
H           -4.30518047943013       -2.31541573044764        4.63523039234213
H           -6.27138016283155       -1.50808085759664        3.34400104637591
H           -5.77465110994835       -0.33986120881303        4.57078148212267
H           -4.57108352747113        0.97210416055335        2.80733241171693
H           -6.31189677690001        0.82243770886887        2.51231665710229
H           -6.88904545453452       -0.89372579921168       -2.29278361433750
H           -6.73874994511745       -2.53763961532486       -1.68214092067703
H           -5.47094477509599       -1.87727102099642       -2.73693993856768
H           -2.57763011540631        0.15352574672181        2.08699359062914
H            1.59188049325953        1.37178787590507        3.24868187154419
H            3.41660548262180        0.17536478294103        2.10147743564250
H            3.15341839059928       -1.40742794325990       -2.90753426223413
H            2.01977092203261       -0.40343025319823       -1.97077471219210
H            3.21445764512265        1.64300466773792       -2.60689887600975
H            2.77601585152434        0.72280610365500       -4.07263865464345
H            5.52684824349162        1.53123826822519       -1.81938625563910
H            6.69296323065244        0.54279678107583       -2.74222324278522
H            5.91607683968758       -0.63332017941699       -0.66635602072402
H            5.48975750069973       -1.51355175571824       -2.15831499935577
H            4.34647866151136        1.75125395214882       -5.27121939574802
H            5.23869114960428        2.66920474439790       -4.04128148853933
H            6.40720601838556        0.35715099222053       -5.67097115795632
H            6.57808944793105        2.06235668450744       -6.10722656884974
H            7.31697540347631        1.45557906736235       -4.62956850720067
H            0.58964907770891       -1.71776106332035       -0.44948349864972
H           -0.15694854235620        2.88671142793555        3.31527344292472
H           -0.27152125931513        1.58270074608003        4.53287350112202
H           -1.99864488567458        3.35568936935327        4.90020325104892
H           -2.65748602711485        3.04580698914054        3.29014490862887
H           -2.74534166619820        1.79693687250395        4.54319578506167
