----- Optimization -----
      -----------------------------------------------------------      
     |                   =====================                   |     
     |                           x T B                           |     
     |                   =====================                   |     
     |                         S. Grimme                         |     
     |          Mulliken Center for Theoretical Chemistry        |     
     |                    University of Bonn                     |     
      -----------------------------------------------------------      

   * xtb version 6.7.1 (edcfbbe) compiled by 'conda@3ef47c1a292c' on 2024-11-25

   xtb is free software: you can redistribute it and/or modify it under
   the terms of the GNU Lesser General Public License as published by
   the Free Software Foundation, either version 3 of the License, or
   (at your option) any later version.
   
   xtb is distributed in the hope that it will be useful,
   but WITHOUT ANY WARRANTY; without even the implied warranty of
   MERCHANTABILITY or FITNESS FOR A PARTICULAR PURPOSE.  See the
   GNU Lesser General Public License for more details.
   
   Cite this work as:
   * C. Bannwarth, E. Caldeweyher, S. Ehlert, A. Hansen, P. Pracht,
     J. Seibert, S. Spicher, S. Grimme, WIREs Comput. Mol. Sci., 2020, 11,
     e01493. DOI: 10.1002/wcms.1493
   
   for GFN2-xTB:
   * C. Bannwarth, S. Ehlert and S. Grimme., J. Chem. Theory Comput., 2019,
     15, 1652-1671. DOI: 10.1021/acs.jctc.8b01176
   for GFN1-xTB:
   * S. Grimme, C. Bannwarth, P. Shushkov, J. Chem. Theory Comput., 2017,
     13, 1989-2009. DOI: 10.1021/acs.jctc.7b00118
   for GFN0-xTB:
   * P. Pracht, E. Caldeweyher, S. Ehlert, S. Grimme, ChemRxiv, 2019, preprint.
     DOI: 10.26434/chemrxiv.8326202.v1
   for GFN-FF:
   * S. Spicher and S. Grimme, Angew. Chem. Int. Ed., 2020, 59, 15665-15673.
     DOI: 10.1002/anie.202004239
   
   for ALPB and GBSA implicit solvation:
   * S. Ehlert, M. Stahn, S. Spicher, S. Grimme, J. Chem. Theory Comput.,
     2021, 17, 4250-4261. DOI: 10.1021/acs.jctc.1c00471
   
   for ddCOSMO and CPCM-X implicit solvation:
   * M. Stahn, S. Ehlert, S. Grimme, J. Phys. Chem. A,
     2023, XX, XXXX-XXXX. DOI: 10.1021/acs.jpca.3c04382
   
   for DFT-D4:
   * E. Caldeweyher, C. Bannwarth and S. Grimme, J. Chem. Phys., 2017,
     147, 034112. DOI: 10.1063/1.4993215
   * E. Caldeweyher, S. Ehlert, A. Hansen, H. Neugebauer, S. Spicher,
     C. Bannwarth and S. Grimme, J. Chem. Phys., 2019, 150, 154122.
     DOI: 10.1063/1.5090222
   * E. Caldeweyher, J.-M. Mewes, S. Ehlert and S. Grimme, Phys. Chem. Chem. Phys.
     2020, 22, 8499-8512. DOI: 10.1039/D0CP00502A
   
   for sTDA-xTB:
   * S. Grimme and C. Bannwarth, J. Chem. Phys., 2016, 145, 054103.
     DOI: 10.1063/1.4959605
   
   in the mass-spec context:
   * V. Asgeirsson, C. Bauer and S. Grimme, Chem. Sci., 2017, 8, 4879.
     DOI: 10.1039/c7sc00601b
   * J. Koopman and S. Grimme, ACS Omega 2019, 4, 12, 15120-15133.
     DOI: 10.1021/acsomega.9b02011
   
   for metadynamics refer to:
   * S. Grimme, J. Chem. Theory Comput., 2019, 155, 2847-2862
     DOI: 10.1021/acs.jctc.9b00143
   
   for SPH calculations refer to:
   * S. Spicher and S. Grimme, J. Chem. Theory Comput., 2021, 17, 1701-1714
     DOI: 10.1021/acs.jctc.0c01306
   
   for ONIOM refer to:
   * C. Plett, A. Katbashev, S. Ehlert, S. Grimme, M. Bursch,
     Phys. Chem. Chem. Phys., 2023, 25, 17860-17868. DOI: 10.1039/D3CP02178E
   
   for DIPRO refer to:
   * J. Kohn, N. Gildemeister, S. Grimme, D. Fazzi, A. Hansen,
     J. Chem. Phys., 2023, just accepted.
   
   for PTB refer to:
   * S. Grimme, M. Mueller, A. Hansen, J. Chem. Phys., 2023, 158, 124111.
     DOI: 10.1063/5.0137838
   
   with help from (in alphabetical order)
   P. Atkinson, C. Bannwarth, F. Bohle, G. Brandenburg, E. Caldeweyher
   M. Checinski, S. Dohm, S. Ehlert, S. Ehrlich, I. Gerasimov, C. Hölzer
   A. Katbashev, J. Kohn, J. Koopman, C. Lavigne, S. Lehtola, F. März, M. Müller,
   F. Musil, H. Neugebauer, J. Pisarek, C. Plett, P. Pracht, F. Pultar,
   J. Seibert, P. Shushkov, S. Spicher, M. Stahn, M. Steiner, T. Strunk,
   J. Stückrath, T. Rose, and J. Unsleber
   
 * started run on 2025/05/15 at 16:16:48.207     
   ID    Z sym.   atoms
    1    6 C      1-4, 6-8, 11-16, 20, 21, 23-26, 28, 30, 31, 33
    2    7 N      5, 9, 10, 19, 22, 32
    3   16 S      17
    4    8 O      18, 27, 29, 34
    5    1 H      35-66

           -------------------------------------------------
          |                Calculation Setup                |
           -------------------------------------------------

          program call               : xtb /rds/general/user/hgt20/home/callum/QDESCP/Vardenafil_rdkit_conf_8/Vardenafil_rdkit_conf_8.xyz --opt normal --acc 1 --gfn 2 --chrg 0 --uhf 0 -P 1
          hostname                   : login-c
          coordinate file            : /rds/general/user/hgt20/home/callum/QDESCP/Vardenafil_rdkit_conf_8/Vardenafil_rdkit_conf_8.xyz
          omp threads                :                     1


           -------------------------------------------------
          |                 G F N 2 - x T B                 |
           -------------------------------------------------

        Reference                      10.1021/acs.jctc.8b01176
      * Hamiltonian:
        H0-scaling (s, p, d)           1.850000    2.230000    2.230000
        zeta-weighting                 0.500000
      * Dispersion:
        s8                             2.700000
        a1                             0.520000
        a2                             5.000000
        s9                             5.000000
      * Repulsion:
        kExp                           1.500000    1.000000
        rExp                           1.000000
      * Coulomb:
        alpha                          2.000000
        third order                    shell-resolved
        anisotropic                    true
        a3                             3.000000
        a5                             4.000000
        cn-shift                       1.200000
        cn-exp                         4.000000
        max-rad                        5.000000


          ...................................................
          :                      SETUP                      :
          :.................................................:
          :  # basis functions                 174          :
          :  # atomic orbitals                 173          :
          :  # shells                          101          :
          :  # electrons                       184          :
          :  max. iterations                   250          :
          :  Hamiltonian                  GFN2-xTB          :
          :  restarted?                      false          :
          :  GBSA solvation                  false          :
          :  PC potential                    false          :
          :  electronic temp.          300.0000000     K    :
          :  accuracy                    1.0000000          :
          :  -> integral cutoff          0.2500000E+02      :
          :  -> integral neglect         0.1000000E-07      :
          :  -> SCF convergence          0.1000000E-05 Eh   :
          :  -> wf. convergence          0.1000000E-03 e    :
          :  Broyden damping             0.4000000          :
          :  net charge                          0          :
          :  unpaired electrons                  0          :
          ...................................................

 iter      E             dE          RMSdq      gap      omega  full diag
   1   -103.6065683 -0.103607E+03  0.413E+00    2.36       0.0  T
   2   -103.8332216 -0.226653E+00  0.264E+00    1.63       1.0  T
   3   -103.8564865 -0.232649E-01  0.138E+00    1.98       1.0  T
   4   -103.8680543 -0.115677E-01  0.485E-01    1.41       1.0  T
   5   -103.8776227 -0.956842E-02  0.176E-01    1.48       1.0  T
   6   -103.8779742 -0.351488E-03  0.936E-02    1.48       1.0  T
   7   -103.8780749 -0.100699E-03  0.563E-02    1.52       1.0  T
   8   -103.8781582 -0.833046E-04  0.265E-02    1.52       1.0  T
   9   -103.8781653 -0.713057E-05  0.101E-02    1.52       1.2  T
  10   -103.8781681 -0.276920E-05  0.475E-03    1.52       2.6  T
  11   -103.8781683 -0.273710E-06  0.206E-03    1.52       6.0  T
  12   -103.8781684 -0.762786E-07  0.628E-04    1.52      19.6  T
  13   -103.8781684 -0.103610E-07  0.312E-04    1.52      39.4  T

   *** convergence criteria satisfied after 13 iterations ***

         #    Occupation            Energy/Eh            Energy/eV
      -------------------------------------------------------------
         1        2.0000           -0.7728901             -21.0314
       ...           ...                  ...                  ...
        86        2.0000           -0.4124384             -11.2230
        87        2.0000           -0.4090051             -11.1296
        88        2.0000           -0.3932818             -10.7017
        89        2.0000           -0.3877797             -10.5520
        90        2.0000           -0.3794914             -10.3265
        91        2.0000           -0.3724993             -10.1362
        92        2.0000           -0.3587703              -9.7626 (HOMO)
        93                         -0.3028665              -8.2414 (LUMO)
        94                         -0.2728480              -7.4246
        95                         -0.2547987              -6.9334
        96                         -0.2317940              -6.3074
        97                         -0.1922951              -5.2326
       ...                                ...                  ...
       173                          1.1505360              31.3077
      -------------------------------------------------------------
                  HL-Gap            0.0559038 Eh            1.5212 eV
             Fermi-level           -0.3308184 Eh           -9.0020 eV

 SCC (total)                   0 d,  0 h,  0 min,  0.212 sec
 SCC setup                      ...        0 min,  0.001 sec (  0.367%)
 Dispersion                     ...        0 min,  0.001 sec (  0.520%)
 classical contributions        ...        0 min,  0.000 sec (  0.163%)
 integral evaluation            ...        0 min,  0.016 sec (  7.368%)
 iterations                     ...        0 min,  0.099 sec ( 46.868%)
 molecular gradient             ...        0 min,  0.094 sec ( 44.494%)
 printout                       ...        0 min,  0.000 sec (  0.215%)

         :::::::::::::::::::::::::::::::::::::::::::::::::::::
         ::                     SUMMARY                     ::
         :::::::::::::::::::::::::::::::::::::::::::::::::::::
         :: total energy            -102.650133878078 Eh    ::
         :: gradient norm              0.105256803301 Eh/a0 ::
         :: HOMO-LUMO gap              1.521220682763 eV    ::
         ::.................................................::
         :: SCC energy              -103.877593746232 Eh    ::
         :: -> isotropic ES            0.146400892273 Eh    ::
         :: -> anisotropic ES          0.006620707874 Eh    ::
         :: -> anisotropic XC          0.051445855489 Eh    ::
         :: -> dispersion             -0.074673251093 Eh    ::
         :: repulsion energy           1.227459868154 Eh    ::
         :: add. restraining           0.000000000000 Eh    ::
         :: total charge              -0.000000000000 e     ::
         :::::::::::::::::::::::::::::::::::::::::::::::::::::

      ----------------------------------------------------------- 
     |                   =====================                   |
     |                        A N C O P T                        |
     |                   =====================                   |
     |               Approximate Normal Coordinate               |
     |                Rational Function Optimizer                |
      ----------------------------------------------------------- 
      ----------------------------------------------------------- 
     |                   =====================                   |
     |                        A N C O P T                        |
     |                   =====================                   |
     |               Approximate Normal Coordinate               |
     |                Rational Function Optimizer                |
      ----------------------------------------------------------- 

          ...................................................
          :                      SETUP                      :
          :.................................................:
          :   optimization level            normal          :
          :   max. optcycles                   200          :
          :   ANC micro-cycles                  20          :
          :   degrees of freedom               192          :
          :.................................................:
          :   RF solver                   davidson          :
          :   write xtbopt.log                true          :
          :   linear?                        false          :
          :   energy convergence         0.5000000E-05 Eh   :
          :   grad. convergence          0.1000000E-02 Eh/α :
          :   maxmium RF displ.          1.0000000          :
          :   Hlow (freq-cutoff)         0.1000000E-01      :
          :   Hmax (freq-cutoff)         5.0000000          :
          :   S6 in model hess.         20.0000000          :
          ...................................................

generating ANC from exact Hessian ...
Using Lindh-Hessian (1995)
 Shifting diagonal of input Hessian by    9.9026271803650239E-003
 Lowest  eigenvalues of input Hessian
    0.000000    0.000000    0.000000    0.000000    0.000000    0.000000
    0.010000    0.010041    0.010136    0.010450    0.010588    0.010709
    0.011175    0.011394    0.011831    0.011885    0.012363    0.012681
 Highest eigenvalues
    2.084435    2.102833    2.316550    2.431572    2.513612    3.425459


........................................................................
.............................. CYCLE    1 ..............................
........................................................................

 iter      E             dE          RMSdq      gap      omega  full diag
   1   -103.8781684 -0.103878E+03  0.128E-04    1.52       0.0  T
   2   -103.8781684 -0.154841E-09  0.843E-05    1.52     146.1  T
   3   -103.8781684 -0.840714E-10  0.559E-05    1.52     220.1  T
     SCC iter.                  ...        0 min,  0.016 sec
     gradient                   ...        0 min,  0.094 sec
 * total energy  :  -102.6501339 Eh     change       -0.1671111E-08 Eh
   gradient norm :     0.1052544 Eh/α   predicted     0.0000000E+00 (-100.00%)
   displ. norm   :     0.3261130 α      lambda       -0.1868265E-01
   maximum displ.:     0.1385205 α      in ANC's #64, #35, #75, ...

........................................................................
.............................. CYCLE    2 ..............................
........................................................................

 iter      E             dE          RMSdq      gap      omega  full diag
   1   -103.9282003 -0.103928E+03  0.182E-01    1.58       0.0  T
   2   -103.9284166 -0.216251E-03  0.115E-01    1.64       1.0  T
   3   -103.9284056  0.110190E-04  0.599E-02    1.63       1.0  T
   4   -103.9284891 -0.835062E-04  0.193E-02    1.64       1.0  T
   5   -103.9285034 -0.142950E-04  0.599E-03    1.64       2.1  T
   6   -103.9285034 -0.207708E-07  0.177E-03    1.64       7.0  T
   7   -103.9285035 -0.111262E-06  0.775E-04    1.64      15.9  T
   8   -103.9285035 -0.123961E-07  0.395E-04    1.64      31.2  T
     SCC iter.                  ...        0 min,  0.040 sec
     gradient                   ...        0 min,  0.094 sec
 * total energy  :  -102.6633229 Eh     change       -0.1318905E-01 Eh
   gradient norm :     0.0468374 Eh/α   predicted    -0.1034045E-01 ( -21.60%)
   displ. norm   :     0.3033082 α      lambda       -0.6627522E-02
   maximum displ.:     0.0966579 α      in ANC's #35, #64, #18, ...

........................................................................
.............................. CYCLE    3 ..............................
........................................................................

 iter      E             dE          RMSdq      gap      omega  full diag
   1   -103.9564738 -0.103956E+03  0.138E-01    1.64       0.0  T
   2   -103.9566041 -0.130339E-03  0.853E-02    1.68       1.0  T
   3   -103.9566052 -0.112863E-05  0.436E-02    1.68       1.0  T
   4   -103.9566506 -0.453929E-04  0.161E-02    1.69       1.0  T
   5   -103.9566590 -0.837462E-05  0.561E-03    1.68       2.2  T
   6   -103.9566590 -0.118195E-07  0.166E-03    1.69       7.4  T
   7   -103.9566591 -0.111970E-06  0.602E-04    1.68      20.4  T
   8   -103.9566591 -0.312431E-08  0.291E-04    1.68      42.3  T
     SCC iter.                  ...        0 min,  0.079 sec
     gradient                   ...        0 min,  0.100 sec
 * total energy  :  -102.6671898 Eh     change       -0.3866915E-02 Eh
   gradient norm :     0.0151102 Eh/α   predicted    -0.3620022E-02 (  -6.38%)
   displ. norm   :     0.2034419 α      lambda       -0.1001889E-02
   maximum displ.:     0.0750020 α      in ANC's #18, #14, #17, ...

........................................................................
.............................. CYCLE    4 ..............................
........................................................................

 iter      E             dE          RMSdq      gap      omega  full diag
   1   -103.9585655 -0.103959E+03  0.577E-02    1.68       0.0  T
   2   -103.9585831 -0.175448E-04  0.312E-02    1.69       1.0  T
   3   -103.9585806  0.245021E-05  0.158E-02    1.69       1.0  T
   4   -103.9585893 -0.864866E-05  0.517E-03    1.69       2.4  T
   5   -103.9585900 -0.696406E-06  0.224E-03    1.69       5.5  T
   6   -103.9585901 -0.861863E-07  0.737E-04    1.69      16.7  T
   7   -103.9585901 -0.164558E-07  0.249E-04    1.69      49.5  T
     SCC iter.                  ...        0 min,  0.080 sec
     gradient                   ...        0 min,  0.098 sec
 * total energy  :  -102.6679678 Eh     change       -0.7779986E-03 Eh
   gradient norm :     0.0131790 Eh/α   predicted    -0.5216843E-03 ( -32.95%)
   displ. norm   :     0.3380144 α      lambda       -0.1128746E-02
   maximum displ.:     0.1247336 α      in ANC's #14, #18, #17, ...

........................................................................
.............................. CYCLE    5 ..............................
........................................................................

 iter      E             dE          RMSdq      gap      omega  full diag
   1   -103.9580571 -0.103958E+03  0.820E-02    1.69       0.0  T
   2   -103.9581088 -0.517170E-04  0.440E-02    1.69       1.0  T
   3   -103.9581112 -0.237309E-05  0.236E-02    1.69       1.0  T
   4   -103.9581247 -0.135726E-04  0.682E-03    1.69       1.8  T
   5   -103.9581264 -0.166658E-05  0.312E-03    1.69       3.9  T
   6   -103.9581266 -0.208927E-06  0.103E-03    1.69      12.0  T
   7   -103.9581267 -0.404945E-07  0.358E-04    1.69      34.4  T
   8   -103.9581267 -0.167802E-08  0.160E-04    1.69      77.2  T
     SCC iter.                  ...        0 min,  0.085 sec
     gradient                   ...        0 min,  0.101 sec
 * total energy  :  -102.6687445 Eh     change       -0.7766584E-03 Eh
   gradient norm :     0.0110265 Eh/α   predicted    -0.6288602E-03 ( -19.03%)
   displ. norm   :     0.2773650 α      lambda       -0.5395645E-03
   maximum displ.:     0.1047348 α      in ANC's #14, #7, #8, ...

........................................................................
.............................. CYCLE    6 ..............................
........................................................................

 iter      E             dE          RMSdq      gap      omega  full diag
   1   -103.9585046 -0.103959E+03  0.554E-02    1.70       0.0  T
   2   -103.9585348 -0.301673E-04  0.308E-02    1.69       1.0  T
   3   -103.9585391 -0.430356E-05  0.174E-02    1.70       1.0  T
   4   -103.9585445 -0.544185E-05  0.471E-03    1.70       2.6  T
   5   -103.9585456 -0.105149E-05  0.189E-03    1.70       6.5  T
   6   -103.9585456 -0.565338E-07  0.754E-04    1.70      16.3  T
   7   -103.9585457 -0.219793E-07  0.238E-04    1.70      51.8  T
     SCC iter.                  ...        0 min,  0.080 sec
     gradient                   ...        0 min,  0.088 sec
 * total energy  :  -102.6691435 Eh     change       -0.3989800E-03 Eh
   gradient norm :     0.0092956 Eh/α   predicted    -0.2905475E-03 ( -27.18%)
   displ. norm   :     0.3016069 α      lambda       -0.4457133E-03
   maximum displ.:     0.1336095 α      in ANC's #7, #4, #8, ...

........................................................................
.............................. CYCLE    7 ..............................
........................................................................

 iter      E             dE          RMSdq      gap      omega  full diag
   1   -103.9601222 -0.103960E+03  0.539E-02    1.71       0.0  T
   2   -103.9601453 -0.231119E-04  0.307E-02    1.70       1.0  T
   3   -103.9601471 -0.179223E-05  0.175E-02    1.71       1.0  T
   4   -103.9601537 -0.662672E-05  0.429E-03    1.71       2.9  T
   5   -103.9601546 -0.877517E-06  0.169E-03    1.71       7.3  T
   6   -103.9601547 -0.380386E-07  0.706E-04    1.71      17.4  T
   7   -103.9601547 -0.190554E-07  0.216E-04    1.71      56.9  T
     SCC iter.                  ...        0 min,  0.080 sec
     gradient                   ...        0 min,  0.103 sec
 * total energy  :  -102.6694693 Eh     change       -0.3258418E-03 Eh
   gradient norm :     0.0071057 Eh/α   predicted    -0.2432299E-03 ( -25.35%)
   displ. norm   :     0.2895522 α      lambda       -0.3100288E-03
   maximum displ.:     0.1439270 α      in ANC's #7, #4, #8, ...

........................................................................
.............................. CYCLE    8 ..............................
........................................................................

 iter      E             dE          RMSdq      gap      omega  full diag
   1   -103.9618062 -0.103962E+03  0.486E-02    1.72       0.0  T
   2   -103.9618161 -0.990046E-05  0.274E-02    1.71       1.0  T
   3   -103.9618128  0.328978E-05  0.147E-02    1.72       1.0  T
   4   -103.9618203 -0.744756E-05  0.314E-03    1.72       3.9  T
   5   -103.9618206 -0.366583E-06  0.141E-03    1.72       8.7  T
   6   -103.9618207 -0.385663E-07  0.522E-04    1.72      23.6  T
   7   -103.9618207 -0.101076E-07  0.171E-04    1.72      72.1  T
     SCC iter.                  ...        0 min,  0.076 sec
     gradient                   ...        0 min,  0.100 sec
 * total energy  :  -102.6696949 Eh     change       -0.2256005E-03 Eh
   gradient norm :     0.0059421 Eh/α   predicted    -0.1680114E-03 ( -25.53%)
   displ. norm   :     0.2634617 α      lambda       -0.2036789E-03
   maximum displ.:     0.1402477 α      in ANC's #7, #4, #8, ...

........................................................................
.............................. CYCLE    9 ..............................
........................................................................

 iter      E             dE          RMSdq      gap      omega  full diag
   1   -103.9627771 -0.103963E+03  0.410E-02    1.72       0.0  T
   2   -103.9627805 -0.340974E-05  0.229E-02    1.72       1.0  T
   3   -103.9627774  0.310695E-05  0.992E-03    1.72       1.2  T
   4   -103.9627819 -0.453093E-05  0.224E-03    1.72       5.5  T
   5   -103.9627820 -0.111063E-06  0.107E-03    1.72      11.5  T
   6   -103.9627821 -0.370986E-07  0.352E-04    1.72      35.0  T
   7   -103.9627821 -0.437217E-08  0.127E-04    1.72      97.1  T
     SCC iter.                  ...        0 min,  0.079 sec
     gradient                   ...        0 min,  0.101 sec
 * total energy  :  -102.6698443 Eh     change       -0.1494129E-03 Eh
   gradient norm :     0.0052935 Eh/α   predicted    -0.1089637E-03 ( -27.07%)
   displ. norm   :     0.2299920 α      lambda       -0.1363473E-03
   maximum displ.:     0.1257208 α      in ANC's #7, #4, #8, ...

........................................................................
.............................. CYCLE   10 ..............................
........................................................................

 iter      E             dE          RMSdq      gap      omega  full diag
   1   -103.9631050 -0.103963E+03  0.335E-02    1.72       0.0  T
   2   -103.9631065 -0.144027E-05  0.187E-02    1.72       1.0  T
   3   -103.9631055  0.958450E-06  0.559E-03    1.73       2.2  T
   4   -103.9631069 -0.138298E-05  0.187E-03    1.72       6.6  T
   5   -103.9631069 -0.614266E-07  0.744E-04    1.72      16.5  T
   6   -103.9631070 -0.249347E-07  0.247E-04    1.72      49.8  T
     SCC iter.                  ...        0 min,  0.076 sec
     gradient                   ...        0 min,  0.101 sec
 * total energy  :  -102.6699468 Eh     change       -0.1024106E-03 Eh
   gradient norm :     0.0043426 Eh/α   predicted    -0.7178090E-04 ( -29.91%)
   displ. norm   :     0.2113373 α      lambda       -0.1024626E-03
   maximum displ.:     0.1160900 α      in ANC's #7, #4, #8, ...

........................................................................
.............................. CYCLE   11 ..............................
........................................................................

 iter      E             dE          RMSdq      gap      omega  full diag
   1   -103.9631276 -0.103963E+03  0.302E-02    1.72       0.0  T
   2   -103.9631287 -0.107018E-05  0.169E-02    1.72       1.0  T
   3   -103.9631283  0.370727E-06  0.434E-03    1.72       2.8  T
   4   -103.9631289 -0.549208E-06  0.196E-03    1.72       6.3  T
   5   -103.9631290 -0.112224E-06  0.652E-04    1.72      18.9  T
   6   -103.9631290 -0.110337E-07  0.198E-04    1.72      62.0  T
     SCC iter.                  ...        0 min,  0.030 sec
     gradient                   ...        0 min,  0.094 sec
 * total energy  :  -102.6700244 Eh     change       -0.7763952E-04 Eh
   gradient norm :     0.0032565 Eh/α   predicted    -0.5352178E-04 ( -31.06%)
   displ. norm   :     0.1971740 α      lambda       -0.7968060E-04
   maximum displ.:     0.1123571 α      in ANC's #4, #7, #5, ...

........................................................................
.............................. CYCLE   12 ..............................
........................................................................

 iter      E             dE          RMSdq      gap      omega  full diag
   1   -103.9630737 -0.103963E+03  0.288E-02    1.72       0.0  T
   2   -103.9630747 -0.100789E-05  0.162E-02    1.72       1.0  T
   3   -103.9630744  0.270898E-06  0.414E-03    1.72       3.0  T
   4   -103.9630748 -0.377010E-06  0.190E-03    1.72       6.5  T
   5   -103.9630749 -0.130098E-06  0.648E-04    1.72      19.0  T
   6   -103.9630749 -0.791339E-08  0.175E-04    1.72      70.3  T
     SCC iter.                  ...        0 min,  0.030 sec
     gradient                   ...        0 min,  0.095 sec
 * total energy  :  -102.6700857 Eh     change       -0.6131579E-04 Eh
   gradient norm :     0.0027516 Eh/α   predicted    -0.4138995E-04 ( -32.50%)
   displ. norm   :     0.1885957 α      lambda       -0.6764926E-04
   maximum displ.:     0.1103389 α      in ANC's #4, #7, #5, ...

........................................................................
.............................. CYCLE   13 ..............................
........................................................................

 iter      E             dE          RMSdq      gap      omega  full diag
   1   -103.9632232 -0.103963E+03  0.285E-02    1.72       0.0  T
   2   -103.9632241 -0.885546E-06  0.162E-02    1.72       1.0  T
   3   -103.9632240  0.130681E-06  0.350E-03    1.72       3.5  T
   4   -103.9632242 -0.216308E-06  0.151E-03    1.72       8.1  T
   5   -103.9632243 -0.861029E-07  0.570E-04    1.72      21.6  T
   6   -103.9632243 -0.658554E-08  0.154E-04    1.72      79.9  T
     SCC iter.                  ...        0 min,  0.076 sec
     gradient                   ...        0 min,  0.100 sec
 * total energy  :  -102.6701382 Eh     change       -0.5251171E-04 Eh
   gradient norm :     0.0032970 Eh/α   predicted    -0.3502923E-04 ( -33.29%)
   displ. norm   :     0.1884640 α      lambda       -0.6161875E-04
   maximum displ.:     0.1121336 α      in ANC's #4, #7, #5, ...

........................................................................
.............................. CYCLE   14 ..............................
........................................................................

 iter      E             dE          RMSdq      gap      omega  full diag
   1   -103.9632198 -0.103963E+03  0.284E-02    1.71       0.0  T
   2   -103.9632205 -0.702435E-06  0.163E-02    1.71       1.0  T
   3   -103.9632204  0.885469E-07  0.272E-03    1.71       4.5  T
   4   -103.9632206 -0.208585E-06  0.940E-04    1.71      13.1  T
   5   -103.9632207 -0.233443E-07  0.425E-04    1.71      28.9  T
     SCC iter.                  ...        0 min,  0.064 sec
     gradient                   ...        0 min,  0.055 sec
 * total energy  :  -102.6701864 Eh     change       -0.4813951E-04 Eh
   gradient norm :     0.0034605 Eh/α   predicted    -0.3190833E-04 ( -33.72%)
   displ. norm   :     0.1991771 α      lambda       -0.6409593E-04
   maximum displ.:     0.1185211 α      in ANC's #4, #7, #5, ...

........................................................................
.............................. CYCLE   15 ..............................
........................................................................

 iter      E             dE          RMSdq      gap      omega  full diag
   1   -103.9638206 -0.103964E+03  0.300E-02    1.71       0.0  T
   2   -103.9638211 -0.491333E-06  0.174E-02    1.71       1.0  T
   3   -103.9638210  0.111905E-06  0.221E-03    1.71       5.6  T
   4   -103.9638212 -0.220042E-06  0.874E-04    1.71      14.1  T
   5   -103.9638213 -0.233480E-07  0.376E-04    1.71      32.8  T
     SCC iter.                  ...        0 min,  0.026 sec
     gradient                   ...        0 min,  0.094 sec
 * total energy  :  -102.6702349 Eh     change       -0.4850376E-04 Eh
   gradient norm :     0.0043210 Eh/α   predicted    -0.3332269E-04 ( -31.30%)
   displ. norm   :     0.2252410 α      lambda       -0.7263181E-04
   maximum displ.:     0.1375209 α      in ANC's #4, #5, #7, ...

........................................................................
.............................. CYCLE   16 ..............................
........................................................................

 iter      E             dE          RMSdq      gap      omega  full diag
   1   -103.9635129 -0.103964E+03  0.324E-02    1.71       0.0  T
   2   -103.9635136 -0.620029E-06  0.187E-02    1.71       1.0  T
   3   -103.9635131  0.417364E-06  0.346E-03    1.71       3.6  T
   4   -103.9635137 -0.580639E-06  0.115E-03    1.71      10.7  T
   5   -103.9635137 -0.358593E-07  0.467E-04    1.71      26.3  T
   6   -103.9635138 -0.551796E-08  0.154E-04    1.71      80.0  T
     SCC iter.                  ...        0 min,  0.076 sec
     gradient                   ...        0 min,  0.055 sec
 * total energy  :  -102.6702889 Eh     change       -0.5405777E-04 Eh
   gradient norm :     0.0033446 Eh/α   predicted    -0.3816264E-04 ( -29.40%)
   displ. norm   :     0.2401545 α      lambda       -0.7464516E-04
   maximum displ.:     0.1465348 α      in ANC's #4, #5, #7, ...

........................................................................
.............................. CYCLE   17 ..............................
........................................................................

 iter      E             dE          RMSdq      gap      omega  full diag
   1   -103.9637136 -0.103964E+03  0.328E-02    1.71       0.0  T
   2   -103.9637143 -0.693182E-06  0.188E-02    1.71       1.0  T
   3   -103.9637141  0.179751E-06  0.311E-03    1.71       4.0  T
   4   -103.9637144 -0.277911E-06  0.144E-03    1.71       8.6  T
   5   -103.9637145 -0.844560E-07  0.484E-04    1.71      25.4  T
   6   -103.9637145 -0.336001E-08  0.151E-04    1.71      81.3  T
     SCC iter.                  ...        0 min,  0.031 sec
     gradient                   ...        0 min,  0.082 sec
 * total energy  :  -102.6703495 Eh     change       -0.6057949E-04 Eh
   gradient norm :     0.0031872 Eh/α   predicted    -0.3947590E-04 ( -34.84%)
   displ. norm   :     0.2932199 α      lambda       -0.9316059E-04
   maximum displ.:     0.1809878 α      in ANC's #4, #5, #7, ...

........................................................................
.............................. CYCLE   18 ..............................
........................................................................

 iter      E             dE          RMSdq      gap      omega  full diag
   1   -103.9635347 -0.103964E+03  0.386E-02    1.71       0.0  T
   2   -103.9635359 -0.123042E-05  0.219E-02    1.71       1.0  T
   3   -103.9635359  0.218158E-07  0.387E-03    1.71       3.2  T
   4   -103.9635361 -0.171436E-06  0.169E-03    1.71       7.3  T
   5   -103.9635362 -0.954660E-07  0.656E-04    1.71      18.8  T
   6   -103.9635362 -0.966932E-08  0.178E-04    1.71      69.0  T
     SCC iter.                  ...        0 min,  0.061 sec
     gradient                   ...        0 min,  0.094 sec
 * total energy  :  -102.6704245 Eh     change       -0.7495329E-04 Eh
   gradient norm :     0.0034244 Eh/α   predicted    -0.5058796E-04 ( -32.51%)
   displ. norm   :     0.3326870 α      lambda       -0.9661952E-04
   maximum displ.:     0.2066133 α      in ANC's #4, #5, #7, ...

........................................................................
.............................. CYCLE   19 ..............................
........................................................................

 iter      E             dE          RMSdq      gap      omega  full diag
   1   -103.9629717 -0.103963E+03  0.428E-02    1.71       0.0  T
   2   -103.9629731 -0.141935E-05  0.242E-02    1.71       1.0  T
   3   -103.9629732 -0.486675E-07  0.396E-03    1.71       3.1  T
   4   -103.9629733 -0.144275E-06  0.173E-03    1.71       7.1  T
   5   -103.9629734 -0.942764E-07  0.758E-04    1.71      16.2  T
   6   -103.9629735 -0.235165E-07  0.196E-04    1.71      62.9  T
     SCC iter.                  ...        0 min,  0.030 sec
     gradient                   ...        0 min,  0.089 sec
 * total energy  :  -102.6705003 Eh     change       -0.7582180E-04 Eh
   gradient norm :     0.0040950 Eh/α   predicted    -0.5366170E-04 ( -29.23%)
   displ. norm   :     0.3315084 α      lambda       -0.8825745E-04
   maximum displ.:     0.2069110 α      in ANC's #4, #5, #7, ...

........................................................................
.............................. CYCLE   20 ..............................
........................................................................

 iter      E             dE          RMSdq      gap      omega  full diag
   1   -103.9625708 -0.103963E+03  0.421E-02    1.70       0.0  T
   2   -103.9625720 -0.117427E-05  0.239E-02    1.71       1.0  T
   3   -103.9625719  0.811399E-07  0.387E-03    1.71       3.2  T
   4   -103.9625721 -0.215134E-06  0.197E-03    1.71       6.2  T
   5   -103.9625723 -0.162462E-06  0.761E-04    1.71      16.2  T
   6   -103.9625723 -0.173294E-07  0.188E-04    1.71      65.6  T
     SCC iter.                  ...        0 min,  0.052 sec
     gradient                   ...        0 min,  0.055 sec
 * total energy  :  -102.6705701 Eh     change       -0.6987461E-04 Eh
   gradient norm :     0.0042405 Eh/α   predicted    -0.4898363E-04 ( -29.90%)
   displ. norm   :     0.3472114 α      lambda       -0.8863766E-04
   maximum displ.:     0.2179892 α      in ANC's #4, #5, #7, ...
 * RMSD in coord.:     0.4837103 α      energy gain  -0.2043627E-01 Eh

generating ANC from exact Hessian ...
Using Lindh-Hessian (1995)
 Shifting diagonal of input Hessian by    9.9000858755082261E-003
 Lowest  eigenvalues of input Hessian
    0.000000    0.000000    0.000000    0.000000    0.000000    0.000000
    0.010000    0.010044    0.010144    0.010471    0.010640    0.010824
    0.011271    0.011362    0.011887    0.012181    0.012390    0.012915
 Highest eigenvalues
    2.099434    2.200998    2.355621    2.433977    2.724575    3.522715


........................................................................
.............................. CYCLE   21 ..............................
........................................................................

 iter      E             dE          RMSdq      gap      omega  full diag
   1   -103.9623812 -0.103962E+03  0.435E-02    1.70       0.0  T
   2   -103.9623824 -0.117191E-05  0.249E-02    1.70       1.0  T
   3   -103.9623822  0.236997E-06  0.410E-03    1.70       3.0  T
   4   -103.9623826 -0.404465E-06  0.209E-03    1.70       5.9  T
   5   -103.9623827 -0.165067E-06  0.751E-04    1.70      16.4  T
   6   -103.9623827 -0.154638E-07  0.194E-04    1.70      63.6  T
     SCC iter.                  ...        0 min,  0.030 sec
     gradient                   ...        0 min,  0.082 sec
 * total energy  :  -102.6706405 Eh     change       -0.7031150E-04 Eh
   gradient norm :     0.0037049 Eh/α   predicted     0.0000000E+00 (-100.00%)
   displ. norm   :     0.0319812 α      lambda       -0.2205030E-04
   maximum displ.:     0.0128616 α      in ANC's #5, #13, #21, ...

........................................................................
.............................. CYCLE   22 ..............................
........................................................................

 iter      E             dE          RMSdq      gap      omega  full diag
   1   -103.9635777 -0.103964E+03  0.659E-03    1.70       0.0  T
   2   -103.9635778 -0.108871E-06  0.375E-03    1.70       3.3  T
   3   -103.9635778  0.294148E-08  0.106E-03    1.70      11.6  T
   4   -103.9635778 -0.119705E-07  0.346E-04    1.70      35.6  T
   5   -103.9635778 -0.354291E-08  0.159E-04    1.70      77.6  T
     SCC iter.                  ...        0 min,  0.025 sec
     gradient                   ...        0 min,  0.089 sec
 * total energy  :  -102.6706679 Eh     change       -0.2747952E-04 Eh
   gradient norm :     0.0022737 Eh/α   predicted    -0.1634144E-04 ( -40.53%)
   displ. norm   :     0.1089429 α      lambda       -0.6953307E-04
   maximum displ.:     0.0474051 α      in ANC's #5, #13, #4, ...

........................................................................
.............................. CYCLE   23 ..............................
........................................................................

 iter      E             dE          RMSdq      gap      omega  full diag
   1   -103.9651556 -0.103965E+03  0.189E-02    1.70       0.0  T
   2   -103.9651562 -0.617971E-06  0.107E-02    1.70       1.2  T
   3   -103.9651562  0.150889E-07  0.269E-03    1.70       4.6  T
   4   -103.9651563 -0.674149E-07  0.979E-04    1.70      12.6  T
   5   -103.9651563 -0.258602E-07  0.397E-04    1.70      31.0  T
     SCC iter.                  ...        0 min,  0.067 sec
     gradient                   ...        0 min,  0.058 sec
 * total energy  :  -102.6707107 Eh     change       -0.4280885E-04 Eh
   gradient norm :     0.0018152 Eh/α   predicted    -0.3517946E-04 ( -17.82%)
   displ. norm   :     0.1024138 α      lambda       -0.1863341E-04
   maximum displ.:     0.0479776 α      in ANC's #5, #4, #13, ...

........................................................................
.............................. CYCLE   24 ..............................
........................................................................

 iter      E             dE          RMSdq      gap      omega  full diag
   1   -103.9649221 -0.103965E+03  0.147E-02    1.70       0.0  T
   2   -103.9649223 -0.194019E-06  0.841E-03    1.70       1.5  T
   3   -103.9649222  0.877283E-07  0.200E-03    1.70       6.2  T
   4   -103.9649223 -0.110868E-06  0.850E-04    1.70      14.5  T
   5   -103.9649224 -0.257515E-07  0.284E-04    1.70      43.4  T
     SCC iter.                  ...        0 min,  0.026 sec
     gradient                   ...        0 min,  0.094 sec
 * total energy  :  -102.6707318 Eh     change       -0.2107113E-04 Eh
   gradient norm :     0.0024238 Eh/α   predicted    -0.9650713E-05 ( -54.20%)
   displ. norm   :     0.0988327 α      lambda       -0.2758105E-04
   maximum displ.:     0.0464600 α      in ANC's #5, #4, #13, ...

........................................................................
.............................. CYCLE   25 ..............................
........................................................................

 iter      E             dE          RMSdq      gap      omega  full diag
   1   -103.9642673 -0.103964E+03  0.128E-02    1.70       0.0  T
   2   -103.9642675 -0.177746E-06  0.747E-03    1.70       1.6  T
   3   -103.9642673  0.191637E-06  0.228E-03    1.70       5.4  T
   4   -103.9642676 -0.244081E-06  0.586E-04    1.70      21.0  T
   5   -103.9642676 -0.746256E-08  0.256E-04    1.70      48.2  T
     SCC iter.                  ...        0 min,  0.059 sec
     gradient                   ...        0 min,  0.055 sec
 * total energy  :  -102.6707556 Eh     change       -0.2375056E-04 Eh
   gradient norm :     0.0020630 Eh/α   predicted    -0.1392722E-04 ( -41.36%)
   displ. norm   :     0.2388043 α      lambda       -0.5745297E-04
   maximum displ.:     0.1115548 α      in ANC's #5, #4, #1, ...

........................................................................
.............................. CYCLE   26 ..............................
........................................................................

 iter      E             dE          RMSdq      gap      omega  full diag
   1   -103.9628438 -0.103963E+03  0.299E-02    1.71       0.0  T
   2   -103.9628447 -0.921791E-06  0.175E-02    1.71       1.0  T
   3   -103.9628436  0.110423E-05  0.531E-03    1.71       2.3  T
   4   -103.9628450 -0.138950E-05  0.127E-03    1.71       9.7  T
   5   -103.9628451 -0.403065E-07  0.563E-04    1.71      21.9  T
   6   -103.9628451 -0.975884E-08  0.197E-04    1.71      62.4  T
     SCC iter.                  ...        0 min,  0.043 sec
     gradient                   ...        0 min,  0.097 sec
 * total energy  :  -102.6707948 Eh     change       -0.3926711E-04 Eh
   gradient norm :     0.0028238 Eh/α   predicted    -0.3038639E-04 ( -22.62%)
   displ. norm   :     0.1559768 α      lambda       -0.2950109E-04
   maximum displ.:     0.0744316 α      in ANC's #5, #4, #1, ...

........................................................................
.............................. CYCLE   27 ..............................
........................................................................

 iter      E             dE          RMSdq      gap      omega  full diag
   1   -103.9625923 -0.103963E+03  0.186E-02    1.71       0.0  T
   2   -103.9625926 -0.317813E-06  0.108E-02    1.71       1.1  T
   3   -103.9625922  0.361846E-06  0.308E-03    1.71       4.0  T
   4   -103.9625927 -0.452410E-06  0.787E-04    1.71      15.6  T
   5   -103.9625927 -0.174228E-07  0.336E-04    1.71      36.6  T
     SCC iter.                  ...        0 min,  0.026 sec
     gradient                   ...        0 min,  0.083 sec
 * total energy  :  -102.6708186 Eh     change       -0.2375617E-04 Eh
   gradient norm :     0.0032274 Eh/α   predicted    -0.1514721E-04 ( -36.24%)
   displ. norm   :     0.2166254 α      lambda       -0.5309069E-04
   maximum displ.:     0.1045902 α      in ANC's #5, #4, #1, ...

........................................................................
.............................. CYCLE   28 ..............................
........................................................................

 iter      E             dE          RMSdq      gap      omega  full diag
   1   -103.9631839 -0.103963E+03  0.256E-02    1.71       0.0  T
   2   -103.9631845 -0.562088E-06  0.147E-02    1.71       1.0  T
   3   -103.9631841  0.387978E-06  0.376E-03    1.71       3.3  T
   4   -103.9631846 -0.499015E-06  0.126E-03    1.71       9.8  T
   5   -103.9631846 -0.468334E-07  0.459E-04    1.71      26.8  T
   6   -103.9631847 -0.647744E-08  0.156E-04    1.71      79.0  T
     SCC iter.                  ...        0 min,  0.046 sec
     gradient                   ...        0 min,  0.090 sec
 * total energy  :  -102.6708601 Eh     change       -0.4146515E-04 Eh
   gradient norm :     0.0029634 Eh/α   predicted    -0.2779139E-04 ( -32.98%)
   displ. norm   :     0.2726679 α      lambda       -0.6016585E-04
   maximum displ.:     0.1315688 α      in ANC's #5, #4, #19, ...

........................................................................
.............................. CYCLE   29 ..............................
........................................................................

 iter      E             dE          RMSdq      gap      omega  full diag
   1   -103.9637677 -0.103964E+03  0.319E-02    1.71       0.0  T
   2   -103.9637683 -0.647737E-06  0.181E-02    1.71       1.0  T
   3   -103.9637681  0.246971E-06  0.385E-03    1.71       3.2  T
   4   -103.9637684 -0.328548E-06  0.167E-03    1.71       7.4  T
   5   -103.9637685 -0.885895E-07  0.495E-04    1.71      24.9  T
   6   -103.9637685 -0.705869E-08  0.152E-04    1.71      80.9  T
     SCC iter.                  ...        0 min,  0.031 sec
     gradient                   ...        0 min,  0.082 sec
 * total energy  :  -102.6709064 Eh     change       -0.4638494E-04 Eh
   gradient norm :     0.0028570 Eh/α   predicted    -0.3232303E-04 ( -30.32%)
   displ. norm   :     0.2891157 α      lambda       -0.6429436E-04
   maximum displ.:     0.1389335 α      in ANC's #5, #4, #19, ...

........................................................................
.............................. CYCLE   30 ..............................
........................................................................

 iter      E             dE          RMSdq      gap      omega  full diag
   1   -103.9644369 -0.103964E+03  0.345E-02    1.71       0.0  T
   2   -103.9644376 -0.673890E-06  0.194E-02    1.71       1.0  T
   3   -103.9644375  0.970412E-07  0.372E-03    1.71       3.3  T
   4   -103.9644376 -0.137488E-06  0.181E-03    1.71       6.8  T
   5   -103.9644378 -0.121671E-06  0.484E-04    1.71      25.4  T
   6   -103.9644378 -0.605002E-08  0.138E-04    1.71      88.9  T
     SCC iter.                  ...        0 min,  0.069 sec
     gradient                   ...        0 min,  0.094 sec
 * total energy  :  -102.6709558 Eh     change       -0.4933189E-04 Eh
   gradient norm :     0.0028408 Eh/α   predicted    -0.3485330E-04 ( -29.35%)
   displ. norm   :     0.3270479 α      lambda       -0.6418284E-04
   maximum displ.:     0.1560958 α      in ANC's #5, #4, #19, ...

........................................................................
.............................. CYCLE   31 ..............................
........................................................................

 iter      E             dE          RMSdq      gap      omega  full diag
   1   -103.9640918 -0.103964E+03  0.387E-02    1.71       0.0  T
   2   -103.9640925 -0.664363E-06  0.220E-02    1.71       1.0  T
   3   -103.9640924  0.122263E-06  0.368E-03    1.71       3.3  T
   4   -103.9640925 -0.111396E-06  0.193E-03    1.71       6.4  T
   5   -103.9640927 -0.186760E-06  0.494E-04    1.71      24.9  T
   6   -103.9640927 -0.656117E-08  0.161E-04    1.71      76.3  T
     SCC iter.                  ...        0 min,  0.031 sec
     gradient                   ...        0 min,  0.088 sec
 * total energy  :  -102.6710042 Eh     change       -0.4839521E-04 Eh
   gradient norm :     0.0033915 Eh/α   predicted    -0.3552627E-04 ( -26.59%)
   displ. norm   :     0.2743658 α      lambda       -0.8959483E-04
   maximum displ.:     0.1237500 α      in ANC's #4, #5, #19, ...

........................................................................
.............................. CYCLE   32 ..............................
........................................................................

 iter      E             dE          RMSdq      gap      omega  full diag
   1   -103.9664671 -0.103966E+03  0.403E-02    1.71       0.0  T
   2   -103.9664688 -0.174496E-05  0.227E-02    1.71       1.0  T
   3   -103.9664684  0.432188E-06  0.480E-03    1.71       2.6  T
   4   -103.9664689 -0.502637E-06  0.233E-03    1.71       5.3  T
   5   -103.9664691 -0.242196E-06  0.758E-04    1.71      16.2  T
   6   -103.9664691 -0.126628E-07  0.251E-04    1.71      49.0  T
     SCC iter.                  ...        0 min,  0.054 sec
     gradient                   ...        0 min,  0.100 sec
 * total energy  :  -102.6710267 Eh     change       -0.2250632E-04 Eh
   gradient norm :     0.0052007 Eh/α   predicted    -0.4817232E-04 ( 114.04%)
   displ. norm   :     0.4085862 α      lambda       -0.1052024E-03
   maximum displ.:     0.1951104 α      in ANC's #5, #4, #19, ...

........................................................................
.............................. CYCLE   33 ..............................
........................................................................

 iter      E             dE          RMSdq      gap      omega  full diag
   1   -103.9619430 -0.103962E+03  0.481E-02    1.71       0.0  T
   2   -103.9619451 -0.210371E-05  0.279E-02    1.71       1.0  T
   3   -103.9619449  0.141512E-06  0.432E-03    1.71       2.9  T
   4   -103.9619452 -0.322655E-06  0.194E-03    1.71       6.4  T
   5   -103.9619454 -0.140342E-06  0.839E-04    1.71      14.7  T
   6   -103.9619454 -0.196428E-07  0.240E-04    1.71      51.4  T
     SCC iter.                  ...        0 min,  0.030 sec
     gradient                   ...        0 min,  0.076 sec
 * total energy  :  -102.6710489 Eh     change       -0.2220222E-04 Eh
   gradient norm :     0.0061151 Eh/α   predicted    -0.6138436E-04 ( 176.48%)
   displ. norm   :     0.2407205 α      lambda       -0.8435031E-04
   maximum displ.:     0.1124978 α      in ANC's #5, #4, #19, ...

........................................................................
.............................. CYCLE   34 ..............................
........................................................................

 iter      E             dE          RMSdq      gap      omega  full diag
   1   -103.9644287 -0.103964E+03  0.323E-02    1.71       0.0  T
   2   -103.9644297 -0.978257E-06  0.181E-02    1.71       1.0  T
   3   -103.9644297  0.498910E-07  0.355E-03    1.71       3.5  T
   4   -103.9644297 -0.714053E-07  0.177E-03    1.71       7.0  T
   5   -103.9644299 -0.124818E-06  0.572E-04    1.71      21.5  T
   6   -103.9644299 -0.936376E-08  0.163E-04    1.71      75.5  T
     SCC iter.                  ...        0 min,  0.051 sec
     gradient                   ...        0 min,  0.055 sec
 * total energy  :  -102.6710880 Eh     change       -0.3907319E-04 Eh
   gradient norm :     0.0022068 Eh/α   predicted    -0.4461820E-04 (  14.19%)
   displ. norm   :     0.0867543 α      lambda       -0.2203337E-04
   maximum displ.:     0.0389992 α      in ANC's #4, #1, #5, ...

........................................................................
.............................. CYCLE   35 ..............................
........................................................................

 iter      E             dE          RMSdq      gap      omega  full diag
   1   -103.9646136 -0.103965E+03  0.105E-02    1.71       0.0  T
   2   -103.9646136 -0.761089E-07  0.613E-03    1.71       2.0  T
   3   -103.9646136  0.125727E-07  0.895E-04    1.71      13.8  T
   4   -103.9646136 -0.243207E-07  0.420E-04    1.71      29.3  T
     SCC iter.                  ...        0 min,  0.021 sec
     gradient                   ...        0 min,  0.070 sec
 * total energy  :  -102.6711075 Eh     change       -0.1954493E-04 Eh
   gradient norm :     0.0017132 Eh/α   predicted    -0.1110112E-04 ( -43.20%)
   displ. norm   :     0.5675813 α      lambda       -0.7659617E-04
   maximum displ.:     0.2546494 α      in ANC's #4, #1, #5, ...

........................................................................
.............................. CYCLE   36 ..............................
........................................................................

 iter      E             dE          RMSdq      gap      omega  full diag
   1   -103.9623107 -0.103962E+03  0.650E-02    1.71       0.0  T
   2   -103.9623129 -0.220783E-05  0.380E-02    1.71       1.0  T
   3   -103.9623125  0.452177E-06  0.538E-03    1.71       2.3  T
   4   -103.9623134 -0.952069E-06  0.254E-03    1.71       4.8  T
   5   -103.9623136 -0.190442E-06  0.859E-04    1.71      14.3  T
   6   -103.9623136 -0.192622E-07  0.302E-04    1.71      40.8  T
     SCC iter.                  ...        0 min,  0.030 sec
     gradient                   ...        0 min,  0.094 sec
 * total energy  :  -102.6711514 Eh     change       -0.4394429E-04 Eh
   gradient norm :     0.0043195 Eh/α   predicted    -0.4378766E-04 (  -0.36%)
   displ. norm   :     0.0688877 α      lambda       -0.3336273E-04
   maximum displ.:     0.0319667 α      in ANC's #5, #4, #19, ...

........................................................................
.............................. CYCLE   37 ..............................
........................................................................

 iter      E             dE          RMSdq      gap      omega  full diag
   1   -103.9639476 -0.103964E+03  0.103E-02    1.71       0.0  T
   2   -103.9639479 -0.271788E-06  0.588E-03    1.71       2.1  T
   3   -103.9639478  0.320061E-07  0.164E-03    1.71       7.5  T
   4   -103.9639479 -0.554856E-07  0.557E-04    1.71      22.1  T
   5   -103.9639479 -0.104236E-07  0.242E-04    1.71      50.8  T
     SCC iter.                  ...        0 min,  0.047 sec
     gradient                   ...        0 min,  0.088 sec
 * total energy  :  -102.6711714 Eh     change       -0.1996946E-04 Eh
   gradient norm :     0.0019564 Eh/α   predicted    -0.1676201E-04 ( -16.06%)
   displ. norm   :     0.1233907 α      lambda       -0.1890772E-04
   maximum displ.:     0.0595723 α      in ANC's #1, #4, #5, ...

........................................................................
.............................. CYCLE   38 ..............................
........................................................................

 iter      E             dE          RMSdq      gap      omega  full diag
   1   -103.9646471 -0.103965E+03  0.161E-02    1.70       0.0  T
   2   -103.9646475 -0.358378E-06  0.912E-03    1.70       1.3  T
   3   -103.9646473  0.151333E-06  0.247E-03    1.70       5.0  T
   4   -103.9646475 -0.218548E-06  0.893E-04    1.70      13.8  T
   5   -103.9646476 -0.157283E-07  0.340E-04    1.70      36.2  T
     SCC iter.                  ...        0 min,  0.025 sec
     gradient                   ...        0 min,  0.094 sec
 * total energy  :  -102.6711907 Eh     change       -0.1926411E-04 Eh
   gradient norm :     0.0010750 Eh/α   predicted    -0.9524437E-05 ( -50.56%)
   displ. norm   :     0.2481857 α      lambda       -0.2169341E-04
   maximum displ.:     0.1238166 α      in ANC's #1, #4, #5, ...

........................................................................
.............................. CYCLE   39 ..............................
........................................................................

 iter      E             dE          RMSdq      gap      omega  full diag
   1   -103.9644018 -0.103964E+03  0.280E-02    1.70       0.0  T
   2   -103.9644023 -0.446828E-06  0.164E-02    1.70       1.0  T
   3   -103.9644022  0.941218E-07  0.214E-03    1.70       5.8  T
   4   -103.9644024 -0.205169E-06  0.865E-04    1.70      14.2  T
   5   -103.9644024 -0.177704E-07  0.381E-04    1.70      32.3  T
     SCC iter.                  ...        0 min,  0.025 sec
     gradient                   ...        0 min,  0.070 sec
 * total energy  :  -102.6712142 Eh     change       -0.2350128E-04 Eh
   gradient norm :     0.0020456 Eh/α   predicted    -0.1115785E-04 ( -52.52%)
   displ. norm   :     0.1841406 α      lambda       -0.2248480E-04
   maximum displ.:     0.0950050 α      in ANC's #1, #5, #4, ...

........................................................................
.............................. CYCLE   40 ..............................
........................................................................

 iter      E             dE          RMSdq      gap      omega  full diag
   1   -103.9642312 -0.103964E+03  0.215E-02    1.70       0.0  T
   2   -103.9642314 -0.239165E-06  0.126E-02    1.70       1.0  T
   3   -103.9642314  0.353264E-07  0.149E-03    1.70       8.3  T
   4   -103.9642315 -0.102471E-06  0.638E-04    1.70      19.3  T
   5   -103.9642315 -0.892177E-08  0.273E-04    1.70      45.1  T
     SCC iter.                  ...        0 min,  0.025 sec
     gradient                   ...        0 min,  0.081 sec
 * total energy  :  -102.6712325 Eh     change       -0.1835375E-04 Eh
   gradient norm :     0.0023905 Eh/α   predicted    -0.1164041E-04 ( -36.58%)
   displ. norm   :     0.2648515 α      lambda       -0.3797879E-04
   maximum displ.:     0.1372065 α      in ANC's #1, #7, #3, ...

........................................................................
.............................. CYCLE   41 ..............................
........................................................................

 iter      E             dE          RMSdq      gap      omega  full diag
   1   -103.9643504 -0.103964E+03  0.333E-02    1.69       0.0  T
   2   -103.9643510 -0.644831E-06  0.194E-02    1.69       1.0  T
   3   -103.9643509  0.124776E-06  0.256E-03    1.69       4.8  T
   4   -103.9643512 -0.309843E-06  0.104E-03    1.69      11.9  T
   5   -103.9643512 -0.193213E-07  0.452E-04    1.69      27.3  T
   6   -103.9643512 -0.505671E-08  0.119E-04    1.69     103.1  T
     SCC iter.                  ...        0 min,  0.030 sec
     gradient                   ...        0 min,  0.079 sec
 * total energy  :  -102.6712596 Eh     change       -0.2705680E-04 Eh
   gradient norm :     0.0023835 Eh/α   predicted    -0.2036700E-04 ( -24.73%)
   displ. norm   :     0.1937297 α      lambda       -0.2720178E-04
   maximum displ.:     0.1017172 α      in ANC's #1, #7, #3, ...

........................................................................
.............................. CYCLE   42 ..............................
........................................................................

 iter      E             dE          RMSdq      gap      omega  full diag
   1   -103.9643063 -0.103964E+03  0.258E-02    1.69       0.0  T
   2   -103.9643068 -0.447794E-06  0.150E-02    1.69       1.0  T
   3   -103.9643067  0.116675E-06  0.223E-03    1.69       5.5  T
   4   -103.9643069 -0.240463E-06  0.857E-04    1.69      14.4  T
   5   -103.9643069 -0.129618E-07  0.395E-04    1.69      31.2  T
     SCC iter.                  ...        0 min,  0.049 sec
     gradient                   ...        0 min,  0.056 sec
 * total energy  :  -102.6712801 Eh     change       -0.2054681E-04 Eh
   gradient norm :     0.0016991 Eh/α   predicted    -0.1412763E-04 ( -31.24%)
   displ. norm   :     0.2638846 α      lambda       -0.2769404E-04
   maximum displ.:     0.1331689 α      in ANC's #1, #7, #8, ...
 * RMSD in coord.:     0.4351424 α      energy gain  -0.7099852E-03 Eh

generating ANC from exact Hessian ...
Using Lindh-Hessian (1995)
 Shifting diagonal of input Hessian by    9.9013427628394570E-003
 Lowest  eigenvalues of input Hessian
    0.000000    0.000000    0.000000    0.000000    0.000000    0.000000
    0.010000    0.010043    0.010173    0.010529    0.010714    0.010900
    0.011302    0.011306    0.011870    0.012288    0.012402    0.012978
 Highest eigenvalues
    2.099944    2.205047    2.364440    2.436434    2.727252    3.537507


........................................................................
.............................. CYCLE   43 ..............................
........................................................................

 iter      E             dE          RMSdq      gap      omega  full diag
   1   -103.9648463 -0.103965E+03  0.384E-02    1.69       0.0  T
   2   -103.9648475 -0.122658E-05  0.222E-02    1.69       1.0  T
   3   -103.9648473  0.134039E-06  0.330E-03    1.69       3.7  T
   4   -103.9648478 -0.408090E-06  0.134E-03    1.69       9.2  T
   5   -103.9648478 -0.367021E-07  0.605E-04    1.69      20.3  T
   6   -103.9648478 -0.747234E-08  0.180E-04    1.69      68.5  T
     SCC iter.                  ...        0 min,  0.070 sec
     gradient                   ...        0 min,  0.056 sec
 * total energy  :  -102.6713035 Eh     change       -0.2339949E-04 Eh
   gradient norm :     0.0015481 Eh/α   predicted     0.0000000E+00 (-100.00%)
   displ. norm   :     0.0341387 α      lambda       -0.1055154E-04
   maximum displ.:     0.0152590 α      in ANC's #19, #4, #6, ...

........................................................................
.............................. CYCLE   44 ..............................
........................................................................

 iter      E             dE          RMSdq      gap      omega  full diag
   1   -103.9647981 -0.103965E+03  0.596E-03    1.69       0.0  T
   2   -103.9647981 -0.499971E-07  0.351E-03    1.69       3.5  T
   3   -103.9647981  0.409320E-07  0.101E-03    1.69      12.2  T
   4   -103.9647981 -0.507026E-07  0.335E-04    1.69      36.7  T
   5   -103.9647981 -0.343543E-08  0.136E-04    1.69      90.5  T
     SCC iter.                  ...        0 min,  0.041 sec
     gradient                   ...        0 min,  0.100 sec
 * total energy  :  -102.6713171 Eh     change       -0.1354556E-04 Eh
   gradient norm :     0.0006046 Eh/α   predicted    -0.5603161E-05 ( -58.63%)
   displ. norm   :     0.1128569 α      lambda       -0.2396913E-04
   maximum displ.:     0.0524025 α      in ANC's #19, #4, #6, ...

........................................................................
.............................. CYCLE   45 ..............................
........................................................................

 iter      E             dE          RMSdq      gap      omega  full diag
   1   -103.9645416 -0.103965E+03  0.159E-02    1.69       0.0  T
   2   -103.9645418 -0.225525E-06  0.926E-03    1.69       1.3  T
   3   -103.9645416  0.183107E-06  0.228E-03    1.69       5.4  T
   4   -103.9645419 -0.228573E-06  0.844E-04    1.69      14.6  T
   5   -103.9645419 -0.231107E-07  0.291E-04    1.69      42.2  T
     SCC iter.                  ...        0 min,  0.026 sec
     gradient                   ...        0 min,  0.065 sec
 * total energy  :  -102.6713407 Eh     change       -0.2365771E-04 Eh
   gradient norm :     0.0016724 Eh/α   predicted    -0.1205467E-04 ( -49.05%)
   displ. norm   :     0.0917947 α      lambda       -0.1117047E-04
   maximum displ.:     0.0437449 α      in ANC's #19, #4, #6, ...

........................................................................
.............................. CYCLE   46 ..............................
........................................................................

 iter      E             dE          RMSdq      gap      omega  full diag
   1   -103.9644366 -0.103964E+03  0.121E-02    1.69       0.0  T
   2   -103.9644367 -0.959273E-07  0.695E-03    1.69       1.8  T
   3   -103.9644367  0.329313E-07  0.151E-03    1.69       8.1  T
   4   -103.9644367 -0.436335E-07  0.638E-04    1.69      19.3  T
   5   -103.9644368 -0.163773E-07  0.210E-04    1.69      58.7  T
     SCC iter.                  ...        0 min,  0.082 sec
     gradient                   ...        0 min,  0.082 sec
 * total energy  :  -102.6713534 Eh     change       -0.1266399E-04 Eh
   gradient norm :     0.0015431 Eh/α   predicted    -0.5731998E-05 ( -54.74%)
   displ. norm   :     0.1207406 α      lambda       -0.1312639E-04
   maximum displ.:     0.0581090 α      in ANC's #4, #19, #1, ...

........................................................................
.............................. CYCLE   47 ..............................
........................................................................

 iter      E             dE          RMSdq      gap      omega  full diag
   1   -103.9643969 -0.103964E+03  0.154E-02    1.69       0.0  T
   2   -103.9643971 -0.172447E-06  0.885E-03    1.69       1.4  T
   3   -103.9643970  0.512935E-07  0.198E-03    1.69       6.2  T
   4   -103.9643971 -0.580060E-07  0.878E-04    1.69      14.0  T
   5   -103.9643971 -0.334046E-07  0.296E-04    1.69      41.5  T
     SCC iter.                  ...        0 min,  0.025 sec
     gradient                   ...        0 min,  0.085 sec
 * total energy  :  -102.6713675 Eh     change       -0.1413041E-04 Eh
   gradient norm :     0.0010398 Eh/α   predicted    -0.6606067E-05 ( -53.25%)
   displ. norm   :     0.1455967 α      lambda       -0.1464270E-04
   maximum displ.:     0.0704085 α      in ANC's #4, #19, #1, ...

........................................................................
.............................. CYCLE   48 ..............................
........................................................................

 iter      E             dE          RMSdq      gap      omega  full diag
   1   -103.9643907 -0.103964E+03  0.180E-02    1.69       0.0  T
   2   -103.9643910 -0.212864E-06  0.104E-02    1.69       1.2  T
   3   -103.9643908  0.105224E-06  0.220E-03    1.69       5.6  T
   4   -103.9643910 -0.118486E-06  0.987E-04    1.69      12.5  T
   5   -103.9643910 -0.444454E-07  0.332E-04    1.69      37.0  T
     SCC iter.                  ...        0 min,  0.065 sec
     gradient                   ...        0 min,  0.056 sec
 * total energy  :  -102.6713832 Eh     change       -0.1565404E-04 Eh
   gradient norm :     0.0011387 Eh/α   predicted    -0.7407470E-05 ( -52.68%)
   displ. norm   :     0.1892152 α      lambda       -0.1852529E-04
   maximum displ.:     0.0904557 α      in ANC's #4, #19, #1, ...

........................................................................
.............................. CYCLE   49 ..............................
........................................................................

 iter      E             dE          RMSdq      gap      omega  full diag
   1   -103.9642769 -0.103964E+03  0.237E-02    1.69       0.0  T
   2   -103.9642771 -0.190389E-06  0.140E-02    1.69       1.0  T
   3   -103.9642770  0.171540E-06  0.221E-03    1.69       5.6  T
   4   -103.9642772 -0.210695E-06  0.915E-04    1.69      13.4  T
   5   -103.9642772 -0.329481E-07  0.332E-04    1.69      37.0  T
     SCC iter.                  ...        0 min,  0.025 sec
     gradient                   ...        0 min,  0.090 sec
 * total energy  :  -102.6714032 Eh     change       -0.2004402E-04 Eh
   gradient norm :     0.0018945 Eh/α   predicted    -0.9412963E-05 ( -53.04%)
   displ. norm   :     0.2168906 α      lambda       -0.2337374E-04
   maximum displ.:     0.1014198 α      in ANC's #4, #1, #19, ...

........................................................................
.............................. CYCLE   50 ..............................
........................................................................

 iter      E             dE          RMSdq      gap      omega  full diag
   1   -103.9643378 -0.103964E+03  0.275E-02    1.69       0.0  T
   2   -103.9643380 -0.205192E-06  0.163E-02    1.69       1.0  T
   3   -103.9643378  0.175010E-06  0.215E-03    1.69       5.7  T
   4   -103.9643381 -0.261261E-06  0.675E-04    1.69      18.2  T
   5   -103.9643381 -0.381354E-08  0.331E-04    1.69      37.2  T
     SCC iter.                  ...        0 min,  0.064 sec
     gradient                   ...        0 min,  0.056 sec
 * total energy  :  -102.6714281 Eh     change       -0.2482839E-04 Eh
   gradient norm :     0.0020816 Eh/α   predicted    -0.1193179E-04 ( -51.94%)
   displ. norm   :     0.1154183 α      lambda       -0.1999557E-04
   maximum displ.:     0.0524516 α      in ANC's #1, #4, #19, ...

........................................................................
.............................. CYCLE   51 ..............................
........................................................................

 iter      E             dE          RMSdq      gap      omega  full diag
   1   -103.9645978 -0.103965E+03  0.167E-02    1.69       0.0  T
   2   -103.9645979 -0.136693E-06  0.982E-03    1.69       1.3  T
   3   -103.9645979  0.277936E-07  0.129E-03    1.69       9.6  T
   4   -103.9645979 -0.521529E-07  0.455E-04    1.69      27.0  T
   5   -103.9645979 -0.708026E-08  0.216E-04    1.69      56.9  T
     SCC iter.                  ...        0 min,  0.026 sec
     gradient                   ...        0 min,  0.077 sec
 * total energy  :  -102.6714433 Eh     change       -0.1525814E-04 Eh
   gradient norm :     0.0014964 Eh/α   predicted    -0.1013316E-04 ( -33.59%)
   displ. norm   :     0.3867984 α      lambda       -0.2558903E-04
   maximum displ.:     0.1843802 α      in ANC's #4, #1, #19, ...

........................................................................
.............................. CYCLE   52 ..............................
........................................................................

 iter      E             dE          RMSdq      gap      omega  full diag
   1   -103.9621126 -0.103962E+03  0.547E-02    1.69       0.0  T
   2   -103.9621144 -0.176087E-05  0.322E-02    1.69       1.0  T
   3   -103.9621142  0.177138E-06  0.364E-03    1.69       3.4  T
   4   -103.9621146 -0.438049E-06  0.147E-03    1.69       8.4  T
   5   -103.9621147 -0.798971E-07  0.716E-04    1.69      17.2  T
   6   -103.9621147 -0.637203E-08  0.265E-04    1.69      46.4  T
     SCC iter.                  ...        0 min,  0.031 sec
     gradient                   ...        0 min,  0.094 sec
 * total energy  :  -102.6714232 Eh     change        0.2008472E-04 Eh
   gradient norm :     0.0056406 Eh/α   predicted    -0.1365246E-04 (-167.97%)
   displ. norm   :     0.1155284 α      lambda       -0.7728920E-04
   maximum displ.:     0.0556190 α      in ANC's #19, #4, #1, ...

........................................................................
.............................. CYCLE   53 ..............................
........................................................................

 iter      E             dE          RMSdq      gap      omega  full diag
   1   -103.9643011 -0.103964E+03  0.175E-02    1.69       0.0  T
   2   -103.9643019 -0.830672E-06  0.100E-02    1.69       1.2  T
   3   -103.9643019  0.159744E-07  0.245E-03    1.69       5.0  T
   4   -103.9643020 -0.460274E-07  0.947E-04    1.69      13.0  T
   5   -103.9643020 -0.421734E-07  0.396E-04    1.69      31.1  T
     SCC iter.                  ...        0 min,  0.025 sec
     gradient                   ...        0 min,  0.089 sec
 * total energy  :  -102.6714617 Eh     change       -0.3846767E-04 Eh
   gradient norm :     0.0012596 Eh/α   predicted    -0.3916347E-04 (   1.81%)
   displ. norm   :     0.0321030 α      lambda       -0.5080626E-05
   maximum displ.:     0.0139775 α      in ANC's #24, #21, #9, ...

........................................................................
.............................. CYCLE   54 ..............................
........................................................................

 iter      E             dE          RMSdq      gap      omega  full diag
   1   -103.9645815 -0.103965E+03  0.533E-03    1.69       0.0  T
   2   -103.9645815 -0.506039E-07  0.305E-03    1.69       4.0  T
   3   -103.9645815  0.565814E-08  0.867E-04    1.69      14.2  T
   4   -103.9645815 -0.111180E-07  0.261E-04    1.69      47.1  T
     SCC iter.                  ...        0 min,  0.021 sec
     gradient                   ...        0 min,  0.077 sec
 * total energy  :  -102.6714673 Eh     change       -0.5599558E-05 Eh
   gradient norm :     0.0006156 Eh/α   predicted    -0.2541924E-05 ( -54.60%)
   displ. norm   :     0.0709652 α      lambda       -0.6795576E-05
   maximum displ.:     0.0394651 α      in ANC's #1, #4, #19, ...

........................................................................
.............................. CYCLE   55 ..............................
........................................................................

 iter      E             dE          RMSdq      gap      omega  full diag
   1   -103.9647501 -0.103965E+03  0.110E-02    1.69       0.0  T
   2   -103.9647502 -0.819318E-07  0.641E-03    1.69       1.9  T
   3   -103.9647502  0.793922E-08  0.856E-04    1.69      14.4  T
   4   -103.9647502 -0.235589E-07  0.403E-04    1.69      30.5  T
     SCC iter.                  ...        0 min,  0.021 sec
     gradient                   ...        0 min,  0.076 sec
 * total energy  :  -102.6714746 Eh     change       -0.7316549E-05 Eh
   gradient norm :     0.0004479 Eh/α   predicted    -0.3409086E-05 ( -53.41%)
   displ. norm   :     0.1314843 α      lambda       -0.6292064E-05
   maximum displ.:     0.0749081 α      in ANC's #1, #4, #19, ...

........................................................................
.............................. CYCLE   56 ..............................
........................................................................

 iter      E             dE          RMSdq      gap      omega  full diag
   1   -103.9644744 -0.103964E+03  0.194E-02    1.69       0.0  T
   2   -103.9644745 -0.137521E-06  0.114E-02    1.69       1.1  T
   3   -103.9644745  0.359915E-07  0.129E-03    1.69       9.6  T
   4   -103.9644746 -0.790342E-07  0.573E-04    1.69      21.5  T
   5   -103.9644746 -0.963620E-08  0.222E-04    1.69      55.4  T
     SCC iter.                  ...        0 min,  0.055 sec
     gradient                   ...        0 min,  0.055 sec
 * total energy  :  -102.6714815 Eh     change       -0.6889441E-05 Eh
   gradient norm :     0.0008012 Eh/α   predicted    -0.3171434E-05 ( -53.97%)
   displ. norm   :     0.1365466 α      lambda       -0.4957509E-05
   maximum displ.:     0.0803157 α      in ANC's #1, #4, #19, ...

........................................................................
.............................. CYCLE   57 ..............................
........................................................................

 iter      E             dE          RMSdq      gap      omega  full diag
   1   -103.9643157 -0.103964E+03  0.206E-02    1.69       0.0  T
   2   -103.9643159 -0.170215E-06  0.121E-02    1.69       1.0  T
   3   -103.9643158  0.632723E-07  0.158E-03    1.69       7.8  T
   4   -103.9643159 -0.116652E-06  0.593E-04    1.69      20.8  T
   5   -103.9643159 -0.842503E-08  0.264E-04    1.69      46.6  T
     SCC iter.                  ...        0 min,  0.025 sec
     gradient                   ...        0 min,  0.065 sec
 * total energy  :  -102.6714870 Eh     change       -0.5524421E-05 Eh
   gradient norm :     0.0009801 Eh/α   predicted    -0.2500505E-05 ( -54.74%)
   displ. norm   :     0.1090654 α      lambda       -0.4591061E-05
   maximum displ.:     0.0687893 α      in ANC's #1, #4, #8, ...

........................................................................
.............................. CYCLE   58 ..............................
........................................................................

 iter      E             dE          RMSdq      gap      omega  full diag
   1   -103.9644518 -0.103964E+03  0.162E-02    1.68       0.0  T
   2   -103.9644520 -0.138587E-06  0.948E-03    1.69       1.3  T
   3   -103.9644519  0.833114E-07  0.160E-03    1.69       7.7  T
   4   -103.9644520 -0.128062E-06  0.481E-04    1.69      25.6  T
   5   -103.9644520 -0.448317E-08  0.229E-04    1.69      53.8  T
     SCC iter.                  ...        0 min,  0.026 sec
     gradient                   ...        0 min,  0.086 sec
 * total energy  :  -102.6714922 Eh     change       -0.5213941E-05 Eh
   gradient norm :     0.0006398 Eh/α   predicted    -0.2309503E-05 ( -55.71%)
   displ. norm   :     0.1026585 α      lambda       -0.3746040E-05
   maximum displ.:     0.0687500 α      in ANC's #1, #4, #8, ...

........................................................................
.............................. CYCLE   59 ..............................
........................................................................

 iter      E             dE          RMSdq      gap      omega  full diag
   1   -103.9645422 -0.103965E+03  0.144E-02    1.68       0.0  T
   2   -103.9645423 -0.105686E-06  0.844E-03    1.68       1.5  T
   3   -103.9645422  0.977937E-07  0.156E-03    1.68       7.9  T
   4   -103.9645424 -0.136772E-06  0.435E-04    1.69      28.3  T
   5   -103.9645424 -0.328319E-08  0.210E-04    1.68      58.8  T
     SCC iter.                  ...        0 min,  0.065 sec
     gradient                   ...        0 min,  0.055 sec
 * total energy  :  -102.6714963 Eh     change       -0.4097514E-05 Eh
   gradient norm :     0.0004820 Eh/α   predicted    -0.1884447E-05 ( -54.01%)
   displ. norm   :     0.0662777 α      lambda       -0.2442125E-05
   maximum displ.:     0.0483192 α      in ANC's #1, #19, #4, ...

   *** GEOMETRY OPTIMIZATION CONVERGED AFTER 59 ITERATIONS ***

------------------------------------------------------------------------
 total energy gain   :        -0.0213625 Eh      -13.4051 kcal/mol
 total RMSD          :         0.8220728 a0        0.4350 Å
 total power (kW/mol):        -0.9506295 (step)   -6.1459 (real)
------------------------------------------------------------------------

 ANCopt (total)                0 d,  0 h,  0 min,  9.126 sec
 optimizer setup                ...        0 min,  0.000 sec (  0.001%)
 model hessian                  ...        0 min,  0.160 sec (  1.757%)
 ANC generation                 ...        0 min,  0.011 sec (  0.123%)
 coordinate transformation      ...        0 min,  0.028 sec (  0.310%)
 single point calculation       ...        0 min,  8.901 sec ( 97.539%)
 optimization log               ...        0 min,  0.012 sec (  0.135%)
 hessian update                 ...        0 min,  0.002 sec (  0.018%)
 rational function              ...        0 min,  0.007 sec (  0.073%)

================
 final structure:
================
66
 xtb: 6.7.1 (edcfbbe)
C           -4.18183272424260       -1.58389789168225        3.84030417171475
C           -5.48080042973374       -0.81435316559779        3.63213683116933
C           -5.37158218175518        0.27172473784629        2.55144783290016
C           -5.13241844582372       -0.29823191619516        1.19992102693700
N           -6.06179648376243       -0.66370367487021        0.34235230398551
[...]
          omp threads                :                     1


           -------------------------------------------------
          |                 G F N 2 - x T B                 |
           -------------------------------------------------

        Reference                      10.1021/acs.jctc.8b01176
      * Hamiltonian:
        H0-scaling (s, p, d)           1.850000    2.230000    2.230000
        zeta-weighting                 0.500000
      * Dispersion:
        s8                             2.700000
        a1                             0.520000
        a2                             5.000000
        s9                             5.000000
      * Repulsion:
        kExp                           1.500000    1.000000
        rExp                           1.000000
      * Coulomb:
        alpha                          2.000000
        third order                    shell-resolved
        anisotropic                    true
        a3                             3.000000
        a5                             4.000000
        cn-shift                       1.200000
        cn-exp                         4.000000
        max-rad                        5.000000


          ...................................................
          :                      SETUP                      :
          :.................................................:
          :  # basis functions                 174          :
          :  # atomic orbitals                 173          :
          :  # shells                          101          :
          :  # electrons                       184          :
          :  max. iterations                   250          :
          :  Hamiltonian                  GFN2-xTB          :
          :  restarted?                      false          :
          :  GBSA solvation                  false          :
          :  PC potential                    false          :
          :  electronic temp.          300.0000000     K    :
          :  accuracy                    1.0000000          :
          :  -> integral cutoff          0.2500000E+02      :
          :  -> integral neglect         0.1000000E-07      :
          :  -> SCF convergence          0.1000000E-05 Eh   :
          :  -> wf. convergence          0.1000000E-03 e    :
          :  Broyden damping             0.4000000          :
          :  net charge                          0          :
          :  unpaired electrons                  2          :
          ...................................................

 iter      E             dE          RMSdq      gap      omega  full diag
   1   -103.5302712 -0.103530E+03  0.411E+00    0.76       0.0  T
   2   -103.7481406 -0.217869E+00  0.277E+00    0.45       1.0  T
   3   -103.6504295  0.977111E-01  0.191E+00    0.68       1.0  T
   4   -103.7000032 -0.495737E-01  0.146E+00    0.48       1.0  T
   5   -103.7954673 -0.954641E-01  0.926E-01    0.92       1.0  T
   6   -103.8177937 -0.223264E-01  0.732E-01    0.66       1.0  T
   7   -103.8492521 -0.314584E-01  0.458E-01    0.82       1.0  T
   8   -103.8606748 -0.114227E-01  0.327E-01    0.71       1.0  T
   9   -103.8287338  0.319410E-01  0.469E-01    0.68       1.0  T
  10   -103.8606788 -0.319449E-01  0.286E-01    0.73       1.0  T
  11   -103.8707378 -0.100590E-01  0.941E-02    0.72       1.0  T
  12   -103.8707318  0.604445E-05  0.869E-02    0.70       1.0  T
  13   -103.8566776  0.140541E-01  0.302E-01    0.71       1.0  T
  14   -103.8550633  0.161428E-02  0.317E-01    0.71       1.0  T
  15   -103.8716242 -0.165609E-01  0.316E-02    0.71       1.0  T
  16   -103.8703682  0.125601E-02  0.889E-02    0.70       1.0  T
  17   -103.8715345 -0.116629E-02  0.346E-02    0.70       1.0  T
  18   -103.8717452 -0.210733E-03  0.704E-03    0.70       1.7  T
  19   -103.8717097  0.355771E-04  0.161E-02    0.70       1.0  T
  20   -103.8717520 -0.423673E-04  0.363E-03    0.70       3.4  T
  21   -103.8717541 -0.209062E-05  0.157E-03    0.70       7.8  T
  22   -103.8717546 -0.434853E-06  0.279E-04    0.70      44.1  T
  23   -103.8717545  0.125049E-07  0.395E-04    0.70      31.2  T

   *** convergence criteria satisfied after 23 iterations ***

         #    Occupation            Energy/Eh            Energy/eV
      -------------------------------------------------------------
         1        2.0000           -0.7615162             -20.7219
       ...           ...                  ...                  ...
        87        2.0000           -0.4015550             -10.9269
        88        2.0000           -0.3942982             -10.7294
        89        1.9999           -0.3910809             -10.6419
        90        1.9490           -0.3845626             -10.4645
        91        1.8008           -0.3831058             -10.4248
        92        1.2502           -0.3807415             -10.3605
        93        1.0000           -0.2706927              -7.3659 (HOMO)
        94        0.0000           -0.2448160              -6.6618 (LUMO)
        95                         -0.2316293              -6.3030
        96                         -0.2085468              -5.6748
        97                         -0.1814590              -4.9377
        98                         -0.1251510              -3.4055
       ...                                ...                  ...
       173                          1.2487839              33.9811
      -------------------------------------------------------------
                  HL-Gap            0.0258767 Eh            0.7041 eV
             Fermi-level           -0.3197692 Eh           -8.7014 eV

 transition dipole moment (au) for excitation:          92          93
     X       Y       Z   
  -0.1662   0.0587  -0.0024  total (au/Debye):    0.176   0.448
 dE (eV)             :    2.995
 oscillator strength :  0.32236E-02

 SCC (total)                   0 d,  0 h,  0 min,  0.232 sec
 SCC setup                      ...        0 min,  0.001 sec (  0.336%)
 Dispersion                     ...        0 min,  0.001 sec (  0.474%)
 classical contributions        ...        0 min,  0.000 sec (  0.148%)
 integral evaluation            ...        0 min,  0.016 sec (  6.745%)
 iterations                     ...        0 min,  0.130 sec ( 56.142%)
 molecular gradient             ...        0 min,  0.071 sec ( 30.441%)
 printout                       ...        0 min,  0.013 sec (  5.711%)

         :::::::::::::::::::::::::::::::::::::::::::::::::::::
         ::                     SUMMARY                     ::
         :::::::::::::::::::::::::::::::::::::::::::::::::::::
         :: total energy            -102.578708519260 Eh    ::
         :: gradient norm              0.131480631685 Eh/a0 ::
         :: HOMO-LUMO gap              0.704141666932 eV    ::
         ::.................................................::
         :: SCC energy              -103.871106822565 Eh    ::
         :: -> isotropic ES            0.134066517157 Eh    ::
         :: -> anisotropic ES          0.002081287994 Eh    ::
         :: -> anisotropic XC          0.041367987694 Eh    ::
         :: -> dispersion             -0.076328467722 Eh    ::
         :: repulsion energy           1.292398303305 Eh    ::
         :: add. restraining           0.000000000000 Eh    ::
         :: total charge              -0.000000000001 e     ::
         :::::::::::::::::::::::::::::::::::::::::::::::::::::

           -------------------------------------------------
          |                Property Printout                |
           -------------------------------------------------

    * Orbital Energies and Occupations

         #    Occupation            Energy/Eh            Energy/eV
      -------------------------------------------------------------
         1        2.0000           -0.7615162             -20.7219
       ...           ...                  ...                  ...
        81        2.0000           -0.4316401             -11.7455
        82        2.0000           -0.4253580             -11.5746
        83        2.0000           -0.4155946             -11.3089
        84        2.0000           -0.4092742             -11.1369
        85        2.0000           -0.4077305             -11.0949
        86        2.0000           -0.4054182             -11.0320
        87        2.0000           -0.4015550             -10.9269
        88        2.0000           -0.3942982             -10.7294
        89        1.9999           -0.3910809             -10.6419
        90        1.9490           -0.3845626             -10.4645
        91        1.8008           -0.3831058             -10.4248
        92        1.2502           -0.3807415             -10.3605
        93        1.0000           -0.2706927              -7.3659 (HOMO)
        94        0.0000           -0.2448160              -6.6618 (LUMO)
        95                         -0.2316293              -6.3030
        96                         -0.2085468              -5.6748
        97                         -0.1814590              -4.9377
        98                         -0.1251510              -3.4055
        99                         -0.1121187              -3.0509
       100                         -0.0970658              -2.6413
       101                         -0.0701301              -1.9083
       102                         -0.0604354              -1.6445
       103                         -0.0438979              -1.1945
       104                         -0.0302838              -0.8241
       ...                                ...                  ...
       173                          1.2487839              33.9811
      -------------------------------------------------------------
                  HL-Gap            0.0258767 Eh            0.7041 eV
             Fermi-level           -0.3197692 Eh           -8.7014 eV

     #   Z          covCN         q      C6AA      α(0)
     1   6 C        3.751    -0.105    22.559     6.773
     2   6 C        3.801    -0.055    21.554     6.610
     3   6 C        3.804    -0.068    21.805     6.648
     4   6 C        3.127     0.106    25.468     8.263
     5   7 N        1.927    -0.265    27.733     7.808
     6   6 C        3.148     0.077    26.029     8.346
     7   6 C        3.755    -0.116    22.780     6.806
     8   6 C        3.063    -0.012    28.261     8.718
     9   7 N        2.949     0.055    20.275     6.688
    10   7 N        2.769    -0.112    23.435     7.190
    11   6 C        2.856     0.123    25.296     8.244
    12   6 C        2.981    -0.038    28.943     8.825
    13   6 C        2.856     0.126    25.243     8.235
    14   6 C        2.918    -0.068    29.683     8.934
    15   6 C        2.964    -0.052    29.280     8.876
    16   6 C        2.966    -0.098    30.463     9.053
    17  16 S        3.917     1.090   104.102    17.172
    18   8 O        0.860    -0.566    25.302     6.744
    19   7 N        2.736    -0.285    27.354     7.768
    20   6 C        3.877     0.007    20.422     6.425
    21   6 C        3.772     0.003    20.553     6.460
    22   7 N        2.731    -0.131    23.834     7.251
    23   6 C        3.771     0.002    20.575     6.464
    24   6 C        3.867     0.011    20.355     6.416
    25   6 C        3.756     0.004    20.556     6.465
    26   6 C        3.752    -0.114    22.744     6.801
    27   8 O        0.860    -0.560    25.145     6.723
    28   6 C        2.961    -0.042    29.053     8.841
    29   8 O        1.704    -0.292    18.859     5.863
    30   6 C        3.685     0.084    19.378     6.302
    31   6 C        3.751    -0.113    22.718     6.797
    32   7 N        1.844    -0.235    27.000     7.701
    33   6 C        2.777     0.266    22.520     7.772
    34   8 O        0.859    -0.375    21.183     6.171
    35   1 H        0.925     0.032     2.556     2.500
    36   1 H        0.925     0.038     2.482     2.464
    37   1 H        0.925     0.043     2.410     2.428
    38   1 H        0.924     0.049     2.330     2.387
    39   1 H        0.924     0.040     2.447     2.446
    40   1 H        0.924     0.041     2.442     2.444
    41   1 H        0.924     0.067     2.119     2.276
    42   1 H        0.925     0.067     2.115     2.274
    43   1 H        0.925     0.066     2.128     2.281
    44   1 H        0.925     0.074     2.040     2.233
    45   1 H        0.860     0.212     1.049     1.604
    46   1 H        0.926     0.040     2.444     2.445
    47   1 H        0.926     0.050     2.317     2.380
    48   1 H        0.924     0.054     2.269     2.356
    49   1 H        0.924     0.055     2.262     2.352
    50   1 H        0.922     0.036     2.506     2.476
    51   1 H        0.924     0.055     2.261     2.351
    52   1 H        0.922     0.037     2.493     2.469
    53   1 H        0.925     0.058     2.223     2.331
    54   1 H        0.925     0.068     2.109     2.271
    55   1 H        0.923     0.042     2.421     2.433
    56   1 H        0.924     0.047     2.361     2.403
    57   1 H        0.922     0.024     2.668     2.554
    58   1 H        0.925     0.057     2.235     2.338
    59   1 H        0.925     0.049     2.329     2.386
    60   1 H        0.925     0.043     2.406     2.426
    61   1 H        0.926     0.071     2.077     2.254
    62   1 H        0.924     0.037     2.483     2.464
    63   1 H        0.924     0.037     2.488     2.467
    64   1 H        0.925     0.053     2.284     2.363
    65   1 H        0.925     0.054     2.265     2.353
    66   1 H        0.925     0.051     2.308     2.376

 Mol. C6AA /au·bohr⁶  :      48291.151039
 Mol. C8AA /au·bohr⁸  :    1143922.566501
 Mol. α(0) /au        :        335.738608


Wiberg/Mayer (AO) data.
largest (>0.10) Wiberg bond orders for each atom

 ---------------------------------------------------------------------------
     #   Z sym  total        # sym  WBO       # sym  WBO       # sym  WBO
 ---------------------------------------------------------------------------
     1   6 C    3.996 --     2 C    1.021    36 H    0.987    37 H    0.985
                            35 H    0.985
     2   6 C    3.991 --     1 C    1.021     3 C    0.983    38 H    0.978
                            39 H    0.977
     3   6 C    3.993 --     4 C    1.018     2 C    0.983    41 H    0.966
                            40 H    0.966
     4   6 C    3.926 --     5 N    1.426     9 N    1.241     3 C    1.018
     5   7 N    3.045 --     4 C    1.426     6 C    1.296
     6   6 C    3.922 --     8 C    1.404     5 N    1.296     7 C    1.039
     7   6 C    3.987 --     6 C    1.039    44 H    0.976    42 H    0.964
                            43 H    0.962
     8   6 C    3.841 --     6 C    1.404     9 N    1.125    33 C    0.992
     9   7 N    3.635 --     4 C    1.241     8 C    1.125    10 N    1.035
    10   7 N    3.364 --    11 C    1.120     9 N    1.035    45 H    0.896
    11   6 C    3.904 --    32 N    1.400    12 C    1.134    10 N    1.120
    12   6 C    3.946 --    28 C    1.307    13 C    1.236    11 C    1.134
    13   6 C    3.910 --    14 C    1.418    12 C    1.236    29 O    1.045
    14   6 C    3.973 --    13 C    1.418    15 C    1.389    46 H    0.964
    15   6 C    3.916 --    14 C    1.389    16 C    1.368    47 H    0.966
    16   6 C    3.954 --    28 C    1.460    15 C    1.368    17 S    0.750
    17  16 S    4.972 --    27 O    1.637    18 O    1.619    19 N    0.880
                            16 C    0.750
    18   8 O    1.925 --    17 S    1.619    27 O    0.110
    19   7 N    3.156 --    20 C    0.996    24 C    0.989    17 S    0.880
    20   6 C    3.968 --    19 N    0.996    21 C    0.994    49 H    0.968
                            48 H    0.961
    21   6 C    3.978 --    22 N    1.007    20 C    0.994    51 H    0.969
                            50 H    0.955
    22   7 N    3.100 --    21 C    1.007    23 C    1.006    25 C    0.996
    23   6 C    3.977 --    22 N    1.006    24 C    0.996    53 H    0.967
                            52 H    0.954
    24   6 C    3.967 --    23 C    0.996    19 N    0.989    54 H    0.968
                            55 H    0.964
    25   6 C    3.974 --    26 C    1.014    22 N    0.996    56 H    0.972
                            57 H    0.959
    26   6 C    3.991 --    25 C    1.014    58 H    0.985    59 H    0.985
                            60 H    0.984
    27   8 O    1.930 --    17 S    1.637    18 O    0.110
    28   6 C    3.970 --    16 C    1.460    12 C    1.307    61 H    0.956
    29   8 O    2.221 --    13 C    1.045    30 C    0.956
    30   6 C    3.943 --    31 C    1.016    62 H    0.969    63 H    0.968
                            29 O    0.956
    31   6 C    3.992 --    30 C    1.016    65 H    0.985    66 H    0.985
                            64 H    0.984
    32   7 N    3.052 --    11 C    1.400    33 C    1.166    34 O    0.207
    33   6 C    3.901 --    34 O    1.585    32 N    1.166     8 C    0.992
    34   8 O    2.016 --    33 C    1.585    32 N    0.207
    35   1 H    0.999 --     1 C    0.985
    36   1 H    0.999 --     1 C    0.987
    37   1 H    0.998 --     1 C    0.985
    38   1 H    0.997 --     2 C    0.978
    39   1 H    0.997 --     2 C    0.977
    40   1 H    0.998 --     3 C    0.966
    41   1 H    0.994 --     3 C    0.966
    42   1 H    0.989 --     7 C    0.964
    43   1 H    0.990 --     7 C    0.962
    44   1 H    0.993 --     7 C    0.976
    45   1 H    0.954 --    10 N    0.896
    46   1 H    0.997 --    14 C    0.964
    47   1 H    0.997 --    15 C    0.966
    48   1 H    0.990 --    20 C    0.961
    49   1 H    0.997 --    20 C    0.968
    50   1 H    0.981 --    21 C    0.955
    51   1 H    0.996 --    21 C    0.969
    52   1 H    0.981 --    23 C    0.954
    53   1 H    0.995 --    23 C    0.967
    54   1 H    0.995 --    24 C    0.968
    55   1 H    0.991 --    24 C    0.964
    56   1 H    0.997 --    25 C    0.972
    57   1 H    0.985 --    25 C    0.959
    58   1 H    0.996 --    26 C    0.985
    59   1 H    0.997 --    26 C    0.985
    60   1 H    0.998 --    26 C    0.984
    61   1 H    0.994 --    28 C    0.956
    62   1 H    0.998 --    30 C    0.969
    63   1 H    0.998 --    30 C    0.968
    64   1 H    0.997 --    31 C    0.984
    65   1 H    0.997 --    31 C    0.985
    66   1 H    0.997 --    31 C    0.985
 ---------------------------------------------------------------------------

Topologies differ in total number of bonds
Writing topology from bond orders to xtbtopo.mol

molecular dipole:
                 x           y           z       tot (Debye)
 q only:       -0.234       3.190       0.652
   full:        0.117       3.605       1.109       9.591
molecular quadrupole (traceless):
                xx          xy          yy          xz          yz          zz
 q only:        9.329      18.220     -24.781     -44.745      -2.922      15.452
  q+dip:        1.729      19.111     -18.418     -44.292      -1.932      16.688
   full:        0.440      18.830     -17.373     -45.184      -4.970      16.933


           -------------------------------------------------
          | TOTAL ENERGY             -102.578708519260 Eh   |
          | GRADIENT NORM               0.131480631685 Eh/α |
          | HOMO-LUMO GAP               0.704141666932 eV   |
           -------------------------------------------------

------------------------------------------------------------------------
 * finished run on 2025/05/15 at 16:17:01.627     
------------------------------------------------------------------------
 total:
 * wall-time:     0 d,  0 h,  0 min,  0.269 sec
 *  cpu-time:     0 d,  0 h,  0 min,  0.221 sec
 * ratio c/w:     0.821 speedup
 SCF:
 * wall-time:     0 d,  0 h,  0 min,  0.233 sec
 *  cpu-time:     0 d,  0 h,  0 min,  0.201 sec
 * ratio c/w:     0.866 speedup


