49
 energy: -69.210010362410 gnorm: 0.000376307765 xtb: 6.7.1 (edcfbbe)
C            0.67086248107129        2.46514788812767        1.91760752310788
C            0.90600697601095        1.09031318995694        1.30117109650179
N            2.26599980463640        1.04204137722911        0.81071462217536
C            2.95735055725916       -0.08886577327265        0.51554317150013
C            2.48250420169159       -1.35925994948528        0.81616395729746
C            3.25741029364695       -2.47640268156755        0.51294125356647
N            4.43294408911026       -2.43607399953275       -0.05711991885346
C            4.93733713091526       -1.22493771637871       -0.35987730487803
C            4.25243306443554       -0.00515326307325       -0.09481738733346
C            4.88758946975736        1.20197560766229       -0.44208406819839
C            6.12490843391273        1.21803862732865       -1.02679194036275
C            6.78165889219262        0.00848865191447       -1.28978460354202
Cl           8.34270304758364        0.05623153207073       -2.03215722666049
C            6.21024895823106       -1.18949314889570       -0.96657133188457
C           -0.10002555456149        0.78236767685775        0.17695682080749
C           -1.48793473288553        0.42926561178701        0.70421839950056
C           -2.41943615732170        0.02788110695716       -0.43979327443064
N           -3.80167535163673       -0.09289910772460       -0.00500002876270
C           -4.03928090664355       -1.09508738262890        1.02317141605972
C           -3.57161956396557       -2.51866618542400        0.70140740370637
C           -4.76066952335287       -0.15840151625574       -1.10088246408449
C           -5.99326273715945        0.67631571599901       -0.72615899805610
O           -5.61081724907637        1.96772076536501       -0.33320451764132
H            0.73183909149705        3.24045465091182        1.15611695338317
H            1.41841077260145        2.66553678346061        2.68147609559470
H           -0.31113191693984        2.51215369903170        2.37790814646988
H            0.80707138328528        0.33357803619059        2.08778020929140
H            2.60040518837405        1.89997802419362        0.40332984079533
H            1.51975994328256       -1.50116740104247        1.27813250293212
H            2.88402706973380       -3.46628809107448        0.74511547701269
H            4.40914363862057        2.15047482218286       -0.24284589810462
H            6.60160375403797        2.15010184133881       -1.28624124121375
H            6.70505745445848       -2.12763479319036       -1.15725054129197
H           -0.16482555513723        1.64255218067298       -0.49306082957754
H            0.28144674393015       -0.06094861353742       -0.40439278775960
H           -1.39510194498695       -0.39124322956158        1.41731732359599
H           -1.92453067526438        1.28290568694893        1.22431677819357
H           -2.04262689871268       -0.89332722038615       -0.91398477489631
H           -2.39008940059464        0.82011616045026       -1.19381886501609
H           -3.55375549775585       -0.75576975044115        1.94227224528187
H           -5.11483724479667       -1.10989405831990        1.21199586670273
H           -2.48746716269777       -2.57481822815967        0.64586011213342
H           -3.90832894172368       -3.19420522903844        1.48322415076029
H           -3.98423083934758       -2.85895858683189       -0.24577937618246
H           -5.06615949061868       -1.18362221655321       -1.34719857469872
H           -4.30900036715511        0.28271532204117       -1.99135568561791
H           -6.55088854786290        0.18468834812284        0.08537369894996
H           -6.65905822463010        0.78259092515460       -1.58521693089115
H           -4.82206795544365        1.84958391042630        0.21697350461771
