42
 energy: -62.120780317443 gnorm: 0.000399084462 xtb: 6.7.1 (edcfbbe)
N           -2.29761472567126        1.57066676338521        1.39596941292692
C           -1.78518680023849        0.21799449604177        1.43923987134595
C           -0.36174169153427        0.13128661027264        0.92769089687850
C            0.20408971829470        1.12208515474999        0.13792730620104
C            1.50893759371926        1.00544642692800       -0.30311497200839
C            2.27817627403249       -0.10720544326052        0.02514176461495
C            3.66992371333549       -0.22070779185381       -0.43503422957925
C            4.17057613494360       -1.43490753740209       -0.89879340689023
C            5.47950446476938       -1.53650771618474       -1.33177017263157
C            6.31059675636559       -0.42929344733014       -1.30316194790505
C            5.82417306483866        0.78195647018171       -0.84045505486302
C            4.51412528402559        0.88709184343775       -0.41228421205866
C            1.69928760136488       -1.10629734282839        0.80527032618019
C            0.39933150069606       -0.98572255762175        1.25282977716709
C           -2.72243196674916       -0.70278995617625        0.68200492143341
C           -3.87213308755620       -1.16516257879051        1.31009221873329
C           -4.76653049092386       -1.97160905081648        0.62990639753321
C           -4.51990243322534       -2.32373839574487       -0.68625969525344
C           -3.37679949939369       -1.86499176627594       -1.31797030030751
C           -2.48181747839095       -1.05664082455249       -0.63887228286443
C           -2.99609984551490        2.16594244126433        0.38220548314257
C           -3.19712781730788        3.45805587024021        0.77296990906365
N           -2.63357376450988        3.66907558763284        1.99088504977669
C           -2.10450081179746        2.52844720864005        2.33337400011392
H           -1.78350137811440       -0.08475577893045        2.49649077568307
H           -0.37135447199954        1.99484540663323       -0.13475527366239
H            1.93036887428931        1.78080635578488       -0.92562889242925
H            3.52197508050547       -2.29806899931779       -0.93870178392587
H            5.85303912605348       -2.48297594613738       -1.69490839150211
H            7.33345691419987       -0.51007760966092       -1.63985605507474
H            6.46927802565320        1.64795606654735       -0.81170684578831
H            4.14486699707829        1.83000145015752       -0.03580305263782
H            2.28290267174057       -1.97128229482331        1.08382455569681
H           -0.03496551962929       -1.76464450624622        1.86369399602426
H           -4.06867867907303       -0.88783685775966        2.33626039220134
H           -5.65714771795578       -2.32488644076485        1.12810173172929
H           -5.21774795178611       -2.95290602130572       -1.21837856236118
H           -3.18079378864929       -2.13442954534907       -2.34529609513059
H           -1.59187037975993       -0.69951080283026       -1.13678657656033
H           -3.29151853747927        1.63255083311473       -0.49760893973595
H           -3.70865362157751        4.24590951016706        0.25751733974520
H           -1.57321733706836        2.34683071678395        3.24685061697691
