----- Optimization -----
      -----------------------------------------------------------      
     |                   =====================                   |     
     |                           x T B                           |     
     |                   =====================                   |     
     |                         S. Grimme                         |     
     |          Mulliken Center for Theoretical Chemistry        |     
     |                    University of Bonn                     |     
      -----------------------------------------------------------      

   * xtb version 6.7.1 (edcfbbe) compiled by 'conda@3ef47c1a292c' on 2024-11-25

   xtb is free software: you can redistribute it and/or modify it under
   the terms of the GNU Lesser General Public License as published by
   the Free Software Foundation, either version 3 of the License, or
   (at your option) any later version.
   
   xtb is distributed in the hope that it will be useful,
   but WITHOUT ANY WARRANTY; without even the implied warranty of
   MERCHANTABILITY or FITNESS FOR A PARTICULAR PURPOSE.  See the
   GNU Lesser General Public License for more details.
   
   Cite this work as:
   * C. Bannwarth, E. Caldeweyher, S. Ehlert, A. Hansen, P. Pracht,
     J. Seibert, S. Spicher, S. Grimme, WIREs Comput. Mol. Sci., 2020, 11,
     e01493. DOI: 10.1002/wcms.1493
   
   for GFN2-xTB:
   * C. Bannwarth, S. Ehlert and S. Grimme., J. Chem. Theory Comput., 2019,
     15, 1652-1671. DOI: 10.1021/acs.jctc.8b01176
   for GFN1-xTB:
   * S. Grimme, C. Bannwarth, P. Shushkov, J. Chem. Theory Comput., 2017,
     13, 1989-2009. DOI: 10.1021/acs.jctc.7b00118
   for GFN0-xTB:
   * P. Pracht, E. Caldeweyher, S. Ehlert, S. Grimme, ChemRxiv, 2019, preprint.
     DOI: 10.26434/chemrxiv.8326202.v1
   for GFN-FF:
   * S. Spicher and S. Grimme, Angew. Chem. Int. Ed., 2020, 59, 15665-15673.
     DOI: 10.1002/anie.202004239
   
   for ALPB and GBSA implicit solvation:
   * S. Ehlert, M. Stahn, S. Spicher, S. Grimme, J. Chem. Theory Comput.,
     2021, 17, 4250-4261. DOI: 10.1021/acs.jctc.1c00471
   
   for ddCOSMO and CPCM-X implicit solvation:
   * M. Stahn, S. Ehlert, S. Grimme, J. Phys. Chem. A,
     2023, XX, XXXX-XXXX. DOI: 10.1021/acs.jpca.3c04382
   
   for DFT-D4:
   * E. Caldeweyher, C. Bannwarth and S. Grimme, J. Chem. Phys., 2017,
     147, 034112. DOI: 10.1063/1.4993215
   * E. Caldeweyher, S. Ehlert, A. Hansen, H. Neugebauer, S. Spicher,
     C. Bannwarth and S. Grimme, J. Chem. Phys., 2019, 150, 154122.
     DOI: 10.1063/1.5090222
   * E. Caldeweyher, J.-M. Mewes, S. Ehlert and S. Grimme, Phys. Chem. Chem. Phys.
     2020, 22, 8499-8512. DOI: 10.1039/D0CP00502A
   
   for sTDA-xTB:
   * S. Grimme and C. Bannwarth, J. Chem. Phys., 2016, 145, 054103.
     DOI: 10.1063/1.4959605
   
   in the mass-spec context:
   * V. Asgeirsson, C. Bauer and S. Grimme, Chem. Sci., 2017, 8, 4879.
     DOI: 10.1039/c7sc00601b
   * J. Koopman and S. Grimme, ACS Omega 2019, 4, 12, 15120-15133.
     DOI: 10.1021/acsomega.9b02011
   
   for metadynamics refer to:
   * S. Grimme, J. Chem. Theory Comput., 2019, 155, 2847-2862
     DOI: 10.1021/acs.jctc.9b00143
   
   for SPH calculations refer to:
   * S. Spicher and S. Grimme, J. Chem. Theory Comput., 2021, 17, 1701-1714
     DOI: 10.1021/acs.jctc.0c01306
   
   for ONIOM refer to:
   * C. Plett, A. Katbashev, S. Ehlert, S. Grimme, M. Bursch,
     Phys. Chem. Chem. Phys., 2023, 25, 17860-17868. DOI: 10.1039/D3CP02178E
   
   for DIPRO refer to:
   * J. Kohn, N. Gildemeister, S. Grimme, D. Fazzi, A. Hansen,
     J. Chem. Phys., 2023, just accepted.
   
   for PTB refer to:
   * S. Grimme, M. Mueller, A. Hansen, J. Chem. Phys., 2023, 158, 124111.
     DOI: 10.1063/5.0137838
   
   with help from (in alphabetical order)
   P. Atkinson, C. Bannwarth, F. Bohle, G. Brandenburg, E. Caldeweyher
   M. Checinski, S. Dohm, S. Ehlert, S. Ehrlich, I. Gerasimov, C. Hölzer
   A. Katbashev, J. Kohn, J. Koopman, C. Lavigne, S. Lehtola, F. März, M. Müller,
   F. Musil, H. Neugebauer, J. Pisarek, C. Plett, P. Pracht, F. Pultar,
   J. Seibert, P. Shushkov, S. Spicher, M. Stahn, M. Steiner, T. Strunk,
   J. Stückrath, T. Rose, and J. Unsleber
   
 * started run on 2025/05/15 at 16:34:02.374     
   ID    Z sym.   atoms
    1    7 N      1, 23
    2    6 C      2-22, 24
    3    1 H      25-42

           -------------------------------------------------
          |                Calculation Setup                |
           -------------------------------------------------

          program call               : xtb /rds/general/user/hgt20/home/callum/QDESCP/Bifonazole_rdkit_conf_6/Bifonazole_rdkit_conf_6.xyz --opt normal --acc 1 --gfn 2 --chrg 0 --uhf 0 -P 1
          hostname                   : login-c
          coordinate file            : /rds/general/user/hgt20/home/callum/QDESCP/Bifonazole_rdkit_conf_6/Bifonazole_rdkit_conf_6.xyz
          omp threads                :                     1


           -------------------------------------------------
          |                 G F N 2 - x T B                 |
           -------------------------------------------------

        Reference                      10.1021/acs.jctc.8b01176
      * Hamiltonian:
        H0-scaling (s, p, d)           1.850000    2.230000    2.230000
        zeta-weighting                 0.500000
      * Dispersion:
        s8                             2.700000
        a1                             0.520000
        a2                             5.000000
        s9                             5.000000
      * Repulsion:
        kExp                           1.500000    1.000000
        rExp                           1.000000
      * Coulomb:
        alpha                          2.000000
        third order                    shell-resolved
        anisotropic                    true
        a3                             3.000000
        a5                             4.000000
        cn-shift                       1.200000
        cn-exp                         4.000000
        max-rad                        5.000000


          ...................................................
          :                      SETUP                      :
          :.................................................:
          :  # basis functions                 114          :
          :  # atomic orbitals                 114          :
          :  # shells                           66          :
          :  # electrons                       116          :
          :  max. iterations                   250          :
          :  Hamiltonian                  GFN2-xTB          :
          :  restarted?                      false          :
          :  GBSA solvation                  false          :
          :  PC potential                    false          :
          :  electronic temp.          300.0000000     K    :
          :  accuracy                    1.0000000          :
          :  -> integral cutoff          0.2500000E+02      :
          :  -> integral neglect         0.1000000E-07      :
          :  -> SCF convergence          0.1000000E-05 Eh   :
          :  -> wf. convergence          0.1000000E-03 e    :
          :  Broyden damping             0.4000000          :
          :  net charge                          0          :
          :  unpaired electrons                  0          :
          ...................................................

 iter      E             dE          RMSdq      gap      omega  full diag
   1    -63.0970042 -0.630970E+02  0.406E+00    3.77       0.0  T
   2    -63.1633892 -0.663850E-01  0.253E+00    3.17       1.0  T
   3    -63.1521429  0.112463E-01  0.108E+00    3.41       1.0  T
   4    -63.1672370 -0.150941E-01  0.405E-01    3.21       1.0  T
   5    -63.1736866 -0.644958E-02  0.933E-02    3.24       1.0  T
   6    -63.1738837 -0.197080E-03  0.393E-02    3.23       1.0  T
   7    -63.1739296 -0.459016E-04  0.183E-02    3.22       1.0  T
   8    -63.1739311 -0.152486E-05  0.613E-03    3.22       2.5  T
   9    -63.1739322 -0.108172E-05  0.152E-03    3.22      10.1  T
  10    -63.1739322 -0.560712E-07  0.706E-04    3.22      21.8  T
  11    -63.1739323 -0.150394E-07  0.260E-04    3.22      59.4  T

   *** convergence criteria satisfied after 11 iterations ***

         #    Occupation            Energy/Eh            Energy/eV
      -------------------------------------------------------------
         1        2.0000           -0.6735936             -18.3294
       ...           ...                  ...                  ...
        52        2.0000           -0.4121484             -11.2151
        53        2.0000           -0.4101567             -11.1609
        54        2.0000           -0.4080201             -11.1028
        55        2.0000           -0.4054228             -11.0321
        56        2.0000           -0.3913246             -10.6485
        57        2.0000           -0.3769594             -10.2576
        58        2.0000           -0.3693205             -10.0497 (HOMO)
        59                         -0.2508437              -6.8258 (LUMO)
        60                         -0.2415257              -6.5722
        61                         -0.2379336              -6.4745
        62                         -0.2353479              -6.4041
        63                         -0.2292254              -6.2375
       ...                                ...                  ...
       114                          0.6476524              17.6235
      -------------------------------------------------------------
                  HL-Gap            0.1184768 Eh            3.2239 eV
             Fermi-level           -0.3100821 Eh           -8.4378 eV

 SCC (total)                   0 d,  0 h,  0 min,  0.057 sec
 SCC setup                      ...        0 min,  0.000 sec (  0.690%)
 Dispersion                     ...        0 min,  0.001 sec (  0.882%)
 classical contributions        ...        0 min,  0.000 sec (  0.258%)
 integral evaluation            ...        0 min,  0.008 sec ( 13.664%)
 iterations                     ...        0 min,  0.025 sec ( 43.792%)
 molecular gradient             ...        0 min,  0.023 sec ( 40.395%)
 printout                       ...        0 min,  0.000 sec (  0.307%)

         :::::::::::::::::::::::::::::::::::::::::::::::::::::
         ::                     SUMMARY                     ::
         :::::::::::::::::::::::::::::::::::::::::::::::::::::
         :: total energy             -62.111963874344 Eh    ::
         :: gradient norm              0.051864698777 Eh/a0 ::
         :: HOMO-LUMO gap              3.223916994472 eV    ::
         ::.................................................::
         :: SCC energy               -63.173713323508 Eh    ::
         :: -> isotropic ES            0.013457753438 Eh    ::
         :: -> anisotropic ES          0.007705948221 Eh    ::
         :: -> anisotropic XC          0.045810348289 Eh    ::
         :: -> dispersion             -0.048570970705 Eh    ::
         :: repulsion energy           1.061749449164 Eh    ::
         :: add. restraining           0.000000000000 Eh    ::
         :: total charge              -0.000000000000 e     ::
         :::::::::::::::::::::::::::::::::::::::::::::::::::::

      ----------------------------------------------------------- 
     |                   =====================                   |
     |                        A N C O P T                        |
     |                   =====================                   |
     |               Approximate Normal Coordinate               |
     |                Rational Function Optimizer                |
      ----------------------------------------------------------- 
      ----------------------------------------------------------- 
     |                   =====================                   |
     |                        A N C O P T                        |
     |                   =====================                   |
     |               Approximate Normal Coordinate               |
     |                Rational Function Optimizer                |
      ----------------------------------------------------------- 

          ...................................................
          :                      SETUP                      :
          :.................................................:
          :   optimization level            normal          :
          :   max. optcycles                   200          :
          :   ANC micro-cycles                  20          :
          :   degrees of freedom               120          :
          :.................................................:
          :   RF solver                   davidson          :
          :   write xtbopt.log                true          :
          :   linear?                        false          :
          :   energy convergence         0.5000000E-05 Eh   :
          :   grad. convergence          0.1000000E-02 Eh/α :
          :   maxmium RF displ.          1.0000000          :
          :   Hlow (freq-cutoff)         0.1000000E-01      :
          :   Hmax (freq-cutoff)         5.0000000          :
          :   S6 in model hess.         20.0000000          :
          ...................................................

generating ANC from exact Hessian ...
Using Lindh-Hessian (1995)
 Shifting diagonal of input Hessian by    9.7411744701998565E-003
 Lowest  eigenvalues of input Hessian
    0.000000    0.000000    0.000000    0.000000    0.000000    0.000000
    0.010000    0.010391    0.010516    0.010817    0.011049    0.011730
    0.011941    0.012113    0.012327    0.016881    0.017439    0.020382
 Highest eigenvalues
    1.925558    1.935696    1.936920    1.967309    2.003756    2.088575


........................................................................
.............................. CYCLE    1 ..............................
........................................................................

 iter      E             dE          RMSdq      gap      omega  full diag
   1    -63.1739323 -0.631739E+02  0.101E-04    3.22       0.0  T
   2    -63.1739323 -0.148475E-09  0.651E-05    3.22     236.9  T
   3    -63.1739323 -0.147928E-09  0.324E-05    3.22     476.9  T
     SCC iter.                  ...        0 min,  0.007 sec
     gradient                   ...        0 min,  0.023 sec
 * total energy  :   -62.1119639 Eh     change       -0.6615437E-09 Eh
   gradient norm :     0.0518637 Eh/α   predicted     0.0000000E+00 (-100.00%)
   displ. norm   :     0.3092715 α      lambda       -0.8962130E-02
   maximum displ.:     0.1056885 α      in ANC's #12, #13, #62, ...

........................................................................
.............................. CYCLE    2 ..............................
........................................................................

 iter      E             dE          RMSdq      gap      omega  full diag
   1    -63.2375115 -0.632375E+02  0.154E-01    3.24       0.0  T
   2    -63.2375323 -0.208613E-04  0.933E-02    3.23       1.0  T
   3    -63.2374738  0.584937E-04  0.372E-02    3.24       1.0  T
   4    -63.2375426 -0.687626E-04  0.646E-03    3.23       2.4  T
   5    -63.2375443 -0.173546E-05  0.234E-03    3.23       6.6  T
   6    -63.2375444 -0.477583E-07  0.123E-03    3.23      12.5  T
   7    -63.2375444 -0.271278E-07  0.296E-04    3.23      52.0  T
   8    -63.2375444 -0.107202E-08  0.119E-04    3.23     129.4  T
     SCC iter.                  ...        0 min,  0.017 sec
     gradient                   ...        0 min,  0.023 sec
 * total energy  :   -62.1177995 Eh     change       -0.5835654E-02 Eh
   gradient norm :     0.0150462 Eh/α   predicted    -0.4910195E-02 ( -15.86%)
   displ. norm   :     0.3030191 α      lambda       -0.2068236E-02
   maximum displ.:     0.1200170 α      in ANC's #12, #13, #9, ...

........................................................................
.............................. CYCLE    3 ..............................
........................................................................

 iter      E             dE          RMSdq      gap      omega  full diag
   1    -63.2648773 -0.632649E+02  0.831E-02    3.24       0.0  T
   2    -63.2648906 -0.132586E-04  0.514E-02    3.23       1.0  T
   3    -63.2648739  0.167060E-04  0.226E-02    3.24       1.0  T
   4    -63.2648953 -0.214763E-04  0.516E-03    3.24       3.0  T
   5    -63.2648965 -0.120133E-05  0.124E-03    3.24      12.4  T
   6    -63.2648966 -0.279582E-07  0.620E-04    3.24      24.9  T
   7    -63.2648966 -0.401998E-08  0.183E-04    3.24      84.5  T
     SCC iter.                  ...        0 min,  0.015 sec
     gradient                   ...        0 min,  0.033 sec
 * total energy  :   -62.1191319 Eh     change       -0.1332383E-02 Eh
   gradient norm :     0.0062989 Eh/α   predicted    -0.1129942E-02 ( -15.19%)
   displ. norm   :     0.2745950 α      lambda       -0.7268459E-03
   maximum displ.:     0.1347038 α      in ANC's #9, #7, #6, ...

........................................................................
.............................. CYCLE    4 ..............................
........................................................................

 iter      E             dE          RMSdq      gap      omega  full diag
   1    -63.2698555 -0.632699E+02  0.706E-02    3.23       0.0  T
   2    -63.2698599 -0.440201E-05  0.427E-02    3.23       1.0  T
   3    -63.2698497  0.102567E-04  0.150E-02    3.24       1.0  T
   4    -63.2698616 -0.118866E-04  0.286E-03    3.23       5.4  T
   5    -63.2698619 -0.351854E-06  0.774E-04    3.23      19.9  T
   6    -63.2698619 -0.612483E-08  0.412E-04    3.23      37.5  T
     SCC iter.                  ...        0 min,  0.013 sec
     gradient                   ...        0 min,  0.023 sec
 * total energy  :   -62.1196656 Eh     change       -0.5336922E-03 Eh
   gradient norm :     0.0054841 Eh/α   predicted    -0.3908280E-03 ( -26.77%)
   displ. norm   :     0.3328983 α      lambda       -0.5436008E-03
   maximum displ.:     0.1859580 α      in ANC's #9, #7, #6, ...

........................................................................
.............................. CYCLE    5 ..............................
........................................................................

 iter      E             dE          RMSdq      gap      omega  full diag
   1    -63.2677555 -0.632678E+02  0.939E-02    3.23       0.0  T
   2    -63.2677575 -0.198147E-05  0.554E-02    3.22       1.0  T
   3    -63.2677525  0.503660E-05  0.103E-02    3.23       1.5  T
   4    -63.2677583 -0.584853E-05  0.206E-03    3.23       7.5  T
   5    -63.2677584 -0.116940E-06  0.909E-04    3.23      17.0  T
   6    -63.2677584 -0.146506E-08  0.383E-04    3.23      40.3  T
     SCC iter.                  ...        0 min,  0.036 sec
     gradient                   ...        0 min,  0.028 sec
 * total energy  :   -62.1200440 Eh     change       -0.3783752E-03 Eh
   gradient norm :     0.0040680 Eh/α   predicted    -0.3019222E-03 ( -20.21%)
   displ. norm   :     0.2721975 α      lambda       -0.2798355E-03
   maximum displ.:     0.1517688 α      in ANC's #9, #7, #8, ...

........................................................................
.............................. CYCLE    6 ..............................
........................................................................

 iter      E             dE          RMSdq      gap      omega  full diag
   1    -63.2645742 -0.632646E+02  0.808E-02    3.22       0.0  T
   2    -63.2645749 -0.686378E-06  0.473E-02    3.22       1.0  T
   3    -63.2645744  0.488468E-06  0.406E-03    3.22       3.8  T
   4    -63.2645753 -0.817183E-06  0.133E-03    3.22      11.6  T
   5    -63.2645753 -0.486919E-08  0.501E-04    3.22      30.8  T
   6    -63.2645753 -0.999045E-08  0.126E-04    3.22     122.8  T
     SCC iter.                  ...        0 min,  0.013 sec
     gradient                   ...        0 min,  0.044 sec
 * total energy  :   -62.1202560 Eh     change       -0.2120035E-03 Eh
   gradient norm :     0.0042233 Eh/α   predicted    -0.1502868E-03 ( -29.11%)
   displ. norm   :     0.2965456 α      lambda       -0.2602865E-03
   maximum displ.:     0.1532874 α      in ANC's #9, #8, #7, ...

........................................................................
.............................. CYCLE    7 ..............................
........................................................................

 iter      E             dE          RMSdq      gap      omega  full diag
   1    -63.2623216 -0.632623E+02  0.911E-02    3.20       0.0  T
   2    -63.2623226 -0.104810E-05  0.532E-02    3.21       1.0  T
   3    -63.2623215  0.111522E-05  0.564E-03    3.21       2.7  T
   4    -63.2623231 -0.156959E-05  0.151E-03    3.21      10.2  T
   5    -63.2623231 -0.272783E-07  0.699E-04    3.21      22.1  T
   6    -63.2623231 -0.304794E-08  0.244E-04    3.21      63.3  T
     SCC iter.                  ...        0 min,  0.013 sec
     gradient                   ...        0 min,  0.024 sec
 * total energy  :   -62.1204481 Eh     change       -0.1921350E-03 Eh
   gradient norm :     0.0041516 Eh/α   predicted    -0.1415893E-03 ( -26.31%)
   displ. norm   :     0.2530380 α      lambda       -0.1831967E-03
   maximum displ.:     0.1357029 α      in ANC's #8, #9, #3, ...

........................................................................
.............................. CYCLE    8 ..............................
........................................................................

 iter      E             dE          RMSdq      gap      omega  full diag
   1    -63.2628923 -0.632629E+02  0.794E-02    3.19       0.0  T
   2    -63.2628931 -0.755775E-06  0.464E-02    3.19       1.0  T
   3    -63.2628916  0.149641E-05  0.587E-03    3.19       2.6  T
   4    -63.2628935 -0.189485E-05  0.125E-03    3.19      12.4  T
   5    -63.2628935 -0.169724E-07  0.598E-04    3.19      25.8  T
   6    -63.2628935 -0.185448E-08  0.241E-04    3.19      64.1  T
     SCC iter.                  ...        0 min,  0.013 sec
     gradient                   ...        0 min,  0.023 sec
 * total energy  :   -62.1205761 Eh     change       -0.1280182E-03 Eh
   gradient norm :     0.0028797 Eh/α   predicted    -0.9746326E-04 ( -23.87%)
   displ. norm   :     0.1549204 α      lambda       -0.8352983E-04
   maximum displ.:     0.0960761 α      in ANC's #8, #3, #9, ...

........................................................................
.............................. CYCLE    9 ..............................
........................................................................

 iter      E             dE          RMSdq      gap      omega  full diag
   1    -63.2651492 -0.632651E+02  0.498E-02    3.18       0.0  T
   2    -63.2651495 -0.245183E-06  0.292E-02    3.18       1.0  T
   3    -63.2651485  0.937683E-06  0.420E-03    3.19       3.7  T
   4    -63.2651497 -0.111654E-05  0.704E-04    3.19      21.9  T
   5    -63.2651497 -0.210333E-08  0.376E-04    3.19      41.0  T
   6    -63.2651497 -0.266108E-08  0.836E-05    3.19     184.5  T
     SCC iter.                  ...        0 min,  0.013 sec
     gradient                   ...        0 min,  0.023 sec
 * total energy  :   -62.1206350 Eh     change       -0.5883435E-04 Eh
   gradient norm :     0.0016312 Eh/α   predicted    -0.4276849E-04 ( -27.31%)
   displ. norm   :     0.1704962 α      lambda       -0.4296281E-04
   maximum displ.:     0.1141621 α      in ANC's #8, #3, #1, ...

........................................................................
.............................. CYCLE   10 ..............................
........................................................................

 iter      E             dE          RMSdq      gap      omega  full diag
   1    -63.2672714 -0.632673E+02  0.564E-02    3.18       0.0  T
   2    -63.2672718 -0.387493E-06  0.331E-02    3.18       1.0  T
   3    -63.2672704  0.141770E-05  0.525E-03    3.18       2.9  T
   4    -63.2672721 -0.165416E-05  0.847E-04    3.18      18.2  T
   5    -63.2672721 -0.127795E-07  0.430E-04    3.18      35.9  T
   6    -63.2672721 -0.693326E-09  0.153E-04    3.18     100.7  T
     SCC iter.                  ...        0 min,  0.013 sec
     gradient                   ...        0 min,  0.045 sec
 * total energy  :   -62.1206784 Eh     change       -0.4347734E-04 Eh
   gradient norm :     0.0018525 Eh/α   predicted    -0.2176250E-04 ( -49.95%)
   displ. norm   :     0.1236938 α      lambda       -0.2943503E-04
   maximum displ.:     0.0776508 α      in ANC's #8, #3, #6, ...

........................................................................
.............................. CYCLE   11 ..............................
........................................................................

 iter      E             dE          RMSdq      gap      omega  full diag
   1    -63.2671688 -0.632672E+02  0.425E-02    3.17       0.0  T
   2    -63.2671689 -0.173233E-06  0.249E-02    3.17       1.0  T
   3    -63.2671686  0.354927E-06  0.308E-03    3.17       5.0  T
   4    -63.2671690 -0.443237E-06  0.548E-04    3.17      28.1  T
   5    -63.2671690 -0.327542E-08  0.292E-04    3.17      52.9  T
     SCC iter.                  ...        0 min,  0.011 sec
     gradient                   ...        0 min,  0.023 sec
 * total energy  :   -62.1207154 Eh     change       -0.3693722E-04 Eh
   gradient norm :     0.0016267 Eh/α   predicted    -0.1481998E-04 ( -59.88%)
   displ. norm   :     0.1966178 α      lambda       -0.4102024E-04
   maximum displ.:     0.1120389 α      in ANC's #8, #6, #3, ...

........................................................................
.............................. CYCLE   12 ..............................
........................................................................

 iter      E             dE          RMSdq      gap      omega  full diag
   1    -63.2660418 -0.632660E+02  0.682E-02    3.16       0.0  T
   2    -63.2660421 -0.337311E-06  0.400E-02    3.16       1.0  T
   3    -63.2660418  0.327266E-06  0.332E-03    3.16       4.7  T
   4    -63.2660423 -0.498780E-06  0.747E-04    3.16      20.7  T
   5    -63.2660423 -0.119565E-08  0.348E-04    3.16      44.3  T
     SCC iter.                  ...        0 min,  0.011 sec
     gradient                   ...        0 min,  0.049 sec
 * total energy  :   -62.1207573 Eh     change       -0.4194308E-04 Eh
   gradient norm :     0.0013891 Eh/α   predicted    -0.2086441E-04 ( -50.26%)
   displ. norm   :     0.1666861 α      lambda       -0.2160898E-04
   maximum displ.:     0.0920924 α      in ANC's #8, #6, #1, ...

........................................................................
.............................. CYCLE   13 ..............................
........................................................................

 iter      E             dE          RMSdq      gap      omega  full diag
   1    -63.2653836 -0.632654E+02  0.578E-02    3.16       0.0  T
   2    -63.2653840 -0.366783E-06  0.338E-02    3.16       1.0  T
   3    -63.2653837  0.282427E-06  0.307E-03    3.16       5.0  T
   4    -63.2653842 -0.441393E-06  0.806E-04    3.16      19.2  T
   5    -63.2653842 -0.461953E-08  0.395E-04    3.16      39.1  T
     SCC iter.                  ...        0 min,  0.011 sec
     gradient                   ...        0 min,  0.023 sec
 * total energy  :   -62.1207704 Eh     change       -0.1309035E-04 Eh
   gradient norm :     0.0014788 Eh/α   predicted    -0.1093989E-04 ( -16.43%)
   displ. norm   :     0.0383201 α      lambda       -0.7152200E-05
   maximum displ.:     0.0239879 α      in ANC's #1, #8, #6, ...

........................................................................
.............................. CYCLE   14 ..............................
........................................................................

 iter      E             dE          RMSdq      gap      omega  full diag
   1    -63.2657402 -0.632657E+02  0.131E-02    3.16       0.0  T
   2    -63.2657403 -0.445887E-07  0.772E-03    3.16       2.0  T
   3    -63.2657402  0.100265E-06  0.170E-03    3.16       9.1  T
   4    -63.2657403 -0.123616E-06  0.217E-04    3.16      71.2  T
   5    -63.2657403 -0.287329E-09  0.126E-04    3.16     122.3  T
     SCC iter.                  ...        0 min,  0.040 sec
     gradient                   ...        0 min,  0.023 sec
 * total energy  :   -62.1207768 Eh     change       -0.6419991E-05 Eh
   gradient norm :     0.0004419 Eh/α   predicted    -0.3579892E-05 ( -44.24%)
   displ. norm   :     0.0268490 α      lambda       -0.2688615E-05
   maximum displ.:     0.0197400 α      in ANC's #1, #7, #6, ...

........................................................................
.............................. CYCLE   15 ..............................
........................................................................

 iter      E             dE          RMSdq      gap      omega  full diag
   1    -63.2660529 -0.632661E+02  0.664E-03    3.16       0.0  T
   2    -63.2660530 -0.129174E-07  0.386E-03    3.16       4.0  T
   3    -63.2660529  0.206059E-07  0.833E-04    3.16      18.5  T
   4    -63.2660530 -0.274461E-07  0.152E-04    3.16     101.8  T
     SCC iter.                  ...        0 min,  0.009 sec
     gradient                   ...        0 min,  0.050 sec
 * total energy  :   -62.1207803 Eh     change       -0.3479376E-05 Eh
   gradient norm :     0.0003989 Eh/α   predicted    -0.1349281E-05 ( -61.22%)
   displ. norm   :     0.0533895 α      lambda       -0.4845656E-05
   maximum displ.:     0.0353136 α      in ANC's #1, #7, #5, ...

   *** GEOMETRY OPTIMIZATION CONVERGED AFTER 15 ITERATIONS ***

------------------------------------------------------------------------
 total energy gain   :        -0.0088164 Eh       -5.5324 kcal/mol
 total RMSD          :         0.3405086 a0        0.1802 Å
 total power (kW/mol):        -1.5431712 (step)  -27.4062 (real)
------------------------------------------------------------------------

 ANCopt (total)                0 d,  0 h,  0 min,  0.845 sec
 optimizer setup                ...        0 min,  0.000 sec (  0.010%)
 model hessian                  ...        0 min,  0.011 sec (  1.337%)
 ANC generation                 ...        0 min,  0.002 sec (  0.181%)
 coordinate transformation      ...        0 min,  0.000 sec (  0.023%)
 single point calculation       ...        0 min,  0.826 sec ( 97.765%)
 optimization log               ...        0 min,  0.004 sec (  0.458%)
 hessian update                 ...        0 min,  0.000 sec (  0.026%)
 rational function              ...        0 min,  0.001 sec (  0.127%)

================
 final structure:
================
42
 xtb: 6.7.1 (edcfbbe)
N           -2.29761472567126        1.57066676338521        1.39596941292692
C           -1.78518680023849        0.21799449604177        1.43923987134595
C           -0.36174169153427        0.13128661027264        0.92769089687850
C            0.20408971829470        1.12208515474999        0.13792730620104
C            1.50893759371926        1.00544642692800       -0.30311497200839
C            2.27817627403249       -0.10720544326052        0.02514176461495
C            3.66992371333549       -0.22070779185381       -0.43503422957925
C            4.17057613494360       -1.43490753740209       -0.89879340689023
C            5.47950446476938       -1.53650771618474       -1.33177017263157
C            6.31059675636559       -0.42929344733014       -1.30316194790505
C            5.82417306483866        0.78195647018171       -0.84045505486302
C            4.51412528402559        0.88709184343775       -0.41228421205866
C            1.69928760136488       -1.10629734282839        0.80527032618019
C            0.39933150069606       -0.98572255762175        1.25282977716709
C           -2.72243196674916       -0.70278995617625        0.68200492143341
C           -3.87213308755620       -1.16516257879051        1.31009221873329
C           -4.76653049092386       -1.97160905081648        0.62990639753321
C           -4.51990243322534       -2.32373839574487       -0.68625969525344
C           -3.37679949939369       -1.86499176627594       -1.31797030030751
C           -2.48181747839095       -1.05664082455249       -0.63887228286443
C           -2.99609984551490        2.16594244126433        0.38220548314257
C           -3.19712781730788        3.45805587024021        0.77296990906365
N           -2.63357376450988        3.66907558763284        1.99088504977669
C           -2.10450081179746        2.52844720864005        2.33337400011392
H           -1.78350137811440       -0.08475577893045        2.49649077568307
H           -0.37135447199954        1.99484540663323       -0.13475527366239
H            1.93036887428931        1.78080635578488       -0.92562889242925
H            3.52197508050547       -2.29806899931779       -0.93870178392587
H            5.85303912605348       -2.48297594613738       -1.69490839150211
H            7.33345691419987       -0.51007760966092       -1.63985605507474
H            6.46927802565320        1.64795606654735       -0.81170684578831
H            4.14486699707829        1.83000145015752       -0.03580305263782
H            2.28290267174057       -1.97128229482331        1.08382455569681
H           -0.03496551962929       -1.76464450624622        1.86369399602426
H           -4.06867867907303       -0.88783685775966        2.33626039220134
H           -5.65714771795578       -2.32488644076485        1.12810173172929
H           -5.21774795178611       -2.95290602130572       -1.21837856236118
H           -3.18079378864929       -2.13442954534907       -2.34529609513059
H           -1.59187037975993       -0.69951080283026       -1.13678657656033
H           -3.29151853747927        1.63255083311473       -0.49760893973595
H           -3.70865362157751        4.24590951016706        0.25751733974520
H           -1.57321733706836        2.34683071678395        3.24685061697691

 Bond Distances (Angstroems)
 ---------------------------
N1-C2=1.4471         N1-C21=1.3675        N1-C24=1.3540        C2-N1=1.4471         C2-C3=1.5151         C2-C15=1.5165        
C2-H25=1.0997        C3-C2=1.5151         C3-C4=1.3877         C3-C14=1.3902        C4-C3=1.3877         C4-C5=1.3823         
C4-H26=1.0804        C5-C4=1.3823         C5-C6=1.3919         C5-H27=1.0800        C6-C5=1.3919         C6-C7=1.4702         
C6-C13=1.3935        C7-C6=1.4702         C7-C8=1.3928         C7-C12=1.3930        C8-C7=1.3928         C8-C9=1.3824         
C8-H28=1.0804        C9-C8=1.3824         C9-C10=1.3847        C9-H29=1.0804        C10-C9=1.3847        C10-C11=1.3849       
C10-H30=1.0799       C11-C10=1.3849       C11-C12=1.3822       C11-H31=1.0803       C12-C7=1.3930        C12-C11=1.3822       
C12-H32=1.0804       C13-C6=1.3935        C13-C14=1.3801       C13-H33=1.0800       C14-C3=1.3902        C14-C13=1.3801       
C14-H34=1.0810       C15-C2=1.5165        C15-C16=1.3893       C15-C20=1.3885       C16-C15=1.3893       C16-C17=1.3831       
C16-H35=1.0810       C17-C16=1.3831       C17-C18=1.3846       C17-H36=1.0799       C18-C17=1.3846       C18-C19=1.3843       
C18-H37=1.0798       C19-C18=1.3843       C19-C20=1.3841       C19-H38=1.0800       C20-C15=1.3885       C20-C19=1.3841       
C20-H39=1.0805       C21-N1=1.3675        C21-C22=1.3648       C21-H40=1.0704       C22-C21=1.3648       C22-N23=1.3585       
C22-H41=1.0715       N23-C22=1.3585       N23-C24=1.3032       C24-N1=1.3540        C24-N23=1.3032       C24-H42=1.0722       
H25-C2=1.0997        H26-C4=1.0804        H27-C5=1.0800        H28-C8=1.0804        H29-C9=1.0804        H30-C10=1.0799       
H31-C11=1.0803       H32-C12=1.0804       H33-C13=1.0800       H34-C14=1.0810       H35-C16=1.0810       H36-C17=1.0799       
H37-C18=1.0798       H38-C19=1.0800       H39-C20=1.0805       H40-C21=1.0704       H41-C22=1.0715       H42-C24=1.0722       
 C  H  Rav=1.0799 sigma=0.0059  Rmin=1.0704  Rmax=1.0997    18
 C  C  Rav=1.4012 sigma=0.0407  Rmin=1.3648  Rmax=1.5165    22
 N  C  Rav=1.3660 sigma=0.0463  Rmin=1.3032  Rmax=1.4471     5

 selected bond angles (degree)
 --------------------
C21-N1-C2=127.59               C24-N1-C2=126.16               C24-N1-C21=106.15              C3-C2-N1=112.09                
C15-C2-N1=109.50               C15-C2-C3=112.17               H25-C2-N1=106.66               H25-C2-C3=107.90               
H25-C2-C15=108.29              C4-C3-C2=122.30                C14-C3-C2=118.77               C14-C3-C4=118.92               
C5-C4-C3=120.41                H26-C4-C3=120.22               H26-C4-C5=119.37               C6-C5-C4=120.92                
H27-C5-C4=119.45               H27-C5-C6=119.62               C7-C6-C5=120.73                C13-C6-C5=118.40               
C13-C6-C7=120.87               C8-C7-C6=120.78                C12-C7-C6=120.48               C12-C7-C8=118.74               
C9-C8-C7=120.58                H28-C8-C7=119.54               H28-C8-C9=119.88               C10-C9-C8=120.20               
H29-C9-C8=119.80               H29-C9-C10=119.99              C11-C10-C9=119.70              H30-C10-C9=120.15              
H30-C10-C11=120.15             

 selected dihedral angles (degree)
 ---------------------------------
C3-C2-N1-C21= 91.96           C3-C2-N1-C24=276.27           C15-C2-N1-C21=326.81          C15-C2-N1-C24=151.12          
H25-C2-N1-C21=209.85          H25-C2-N1-C24= 34.15          C4-C3-C2-N1=341.12            C4-C3-C2-C15=104.78           
C4-C3-C2-H25=223.98           C14-C3-C2-N1=161.65           C14-C3-C2-C15=285.31          C14-C3-C2-H25= 44.51          
C5-C4-C3-C2=179.74            C5-C4-C3-C14=359.21           H26-C4-C3-C2=  0.00           H26-C4-C3-C14=179.45          
C6-C5-C4-C3=  0.46            C6-C5-C4-H26=180.22           H27-C5-C4-C3=179.36           H27-C5-C4-H26=359.12          
C7-C6-C5-C4=180.61            C7-C6-C5-H27=  1.72           C13-C6-C5-C4=  0.30           C13-C6-C5-H27=181.40          
C8-C7-C6-C5=221.22            C8-C7-C6-C13= 41.55           C12-C7-C6-C5= 41.35           C12-C7-C6-C13=221.67          
C9-C8-C7-C6=179.93            C9-C8-C7-C12=359.81           H28-C8-C7-C6=  1.22           H28-C8-C7-C12=181.10          
C10-C9-C8-C7=  0.28           C10-C9-C8-H28=178.99          H29-C9-C8-C7=180.39           H29-C9-C8-H28=359.10          
C11-C10-C9-C8=359.90          C11-C10-C9-H29=179.80         H30-C10-C9-C8=179.89          H30-C10-C9-H29=359.78         
           -------------------------------------------------
          |                Final Singlepoint                |
           -------------------------------------------------

          ...................................................
          :                      SETUP                      :
          :.................................................:
          :  # basis functions                 114          :
          :  # atomic orbitals                 114          :
          :  # shells                           66          :
          :  # electrons                       116          :
          :  max. iterations                   250          :
          :  Hamiltonian                  GFN2-xTB          :
          :  restarted?                      false          :
          :  GBSA solvation                  false          :
          :  PC potential                    false          :
          :  electronic temp.          300.0000000     K    :
          :  accuracy                    1.0000000          :
          :  -> integral cutoff          0.2500000E+02      :
          :  -> integral neglect         0.1000000E-07      :
          :  -> SCF convergence          0.1000000E-05 Eh   :
          :  -> wf. convergence          0.1000000E-03 e    :
          :  Broyden damping             0.4000000          :
          :  net charge                          0          :
          :  unpaired electrons                  0          :
          ...................................................

 iter      E             dE          RMSdq      gap      omega  full diag
   1    -63.2660530 -0.632661E+02  0.696E-05    3.16       0.0  T
   2    -63.2660530 -0.636362E-10  0.439E-05    3.16     351.4  T
   3    -63.2660530 -0.527294E-10  0.218E-05    3.16     709.0  T

   *** convergence criteria satisfied after 3 iterations ***

         #    Occupation            Energy/Eh            Energy/eV
      -------------------------------------------------------------
         1        2.0000           -0.6784395             -18.4613
       ...           ...                  ...                  ...
        52        2.0000           -0.4145020             -11.2792
        53        2.0000           -0.4125183             -11.2252
        54        2.0000           -0.4091262             -11.1329
        55        2.0000           -0.4076092             -11.0916
        56        2.0000           -0.3897995             -10.6070
        57        2.0000           -0.3789290             -10.3112
        58        2.0000           -0.3679155             -10.0115 (HOMO)
        59                         -0.2519146              -6.8549 (LUMO)
        60                         -0.2381363              -6.4800
        61                         -0.2352460              -6.4014
        62                         -0.2310877              -6.2882
        63                         -0.2256810              -6.1411
       ...                                ...                  ...
       114                          0.6851071              18.6427
      -------------------------------------------------------------
                  HL-Gap            0.1160008 Eh            3.1565 eV
             Fermi-level           -0.3099151 Eh           -8.4332 eV

 SCC (total)                   0 d,  0 h,  0 min,  0.038 sec
 SCC setup                      ...        0 min,  0.000 sec (  0.782%)
 Dispersion                     ...        0 min,  0.000 sec (  0.798%)
 classical contributions        ...        0 min,  0.000 sec (  0.365%)
 integral evaluation            ...        0 min,  0.008 sec ( 19.733%)
 iterations                     ...        0 min,  0.007 sec ( 16.961%)
 molecular gradient             ...        0 min,  0.023 sec ( 60.961%)
 printout                       ...        0 min,  0.000 sec (  0.384%)

         :::::::::::::::::::::::::::::::::::::::::::::::::::::
         ::                     SUMMARY                     ::
         :::::::::::::::::::::::::::::::::::::::::::::::::::::
         :: total energy             -62.120780317443 Eh    ::
         :: gradient norm              0.000399084462 Eh/a0 ::
         :: HOMO-LUMO gap              3.156543430993 eV    ::
         ::.................................................::
         :: SCC energy               -63.265833582608 Eh    ::
         :: -> isotropic ES            0.013790989639 Eh    ::
         :: -> anisotropic ES          0.007027657408 Eh    ::
         :: -> anisotropic XC          0.043519798792 Eh    ::
         :: -> dispersion             -0.049961434721 Eh    ::
         :: repulsion energy           1.145053265165 Eh    ::
         :: add. restraining           0.000000000000 Eh    ::
         :: total charge               0.000000000000 e     ::
         :::::::::::::::::::::::::::::::::::::::::::::::::::::

           -------------------------------------------------
          |                Property Printout                |
           -------------------------------------------------

    * Orbital Energies and Occupations

         #    Occupation            Energy/Eh            Energy/eV
      -------------------------------------------------------------
         1        2.0000           -0.6784395             -18.4613
       ...           ...                  ...                  ...
        46        2.0000           -0.4350288             -11.8377
        47        2.0000           -0.4338879             -11.8067
        48        2.0000           -0.4265602             -11.6073
        49        2.0000           -0.4242049             -11.5432
        50        2.0000           -0.4176391             -11.3645
        51        2.0000           -0.4166858             -11.3386
        52        2.0000           -0.4145020             -11.2792
        53        2.0000           -0.4125183             -11.2252
        54        2.0000           -0.4091262             -11.1329
        55        2.0000           -0.4076092             -11.0916
        56        2.0000           -0.3897995             -10.6070
        57        2.0000           -0.3789290             -10.3112
        58        2.0000           -0.3679155             -10.0115 (HOMO)
        59                         -0.2519146              -6.8549 (LUMO)
        60                         -0.2381363              -6.4800
        61                         -0.2352460              -6.4014
        62                         -0.2310877              -6.2882
        63                         -0.2256810              -6.1411
        64                         -0.2053627              -5.5882
        65                         -0.1945790              -5.2948
        66                         -0.1559248              -4.2429
        67                         -0.1116341              -3.0377
        68                         -0.1087702              -2.9598
        69                         -0.0805476              -2.1918
       ...                                ...                  ...
       114                          0.6851071              18.6427
      -------------------------------------------------------------
                  HL-Gap            0.1160008 Eh            3.1565 eV
             Fermi-level           -0.3099151 Eh           -8.4332 eV

     #   Z          covCN         q      C6AA      α(0)
     1   7 N        2.864    -0.022    21.664     6.913
     2   6 C        3.801     0.033    20.022     6.371
     3   6 C        2.973     0.002    27.987     8.678
     4   6 C        2.920    -0.034    28.848     8.808
     5   6 C        2.925    -0.034    28.838     8.807
     6   6 C        2.977     0.010    27.794     8.648
     7   6 C        2.977     0.010    27.793     8.648
     8   6 C        2.925    -0.034    28.837     8.806
     9   6 C        2.919    -0.029    28.730     8.790
    10   6 C        2.920    -0.030    28.755     8.794
    11   6 C        2.919    -0.029    28.723     8.789
    12   6 C        2.925    -0.033    28.829     8.805
    13   6 C        2.924    -0.033    28.829     8.805
    14   6 C        2.923    -0.037    28.924     8.819
    15   6 C        2.975     0.008    27.834     8.654
    16   6 C        2.924    -0.034    28.840     8.807
    17   6 C        2.919    -0.027    28.682     8.782
    18   6 C        2.920    -0.029    28.715     8.787
    19   6 C        2.920    -0.028    28.704     8.786
    20   6 C        2.922    -0.032    28.790     8.799
    21   6 C        3.047    -0.023    28.545     8.763
    22   6 C        3.166     0.014    27.343     8.545
    23   7 N        1.914    -0.269    27.829     7.822
    24   6 C        3.181     0.080    25.809     8.293
    25   1 H        0.923     0.049     2.333     2.388
    26   1 H        0.926     0.037     2.487     2.466
    27   1 H        0.926     0.037     2.491     2.468
    28   1 H        0.926     0.031     2.575     2.509
    29   1 H        0.926     0.030     2.579     2.511
    30   1 H        0.926     0.031     2.575     2.509
    31   1 H        0.926     0.031     2.567     2.506
    32   1 H        0.926     0.033     2.549     2.497
    33   1 H        0.926     0.036     2.503     2.474
    34   1 H        0.926     0.028     2.610     2.526
    35   1 H        0.926     0.033     2.550     2.497
    36   1 H        0.926     0.037     2.495     2.470
    37   1 H        0.926     0.036     2.505     2.475
    38   1 H        0.926     0.035     2.511     2.478
    39   1 H        0.926     0.035     2.512     2.478
    40   1 H        0.926     0.026     2.643     2.542
    41   1 H        0.926     0.029     2.606     2.524
    42   1 H        0.926     0.027     2.633     2.538

 Mol. C6AA /au·bohr⁶  :      23987.342063
 Mol. C8AA /au·bohr⁸  :     595526.001348
 Mol. α(0) /au        :        249.375953


Wiberg/Mayer (AO) data.
largest (>0.10) Wiberg bond orders for each atom

 ---------------------------------------------------------------------------
     #   Z sym  total        # sym  WBO       # sym  WBO       # sym  WBO
 ---------------------------------------------------------------------------
     1   7 N    3.636 --    24 C    1.248    21 C    1.201     2 C    0.968
                            23 N    0.102
     2   6 C    3.972 --     3 C    0.979    15 C    0.973     1 N    0.968
                            25 H    0.949
     3   6 C    3.982 --     4 C    1.414    14 C    1.399     2 C    0.979
                             6 C    0.102
     4   6 C    3.991 --     5 C    1.448     3 C    1.414    26 H    0.966
                            13 C    0.105
     5   6 C    3.991 --     4 C    1.448     6 C    1.392    27 H    0.968
                            14 C    0.107
     6   6 C    3.988 --     5 C    1.392    13 C    1.382     7 C    1.047
                             3 C    0.102
     7   6 C    3.989 --     8 C    1.390    12 C    1.389     6 C    1.047
                            10 C    0.106
     8   6 C    3.991 --     9 C    1.451     7 C    1.390    28 H    0.969
                            11 C    0.109
     9   6 C    3.992 --     8 C    1.451    10 C    1.435    29 H    0.971
                            12 C    0.109
    10   6 C    3.987 --     9 C    1.435    11 C    1.435    30 H    0.972
                             7 C    0.106
    11   6 C    3.992 --    12 C    1.452    10 C    1.435    31 H    0.971
                             8 C    0.109
    12   6 C    3.991 --    11 C    1.452     7 C    1.389    32 H    0.969
                             9 C    0.109
    13   6 C    3.990 --    14 C    1.462     6 C    1.382    33 H    0.968
                             4 C    0.105
    14   6 C    3.990 --    13 C    1.462     3 C    1.399    34 H    0.969
                             5 C    0.107
    15   6 C    3.986 --    20 C    1.417    16 C    1.413     2 C    0.973
                            18 C    0.110
    16   6 C    3.991 --    17 C    1.446    15 C    1.413    35 H    0.969
                            19 C    0.112
    17   6 C    3.991 --    16 C    1.446    18 C    1.437    36 H    0.971
                            20 C    0.111
    18   6 C    3.990 --    19 C    1.441    17 C    1.437    37 H    0.971
                            15 C    0.110
    19   6 C    3.992 --    20 C    1.442    18 C    1.441    38 H    0.971
                            16 C    0.112
    20   6 C    3.991 --    19 C    1.442    15 C    1.417    39 H    0.967
                            17 C    0.111
    21   6 C    3.943 --    22 C    1.579     1 N    1.201    40 H    0.969
                            24 C    0.114
    22   6 C    3.975 --    21 C    1.579    23 N    1.299    41 H    0.972
    23   7 N    3.026 --    24 C    1.548    22 C    1.299     1 N    0.102
    24   6 C    3.957 --    23 N    1.548     1 N    1.248    42 H    0.965
                            21 C    0.114
    25   1 H    0.997 --     2 C    0.949
    26   1 H    0.998 --     4 C    0.966
    27   1 H    0.998 --     5 C    0.968
    28   1 H    0.999 --     8 C    0.969
    29   1 H    0.999 --     9 C    0.971
    30   1 H    0.999 --    10 C    0.972
    31   1 H    0.998 --    11 C    0.971
    32   1 H    0.999 --    12 C    0.969
    33   1 H    0.998 --    13 C    0.968
    34   1 H    0.999 --    14 C    0.969
    35   1 H    0.999 --    16 C    0.969
    36   1 H    0.998 --    17 C    0.971
    37   1 H    0.998 --    18 C    0.971
    38   1 H    0.998 --    19 C    0.971
    39   1 H    0.999 --    20 C    0.967
    40   1 H    0.999 --    21 C    0.969
    41   1 H    0.999 --    22 C    0.972
    42   1 H    0.999 --    24 C    0.965
 ---------------------------------------------------------------------------

Topologies differ in total number of bonds
Writing topology from bond orders to xtbtopo.mol

molecular dipole:
                 x           y           z       tot (Debye)
 q only:        0.357      -1.228      -0.347
   full:        0.380      -1.647      -0.474       4.461
molecular quadrupole (traceless):
                xx          xy          yy          xz          yz          zz
 q only:        5.964      10.771      -8.097       2.391      -6.765       2.133
  q+dip:       10.051      15.572     -11.749       0.900     -10.379       1.698
   full:        8.971      14.649     -12.725       3.032     -10.972       3.755

           -------------------------------------------------
          |                Geometry Summary                 |
           -------------------------------------------------

      molecular mass/u    :      310.3925297
   center of mass at/Å    :       -0.0691701       0.1270099       0.2541253
  moments of inertia/u·Å² :        0.1140921E+04   0.4068035E+04   0.4853665E+04
rotational constants/cm⁻¹ :        0.1477547E-01   0.4143925E-02   0.3473176E-02

 * 42 selected distances

     #   Z          #   Z                                           value/Å
     1   7 N        2   6 C                                       1.4471273 (max)
     3   6 C        4   6 C                                       1.3876505
     4   6 C        5   6 C                                       1.3822992
     5   6 C        6   6 C                                       1.3919322
     7   6 C        8   6 C                                       1.3928413
     8   6 C        9   6 C                                       1.3824201
     9   6 C       10   6 C                                       1.3847226
    10   6 C       11   6 C                                       1.3848583
     7   6 C       12   6 C                                       1.3929875
    11   6 C       12   6 C                                       1.3822479
     6   6 C       13   6 C                                       1.3935199
     3   6 C       14   6 C                                       1.3902005
    13   6 C       14   6 C                                       1.3801210
    15   6 C       16   6 C                                       1.3892786
    16   6 C       17   6 C                                       1.3830964
    17   6 C       18   6 C                                       1.3845989
    18   6 C       19   6 C                                       1.3842657
    15   6 C       20   6 C                                       1.3884606
    19   6 C       20   6 C                                       1.3840515
     1   7 N       21   6 C                                       1.3674620
    21   6 C       22   6 C                                       1.3647954
    22   6 C       23   7 N                                       1.3584698
     1   7 N       24   6 C                                       1.3540177
    23   7 N       24   6 C                                       1.3031693
     2   6 C       25   1 H                                       1.0997455
     4   6 C       26   1 H                                       1.0803715
     5   6 C       27   1 H                                       1.0799589
     8   6 C       28   1 H                                       1.0804277
     9   6 C       29   1 H                                       1.0803702
    10   6 C       30   1 H                                       1.0798760
    11   6 C       31   1 H                                       1.0802511
    12   6 C       32   1 H                                       1.0803557
    13   6 C       33   1 H                                       1.0799992
    14   6 C       34   1 H                                       1.0809665
    16   6 C       35   1 H                                       1.0810000
    17   6 C       36   1 H                                       1.0799087
    18   6 C       37   1 H                                       1.0798106
    19   6 C       38   1 H                                       1.0800062
    20   6 C       39   1 H                                       1.0804937
    21   6 C       40   1 H                                       1.0704450 (min)
    22   6 C       41   1 H                                       1.0714773
    24   6 C       42   1 H                                       1.0722343

 * 3 distinct bonds (by element types)

   Z      Z             #   av. dist./Å        max./Å        min./Å
   1 H    6 C          18     1.0798721     1.0997455     1.0704450
   6 C    6 C          19     1.3854920     1.3935199     1.3647954
   6 C    7 N           5     1.3660492     1.4471273     1.3031693


optimized geometry written to: xtbopt.xyz


           -------------------------------------------------
          | TOTAL ENERGY              -62.120780317443 Eh   |
          | GRADIENT NORM               0.000399084462 Eh/α |
          | HOMO-LUMO GAP               3.156543430993 eV   |
           -------------------------------------------------

------------------------------------------------------------------------
 * finished run on 2025/05/15 at 16:34:03.331     
------------------------------------------------------------------------
 total:
 * wall-time:     0 d,  0 h,  0 min,  0.956 sec
 *  cpu-time:     0 d,  0 h,  0 min,  0.791 sec
 * ratio c/w:     0.827 speedup
 SCF:
 * wall-time:     0 d,  0 h,  0 min,  0.057 sec
 *  cpu-time:     0 d,  0 h,  0 min,  0.057 sec
 * ratio c/w:     0.995 speedup
 ANC optimizer:
 * wall-time:     0 d,  0 h,  0 min,  0.886 sec
 *  cpu-time:     0 d,  0 h,  0 min,  0.721 sec
 * ratio c/w:     0.814 speedup



----- Single-point -----
      -----------------------------------------------------------      
     |                   =====================                   |     
     |                           x T B                           |     
     |                   =====================                   |     
     |                         S. Grimme                         |     
     |          Mulliken Center for Theoretical Chemistry        |     
     |                    University of Bonn                     |     
      -----------------------------------------------------------      

   * xtb version 6.7.1 (edcfbbe) compiled by 'conda@3ef47c1a292c' on 2024-11-25

   xtb is free software: you can redistribute it and/or modify it under
   the terms of the GNU Lesser General Public License as published by
   the Free Software Foundation, either version 3 of the License, or
   (at your option) any later version.
   
   xtb is distributed in the hope that it will be useful,
   but WITHOUT ANY WARRANTY; without even the implied warranty of
   MERCHANTABILITY or FITNESS FOR A PARTICULAR PURPOSE.  See the
   GNU Lesser General Public License for more details.
   
   Cite this work as:
   * C. Bannwarth, E. Caldeweyher, S. Ehlert, A. Hansen, P. Pracht,
     J. Seibert, S. Spicher, S. Grimme, WIREs Comput. Mol. Sci., 2020, 11,
     e01493. DOI: 10.1002/wcms.1493
   
   for GFN2-xTB:
   * C. Bannwarth, S. Ehlert and S. Grimme., J. Chem. Theory Comput., 2019,
     15, 1652-1671. DOI: 10.1021/acs.jctc.8b01176
   for GFN1-xTB:
   * S. Grimme, C. Bannwarth, P. Shushkov, J. Chem. Theory Comput., 2017,
     13, 1989-2009. DOI: 10.1021/acs.jctc.7b00118
   for GFN0-xTB:
   * P. Pracht, E. Caldeweyher, S. Ehlert, S. Grimme, ChemRxiv, 2019, preprint.
     DOI: 10.26434/chemrxiv.8326202.v1
   for GFN-FF:
   * S. Spicher and S. Grimme, Angew. Chem. Int. Ed., 2020, 59, 15665-15673.
     DOI: 10.1002/anie.202004239
   
   for ALPB and GBSA implicit solvation:
   * S. Ehlert, M. Stahn, S. Spicher, S. Grimme, J. Chem. Theory Comput.,
     2021, 17, 4250-4261. DOI: 10.1021/acs.jctc.1c00471
   
   for ddCOSMO and CPCM-X implicit solvation:
   * M. Stahn, S. Ehlert, S. Grimme, J. Phys. Chem. A,
     2023, XX, XXXX-XXXX. DOI: 10.1021/acs.jpca.3c04382
   
   for DFT-D4:
   * E. Caldeweyher, C. Bannwarth and S. Grimme, J. Chem. Phys., 2017,
     147, 034112. DOI: 10.1063/1.4993215
   * E. Caldeweyher, S. Ehlert, A. Hansen, H. Neugebauer, S. Spicher,
     C. Bannwarth and S. Grimme, J. Chem. Phys., 2019, 150, 154122.
     DOI: 10.1063/1.5090222
   * E. Caldeweyher, J.-M. Mewes, S. Ehlert and S. Grimme, Phys. Chem. Chem. Phys.
     2020, 22, 8499-8512. DOI: 10.1039/D0CP00502A
   
   for sTDA-xTB:
   * S. Grimme and C. Bannwarth, J. Chem. Phys., 2016, 145, 054103.
     DOI: 10.1063/1.4959605
   
   in the mass-spec context:
   * V. Asgeirsson, C. Bauer and S. Grimme, Chem. Sci., 2017, 8, 4879.
     DOI: 10.1039/c7sc00601b
   * J. Koopman and S. Grimme, ACS Omega 2019, 4, 12, 15120-15133.
     DOI: 10.1021/acsomega.9b02011
   
   for metadynamics refer to:
   * S. Grimme, J. Chem. Theory Comput., 2019, 155, 2847-2862
     DOI: 10.1021/acs.jctc.9b00143
   
   for SPH calculations refer to:
   * S. Spicher and S. Grimme, J. Chem. Theory Comput., 2021, 17, 1701-1714
     DOI: 10.1021/acs.jctc.0c01306
   
   for ONIOM refer to:
   * C. Plett, A. Katbashev, S. Ehlert, S. Grimme, M. Bursch,
     Phys. Chem. Chem. Phys., 2023, 25, 17860-17868. DOI: 10.1039/D3CP02178E
   
   for DIPRO refer to:
   * J. Kohn, N. Gildemeister, S. Grimme, D. Fazzi, A. Hansen,
     J. Chem. Phys., 2023, just accepted.
   
   for PTB refer to:
   * S. Grimme, M. Mueller, A. Hansen, J. Chem. Phys., 2023, 158, 124111.
     DOI: 10.1063/5.0137838
   
   with help from (in alphabetical order)
   P. Atkinson, C. Bannwarth, F. Bohle, G. Brandenburg, E. Caldeweyher
   M. Checinski, S. Dohm, S. Ehlert, S. Ehrlich, I. Gerasimov, C. Hölzer
   A. Katbashev, J. Kohn, J. Koopman, C. Lavigne, S. Lehtola, F. März, M. Müller,
   F. Musil, H. Neugebauer, J. Pisarek, C. Plett, P. Pracht, F. Pultar,
   J. Seibert, P. Shushkov, S. Spicher, M. Stahn, M. Steiner, T. Strunk,
   J. Stückrath, T. Rose, and J. Unsleber
   
 * started run on 2025/05/15 at 16:34:03.346     
   ID    Z sym.   atoms
    1    7 N      1, 23
    2    6 C      2-22, 24
    3    1 H      25-42

           -------------------------------------------------
          |                Calculation Setup                |
           -------------------------------------------------

          program call               : xtb /rds/general/user/hgt20/home/callum/QDESCP/Bifonazole_rdkit_conf_6/Bifonazole_rdkit_conf_6.xyz --acc 1 --gfn 2 --chrg 0 --uhf 0 --etemp 300 --input /rds/general/user/hgt20/home/callum/QDESCP/Bifonazole_rdkit_conf_6/Bifonazole_rdkit_conf_6_xtb.inp -P 1
          hostname                   : login-c
          coordinate file            : /rds/general/user/hgt20/home/callum/QDESCP/Bifonazole_rdkit_conf_6/Bifonazole_rdkit_conf_6.xyz
          omp threads                :                     1


           -------------------------------------------------
          |                 G F N 2 - x T B                 |
           -------------------------------------------------

        Reference                      10.1021/acs.jctc.8b01176
      * Hamiltonian:
        H0-scaling (s, p, d)           1.850000    2.230000    2.230000
        zeta-weighting                 0.500000
      * Dispersion:
        s8                             2.700000
        a1                             0.520000
        a2                             5.000000
        s9                             5.000000
      * Repulsion:
        kExp                           1.500000    1.000000
        rExp                           1.000000
      * Coulomb:
        alpha                          2.000000
        third order                    shell-resolved
        anisotropic                    true
        a3                             3.000000
        a5                             4.000000
        cn-shift                       1.200000
        cn-exp                         4.000000
        max-rad                        5.000000

q/qsh data taken from xtbrestart
CAMM data taken from xtbrestart

          ...................................................
          :                      SETUP                      :
          :.................................................:
          :  # basis functions                 114          :
          :  # atomic orbitals                 114          :
          :  # shells                           66          :
          :  # electrons                       116          :
          :  max. iterations                   250          :
          :  Hamiltonian                  GFN2-xTB          :
          :  restarted?                       true          :
          :  GBSA solvation                  false          :
          :  PC potential                    false          :
          :  electronic temp.          300.0000000     K    :
          :  accuracy                    1.0000000          :
          :  -> integral cutoff          0.2500000E+02      :
          :  -> integral neglect         0.1000000E-07      :
          :  -> SCF convergence          0.1000000E-05 Eh   :
          :  -> wf. convergence          0.1000000E-03 e    :
          :  Broyden damping             0.4000000          :
          :  net charge                          0          :
          :  unpaired electrons                  0          :
          ...................................................

 iter      E             dE          RMSdq      gap      omega  full diag
   1    -63.2660530 -0.632661E+02  0.628E-06    3.16       0.0  T
   2    -63.2660530 -0.113687E-11  0.441E-06    3.16    3500.8  T
   3    -63.2660530 -0.852651E-12  0.160E-06    3.16    9639.3  T

   *** convergence criteria satisfied after 3 iterations ***

         #    Occupation            Energy/Eh            Energy/eV
      -------------------------------------------------------------
         1        2.0000           -0.6784395             -18.4613
       ...           ...                  ...                  ...
        52        2.0000           -0.4145020             -11.2792
        53        2.0000           -0.4125183             -11.2252
        54        2.0000           -0.4091261             -11.1329
        55        2.0000           -0.4076092             -11.0916
        56        2.0000           -0.3897994             -10.6070
        57        2.0000           -0.3789290             -10.3112
        58        2.0000           -0.3679155             -10.0115 (HOMO)
        59                         -0.2519146              -6.8549 (LUMO)
        60                         -0.2381363              -6.4800
        61                         -0.2352460              -6.4014
        62                         -0.2310877              -6.2882
        63                         -0.2256810              -6.1411
       ...                                ...                  ...
       114                          0.6851072              18.6427
      -------------------------------------------------------------
                  HL-Gap            0.1160009 Eh            3.1565 eV
             Fermi-level           -0.3099150 Eh           -8.4332 eV

 SCC (total)                   0 d,  0 h,  0 min,  0.055 sec
 SCC setup                      ...        0 min,  0.000 sec (  0.697%)
 Dispersion                     ...        0 min,  0.001 sec (  0.983%)
 classical contributions        ...        0 min,  0.000 sec (  0.266%)
 integral evaluation            ...        0 min,  0.008 sec ( 14.632%)
 iterations                     ...        0 min,  0.020 sec ( 36.461%)
 molecular gradient             ...        0 min,  0.026 sec ( 46.566%)
 printout                       ...        0 min,  0.000 sec (  0.383%)

         :::::::::::::::::::::::::::::::::::::::::::::::::::::
         ::                     SUMMARY                     ::
         :::::::::::::::::::::::::::::::::::::::::::::::::::::
         :: total energy             -62.120780317447 Eh    ::
         :: gradient norm              0.000399079505 Eh/a0 ::
         :: HOMO-LUMO gap              3.156544495351 eV    ::
         ::.................................................::
         :: SCC energy               -63.265833582612 Eh    ::
         :: -> isotropic ES            0.013790965917 Eh    ::
         :: -> anisotropic ES          0.007027636422 Eh    ::
         :: -> anisotropic XC          0.043519801054 Eh    ::
         :: -> dispersion             -0.049961433258 Eh    ::
         :: repulsion energy           1.145053265165 Eh    ::
         :: add. restraining           0.000000000000 Eh    ::
         :: total charge               0.000000000000 e     ::
         :::::::::::::::::::::::::::::::::::::::::::::::::::::

           -------------------------------------------------
          |                Property Printout                |
           -------------------------------------------------

    * Orbital Energies and Occupations

         #    Occupation            Energy/Eh            Energy/eV
      -------------------------------------------------------------
         1        2.0000           -0.6784395             -18.4613
       ...           ...                  ...                  ...
        46        2.0000           -0.4350287             -11.8377
        47        2.0000           -0.4338879             -11.8067
        48        2.0000           -0.4265601             -11.6073
        49        2.0000           -0.4242049             -11.5432
        50        2.0000           -0.4176391             -11.3645
        51        2.0000           -0.4166858             -11.3386
        52        2.0000           -0.4145020             -11.2792
        53        2.0000           -0.4125183             -11.2252
        54        2.0000           -0.4091261             -11.1329
        55        2.0000           -0.4076092             -11.0916
        56        2.0000           -0.3897994             -10.6070
        57        2.0000           -0.3789290             -10.3112
        58        2.0000           -0.3679155             -10.0115 (HOMO)
        59                         -0.2519146              -6.8549 (LUMO)
        60                         -0.2381363              -6.4800
        61                         -0.2352460              -6.4014
        62                         -0.2310877              -6.2882
        63                         -0.2256810              -6.1411
        64                         -0.2053627              -5.5882
        65                         -0.1945790              -5.2948
        66                         -0.1559248              -4.2429
        67                         -0.1116341              -3.0377
        68                         -0.1087702              -2.9598
        69                         -0.0805475              -2.1918
       ...                                ...                  ...
       114                          0.6851072              18.6427
      -------------------------------------------------------------
                  HL-Gap            0.1160009 Eh            3.1565 eV
             Fermi-level           -0.3099150 Eh           -8.4332 eV

     #   Z          covCN         q      C6AA      α(0)
     1   7 N        2.864    -0.022    21.664     6.913
     2   6 C        3.801     0.033    20.022     6.371
     3   6 C        2.973     0.002    27.987     8.678
     4   6 C        2.920    -0.034    28.848     8.808
     5   6 C        2.925    -0.034    28.838     8.807
     6   6 C        2.977     0.010    27.794     8.648
     7   6 C        2.977     0.010    27.793     8.648
     8   6 C        2.925    -0.034    28.837     8.806
     9   6 C        2.919    -0.029    28.730     8.790
    10   6 C        2.920    -0.030    28.755     8.794
    11   6 C        2.919    -0.029    28.723     8.789
    12   6 C        2.925    -0.033    28.829     8.805
    13   6 C        2.924    -0.033    28.829     8.805
    14   6 C        2.923    -0.037    28.924     8.819
    15   6 C        2.975     0.008    27.834     8.654
    16   6 C        2.924    -0.034    28.840     8.807
    17   6 C        2.919    -0.027    28.682     8.782
    18   6 C        2.920    -0.029    28.715     8.787
    19   6 C        2.920    -0.028    28.704     8.786
    20   6 C        2.922    -0.032    28.790     8.799
    21   6 C        3.047    -0.023    28.545     8.763
    22   6 C        3.166     0.014    27.343     8.545
    23   7 N        1.914    -0.269    27.829     7.822
    24   6 C        3.181     0.080    25.809     8.293
    25   1 H        0.923     0.049     2.333     2.388
    26   1 H        0.926     0.037     2.487     2.466
    27   1 H        0.926     0.037     2.491     2.468
    28   1 H        0.926     0.031     2.575     2.509
    29   1 H        0.926     0.030     2.579     2.511
    30   1 H        0.926     0.031     2.575     2.509
    31   1 H        0.926     0.031     2.567     2.506
    32   1 H        0.926     0.033     2.549     2.497
    33   1 H        0.926     0.036     2.503     2.474
    34   1 H        0.926     0.028     2.610     2.526
    35   1 H        0.926     0.033     2.550     2.497
    36   1 H        0.926     0.037     2.495     2.470
    37   1 H        0.926     0.036     2.505     2.475
    38   1 H        0.926     0.035     2.511     2.478
    39   1 H        0.926     0.035     2.512     2.478
    40   1 H        0.926     0.026     2.643     2.542
    41   1 H        0.926     0.029     2.606     2.524
    42   1 H        0.926     0.027     2.633     2.538

 Mol. C6AA /au·bohr⁶  :      23987.342059
 Mol. C8AA /au·bohr⁸  :     595526.001459
 Mol. α(0) /au        :        249.375953


Wiberg/Mayer (AO) data.
largest (>0.10) Wiberg bond orders for each atom

 ---------------------------------------------------------------------------
     #   Z sym  total        # sym  WBO       # sym  WBO       # sym  WBO
 ---------------------------------------------------------------------------
     1   7 N    3.636 --    24 C    1.248    21 C    1.201     2 C    0.968
                            23 N    0.102
     2   6 C    3.972 --     3 C    0.979    15 C    0.973     1 N    0.968
                            25 H    0.949
     3   6 C    3.982 --     4 C    1.414    14 C    1.399     2 C    0.979
                             6 C    0.102
     4   6 C    3.991 --     5 C    1.448     3 C    1.414    26 H    0.966
                            13 C    0.105
     5   6 C    3.991 --     4 C    1.448     6 C    1.392    27 H    0.968
                            14 C    0.107
     6   6 C    3.988 --     5 C    1.392    13 C    1.382     7 C    1.047
                             3 C    0.102
     7   6 C    3.989 --     8 C    1.390    12 C    1.389     6 C    1.047
                            10 C    0.106
     8   6 C    3.991 --     9 C    1.451     7 C    1.390    28 H    0.969
                            11 C    0.109
     9   6 C    3.992 --     8 C    1.451    10 C    1.435    29 H    0.971
                            12 C    0.109
    10   6 C    3.987 --     9 C    1.435    11 C    1.435    30 H    0.972
                             7 C    0.106
    11   6 C    3.992 --    12 C    1.452    10 C    1.435    31 H    0.971
                             8 C    0.109
    12   6 C    3.991 --    11 C    1.452     7 C    1.389    32 H    0.969
                             9 C    0.109
    13   6 C    3.990 --    14 C    1.462     6 C    1.382    33 H    0.968
                             4 C    0.105
    14   6 C    3.990 --    13 C    1.462     3 C    1.399    34 H    0.969
                             5 C    0.107
    15   6 C    3.986 --    20 C    1.417    16 C    1.413     2 C    0.973
                            18 C    0.110
    16   6 C    3.991 --    17 C    1.446    15 C    1.413    35 H    0.969
                            19 C    0.112
    17   6 C    3.991 --    16 C    1.446    18 C    1.437    36 H    0.971
                            20 C    0.111
    18   6 C    3.990 --    19 C    1.441    17 C    1.437    37 H    0.971
                            15 C    0.110
    19   6 C    3.992 --    20 C    1.442    18 C    1.441    38 H    0.971
                            16 C    0.112
    20   6 C    3.991 --    19 C    1.442    15 C    1.417    39 H    0.967
                            17 C    0.111
    21   6 C    3.943 --    22 C    1.579     1 N    1.201    40 H    0.969
                            24 C    0.114
    22   6 C    3.975 --    21 C    1.579    23 N    1.299    41 H    0.972
    23   7 N    3.026 --    24 C    1.548    22 C    1.299     1 N    0.102
    24   6 C    3.957 --    23 N    1.548     1 N    1.248    42 H    0.965
                            21 C    0.114
    25   1 H    0.997 --     2 C    0.949
    26   1 H    0.998 --     4 C    0.966
    27   1 H    0.998 --     5 C    0.968
    28   1 H    0.999 --     8 C    0.969
    29   1 H    0.999 --     9 C    0.971
    30   1 H    0.999 --    10 C    0.972
    31   1 H    0.998 --    11 C    0.971
    32   1 H    0.999 --    12 C    0.969
    33   1 H    0.998 --    13 C    0.968
    34   1 H    0.999 --    14 C    0.969
    35   1 H    0.999 --    16 C    0.969
    36   1 H    0.998 --    17 C    0.971
    37   1 H    0.998 --    18 C    0.971
    38   1 H    0.998 --    19 C    0.971
    39   1 H    0.999 --    20 C    0.967
    40   1 H    0.999 --    21 C    0.969
    41   1 H    0.999 --    22 C    0.972
    42   1 H    0.999 --    24 C    0.965
 ---------------------------------------------------------------------------

Topologies differ in total number of bonds
Writing topology from bond orders to xtbtopo.mol

molecular dipole:
                 x           y           z       tot (Debye)
 q only:        0.357      -1.228      -0.347
   full:        0.380      -1.647      -0.474       4.461
molecular quadrupole (traceless):
                xx          xy          yy          xz          yz          zz
 q only:        5.964      10.771      -8.097       2.391      -6.765       2.133
  q+dip:       10.051      15.572     -11.749       0.900     -10.379       1.698
   full:        8.971      14.649     -12.725       3.032     -10.972       3.755


           -------------------------------------------------
          | TOTAL ENERGY              -62.120780317447 Eh   |
          | GRADIENT NORM               0.000399079505 Eh/α |
          | HOMO-LUMO GAP               3.156544495351 eV   |
           -------------------------------------------------

------------------------------------------------------------------------
 * finished run on 2025/05/15 at 16:34:03.415     
------------------------------------------------------------------------
 total:
 * wall-time:     0 d,  0 h,  0 min,  0.068 sec
 *  cpu-time:     0 d,  0 h,  0 min,  0.055 sec
 * ratio c/w:     0.811 speedup
 SCF:
 * wall-time:     0 d,  0 h,  0 min,  0.055 sec
 *  cpu-time:     0 d,  0 h,  0 min,  0.043 sec
 * ratio c/w:     0.777 speedup



----- FOD -----
      -----------------------------------------------------------      
     |                   =====================                   |     
     |                           x T B                           |     
     |                   =====================                   |     
     |                         S. Grimme                         |     
[...]
     2021, 17, 4250-4261. DOI: 10.1021/acs.jctc.1c00471
   
   for ddCOSMO and CPCM-X implicit solvation:
   * M. Stahn, S. Ehlert, S. Grimme, J. Phys. Chem. A,
     2023, XX, XXXX-XXXX. DOI: 10.1021/acs.jpca.3c04382
   
   for DFT-D4:
   * E. Caldeweyher, C. Bannwarth and S. Grimme, J. Chem. Phys., 2017,
     147, 034112. DOI: 10.1063/1.4993215
   * E. Caldeweyher, S. Ehlert, A. Hansen, H. Neugebauer, S. Spicher,
     C. Bannwarth and S. Grimme, J. Chem. Phys., 2019, 150, 154122.
     DOI: 10.1063/1.5090222
   * E. Caldeweyher, J.-M. Mewes, S. Ehlert and S. Grimme, Phys. Chem. Chem. Phys.
     2020, 22, 8499-8512. DOI: 10.1039/D0CP00502A
   
   for sTDA-xTB:
   * S. Grimme and C. Bannwarth, J. Chem. Phys., 2016, 145, 054103.
     DOI: 10.1063/1.4959605
   
   in the mass-spec context:
   * V. Asgeirsson, C. Bauer and S. Grimme, Chem. Sci., 2017, 8, 4879.
     DOI: 10.1039/c7sc00601b
   * J. Koopman and S. Grimme, ACS Omega 2019, 4, 12, 15120-15133.
     DOI: 10.1021/acsomega.9b02011
   
   for metadynamics refer to:
   * S. Grimme, J. Chem. Theory Comput., 2019, 155, 2847-2862
     DOI: 10.1021/acs.jctc.9b00143
   
   for SPH calculations refer to:
   * S. Spicher and S. Grimme, J. Chem. Theory Comput., 2021, 17, 1701-1714
     DOI: 10.1021/acs.jctc.0c01306
   
   for ONIOM refer to:
   * C. Plett, A. Katbashev, S. Ehlert, S. Grimme, M. Bursch,
     Phys. Chem. Chem. Phys., 2023, 25, 17860-17868. DOI: 10.1039/D3CP02178E
   
   for DIPRO refer to:
   * J. Kohn, N. Gildemeister, S. Grimme, D. Fazzi, A. Hansen,
     J. Chem. Phys., 2023, just accepted.
   
   for PTB refer to:
   * S. Grimme, M. Mueller, A. Hansen, J. Chem. Phys., 2023, 158, 124111.
     DOI: 10.1063/5.0137838
   
   with help from (in alphabetical order)
   P. Atkinson, C. Bannwarth, F. Bohle, G. Brandenburg, E. Caldeweyher
   M. Checinski, S. Dohm, S. Ehlert, S. Ehrlich, I. Gerasimov, C. Hölzer
   A. Katbashev, J. Kohn, J. Koopman, C. Lavigne, S. Lehtola, F. März, M. Müller,
   F. Musil, H. Neugebauer, J. Pisarek, C. Plett, P. Pracht, F. Pultar,
   J. Seibert, P. Shushkov, S. Spicher, M. Stahn, M. Steiner, T. Strunk,
   J. Stückrath, T. Rose, and J. Unsleber
   
 * started run on 2025/05/15 at 16:34:05.225     
   ID    Z sym.   atoms
    1    7 N      1, 23
    2    6 C      2-22, 24
    3    1 H      25-42

           -------------------------------------------------
          |                Calculation Setup                |
           -------------------------------------------------

          program call               : xtb /rds/general/user/hgt20/home/callum/QDESCP/Bifonazole_rdkit_conf_6/Bifonazole_rdkit_conf_6.xyz --acc 1 --gfn 2 --chrg 0 --uhf 2 --etemp 300 --input /rds/general/user/hgt20/home/callum/QDESCP/Bifonazole_rdkit_conf_6/Bifonazole_rdkit_conf_6_xtb.inp -P 1
          hostname                   : login-c
          coordinate file            : /rds/general/user/hgt20/home/callum/QDESCP/Bifonazole_rdkit_conf_6/Bifonazole_rdkit_conf_6.xyz
          omp threads                :                     1


           -------------------------------------------------
          |                 G F N 2 - x T B                 |
           -------------------------------------------------

        Reference                      10.1021/acs.jctc.8b01176
      * Hamiltonian:
        H0-scaling (s, p, d)           1.850000    2.230000    2.230000
        zeta-weighting                 0.500000
      * Dispersion:
        s8                             2.700000
        a1                             0.520000
        a2                             5.000000
        s9                             5.000000
      * Repulsion:
        kExp                           1.500000    1.000000
        rExp                           1.000000
      * Coulomb:
        alpha                          2.000000
        third order                    shell-resolved
        anisotropic                    true
        a3                             3.000000
        a5                             4.000000
        cn-shift                       1.200000
        cn-exp                         4.000000
        max-rad                        5.000000


          ...................................................
          :                      SETUP                      :
          :.................................................:
          :  # basis functions                 114          :
          :  # atomic orbitals                 114          :
          :  # shells                           66          :
          :  # electrons                       116          :
          :  max. iterations                   250          :
          :  Hamiltonian                  GFN2-xTB          :
          :  restarted?                      false          :
          :  GBSA solvation                  false          :
          :  PC potential                    false          :
          :  electronic temp.          300.0000000     K    :
          :  accuracy                    1.0000000          :
          :  -> integral cutoff          0.2500000E+02      :
          :  -> integral neglect         0.1000000E-07      :
          :  -> SCF convergence          0.1000000E-05 Eh   :
          :  -> wf. convergence          0.1000000E-03 e    :
          :  Broyden damping             0.4000000          :
          :  net charge                          0          :
          :  unpaired electrons                  2          :
          ...................................................

 iter      E             dE          RMSdq      gap      omega  full diag
   1    -62.9890609 -0.629891E+02  0.383E+00    0.55       0.0  T
   2    -62.8262823  0.162779E+00  0.315E+00    0.15       1.0  T
   3    -62.7295061  0.967762E-01  0.264E+00    0.61       1.0  T
   4    -62.8803605 -0.150854E+00  0.178E+00    0.14       1.0  T
   5    -63.1004975 -0.220137E+00  0.855E-01    0.16       1.0  T
   6    -63.1181794 -0.176820E-01  0.556E-01    0.26       1.0  T
   7    -63.1177376  0.441852E-03  0.508E-01    0.26       1.0  T
   8    -63.1240180 -0.628045E-02  0.354E-01    0.32       1.0  T
   9    -63.1093368  0.146812E-01  0.432E-01    0.35       1.0  T
  10    -63.1260273 -0.166904E-01  0.222E-01    0.27       1.0  T
  11    -63.1272546 -0.122733E-02  0.171E-01    0.26       1.0  T
  12    -63.1284261 -0.117148E-02  0.120E-01    0.26       1.0  T
  13    -63.1292824 -0.856290E-03  0.687E-02    0.26       1.0  T
  14    -63.1295908 -0.308440E-03  0.366E-02    0.26       1.0  T
  15    -63.1296963 -0.105516E-03  0.998E-03    0.26       1.5  T
  16    -63.1296997 -0.335015E-05  0.822E-03    0.26       1.9  T
  17    -63.1297056 -0.588283E-05  0.108E-03    0.26      14.3  T
  18    -63.1297053  0.255316E-06  0.192E-03    0.26       8.1  T
  19    -63.1297056 -0.307227E-06  0.585E-04    0.26      26.4  T
  20    -63.1297056 -0.282989E-07  0.154E-04    0.26     100.5  T

   *** convergence criteria satisfied after 20 iterations ***

         #    Occupation            Energy/Eh            Energy/eV
      -------------------------------------------------------------
         1        2.0000           -0.6908862             -18.8000
       ...           ...                  ...                  ...
        53        2.0000           -0.4092074             -11.1351
        54        2.0000           -0.4069851             -11.0746
        55        2.0000           -0.4026451             -10.9565
        56        1.9984           -0.3921620             -10.6713
        57        1.9298           -0.3885263             -10.5723
        58        1.0718           -0.3836406             -10.4394
        59        0.9933           -0.2454687              -6.6795 (HOMO)
        60        0.0064           -0.2359400              -6.4203 (LUMO)
        61        0.0003           -0.2330057              -6.3404
        62                         -0.2249358              -6.1208
        63                         -0.2206120              -6.0032
        64                         -0.2077095              -5.6521
       ...                                ...                  ...
       114                          0.6908357              18.7986
      -------------------------------------------------------------
                  HL-Gap            0.0095287 Eh            0.2593 eV
             Fermi-level           -0.3133987 Eh           -8.5280 eV

 transition dipole moment (au) for excitation:          58          59
     X       Y       Z   
  -2.0247   0.1764   0.6311  total (au/Debye):    2.128   5.409
 dE (eV)             :    3.760
 oscillator strength :  0.58999E+00

 SCC (total)                   0 d,  0 h,  0 min,  0.090 sec
 SCC setup                      ...        0 min,  0.000 sec (  0.413%)
 Dispersion                     ...        0 min,  0.000 sec (  0.552%)
 classical contributions        ...        0 min,  0.000 sec (  0.163%)
 integral evaluation            ...        0 min,  0.008 sec (  8.804%)
 iterations                     ...        0 min,  0.048 sec ( 53.779%)
 molecular gradient             ...        0 min,  0.026 sec ( 28.470%)
 printout                       ...        0 min,  0.007 sec (  7.810%)

         :::::::::::::::::::::::::::::::::::::::::::::::::::::
         ::                     SUMMARY                     ::
         :::::::::::::::::::::::::::::::::::::::::::::::::::::
         :: total energy             -61.984432982268 Eh    ::
         :: gradient norm              0.158562184365 Eh/a0 ::
         :: HOMO-LUMO gap              0.259289679637 eV    ::
         ::.................................................::
         :: SCC energy               -63.129486247433 Eh    ::
         :: -> isotropic ES            0.011148339747 Eh    ::
         :: -> anisotropic ES          0.007925281395 Eh    ::
         :: -> anisotropic XC          0.041379276401 Eh    ::
         :: -> dispersion             -0.049988227129 Eh    ::
         :: repulsion energy           1.145053265165 Eh    ::
         :: add. restraining           0.000000000000 Eh    ::
         :: total charge              -0.000000000000 e     ::
         :::::::::::::::::::::::::::::::::::::::::::::::::::::

           -------------------------------------------------
          |                Property Printout                |
           -------------------------------------------------

    * Orbital Energies and Occupations

         #    Occupation            Energy/Eh            Energy/eV
      -------------------------------------------------------------
         1        2.0000           -0.6908862             -18.8000
       ...           ...                  ...                  ...
        47        2.0000           -0.4297722             -11.6947
        48        2.0000           -0.4231550             -11.5146
        49        2.0000           -0.4215838             -11.4719
        50        2.0000           -0.4154876             -11.3060
        51        2.0000           -0.4147730             -11.2865
        52        2.0000           -0.4128917             -11.2354
        53        2.0000           -0.4092074             -11.1351
        54        2.0000           -0.4069851             -11.0746
        55        2.0000           -0.4026451             -10.9565
        56        1.9984           -0.3921620             -10.6713
        57        1.9298           -0.3885263             -10.5723
        58        1.0718           -0.3836406             -10.4394
        59        0.9933           -0.2454687              -6.6795 (HOMO)
        60        0.0064           -0.2359400              -6.4203 (LUMO)
        61        0.0003           -0.2330057              -6.3404
        62                         -0.2249358              -6.1208
        63                         -0.2206120              -6.0032
        64                         -0.2077095              -5.6521
        65                         -0.1988666              -5.4114
        66                         -0.1711493              -4.6572
        67                         -0.1072679              -2.9189
        68                         -0.1050602              -2.8588
        69                         -0.0742399              -2.0202
        70                          0.0129937               0.3536
       ...                                ...                  ...
       114                          0.6908357              18.7986
      -------------------------------------------------------------
                  HL-Gap            0.0095287 Eh            0.2593 eV
             Fermi-level           -0.3133987 Eh           -8.5280 eV

     #   Z          covCN         q      C6AA      α(0)
     1   7 N        2.864    -0.011    21.468     6.881
     2   6 C        3.801     0.032    20.032     6.372
     3   6 C        2.973    -0.008    28.224     8.714
     4   6 C        2.920    -0.037    28.931     8.820
     5   6 C        2.925    -0.034    28.857     8.809
     6   6 C        2.977     0.001    27.994     8.679
     7   6 C        2.977     0.008    27.830     8.653
     8   6 C        2.925    -0.034    28.845     8.808
     9   6 C        2.919    -0.030    28.743     8.792
    10   6 C        2.920    -0.031    28.781     8.798
    11   6 C        2.919    -0.030    28.742     8.792
    12   6 C        2.925    -0.034    28.837     8.806
    13   6 C        2.924    -0.034    28.839     8.807
    14   6 C        2.923    -0.039    28.972     8.827
    15   6 C        2.975     0.005    27.915     8.667
    16   6 C        2.924    -0.037    28.915     8.818
    17   6 C        2.919    -0.028    28.696     8.785
    18   6 C        2.920    -0.031    28.781     8.798
    19   6 C        2.920    -0.030    28.746     8.792
    20   6 C        2.922    -0.032    28.795     8.800
    21   6 C        3.047    -0.019    28.426     8.744
    22   6 C        3.166     0.015    27.337     8.544
    23   7 N        1.914    -0.235    26.991     7.703
    24   6 C        3.181     0.081    25.796     8.291
    25   1 H        0.923     0.054     2.268     2.355
    26   1 H        0.926     0.028     2.620     2.531
    27   1 H        0.926     0.032     2.556     2.500
    28   1 H        0.926     0.029     2.601     2.522
    29   1 H        0.926     0.028     2.618     2.530
    30   1 H        0.926     0.027     2.632     2.537
    31   1 H        0.926     0.028     2.611     2.527
    32   1 H        0.926     0.030     2.586     2.515
    33   1 H        0.926     0.032     2.556     2.500
    34   1 H        0.926     0.023     2.687     2.563
    35   1 H        0.926     0.029     2.601     2.522
    36   1 H        0.926     0.035     2.523     2.484
    37   1 H        0.926     0.034     2.534     2.489
    38   1 H        0.926     0.034     2.526     2.486
    39   1 H        0.926     0.036     2.506     2.475
    40   1 H        0.926     0.038     2.474     2.460
    41   1 H        0.926     0.038     2.474     2.460
    42   1 H        0.926     0.038     2.481     2.463

 Mol. C6AA /au·bohr⁶  :      23993.399858
 Mol. C8AA /au·bohr⁸  :     595679.702141
 Mol. α(0) /au        :        249.420199


Wiberg/Mayer (AO) data.
largest (>0.10) Wiberg bond orders for each atom

 ---------------------------------------------------------------------------
     #   Z sym  total        # sym  WBO       # sym  WBO       # sym  WBO
 ---------------------------------------------------------------------------
     1   7 N    3.639 --    24 C    1.256    21 C    1.209     2 C    0.963
     2   6 C    3.959 --     3 C    0.989     1 N    0.963    15 C    0.962
                            25 H    0.941
     3   6 C    3.801 --     4 C    1.267    14 C    1.246     2 C    0.989
     4   6 C    3.965 --     5 C    1.569     3 C    1.267    26 H    0.967
     5   6 C    3.950 --     4 C    1.569     6 C    1.183    27 H    0.969
     6   6 C    3.884 --     7 C    1.235    13 C    1.187     5 C    1.183
     7   6 C    3.891 --     6 C    1.235    12 C    1.201     8 C    1.201
     8   6 C    3.950 --     9 C    1.552     7 C    1.201    28 H    0.969
     9   6 C    3.965 --     8 C    1.552    10 C    1.310    29 H    0.970
    10   6 C    3.794 --     9 C    1.310    11 C    1.309    30 H    0.972
    11   6 C    3.965 --    12 C    1.553    10 C    1.309    31 H    0.970
    12   6 C    3.950 --    11 C    1.553     7 C    1.201    32 H    0.969
    13   6 C    3.957 --    14 C    1.584     6 C    1.187    33 H    0.968
    14   6 C    3.958 --    13 C    1.584     3 C    1.246    34 H    0.969
    15   6 C    3.956 --    20 C    1.407    16 C    1.399     2 C    0.962
                            18 C    0.101
    16   6 C    3.978 --    17 C    1.449    15 C    1.399    35 H    0.969
                            19 C    0.107
    17   6 C    3.988 --    16 C    1.449    18 C    1.432    36 H    0.971
                            20 C    0.109
    18   6 C    3.968 --    17 C    1.432    19 C    1.428    37 H    0.971
                            15 C    0.101
    19   6 C    3.983 --    20 C    1.447    18 C    1.428    38 H    0.970
                            16 C    0.107
    20   6 C    3.984 --    19 C    1.447    15 C    1.407    39 H    0.966
                            17 C    0.109
    21   6 C    3.933 --    22 C    1.570     1 N    1.209    40 H    0.968
                            24 C    0.106
    22   6 C    3.959 --    21 C    1.570    23 N    1.294    41 H    0.970
    23   7 N    3.005 --    24 C    1.533    22 C    1.294
    24   6 C    3.948 --    23 N    1.533     1 N    1.256    42 H    0.964
                            21 C    0.106
    25   1 H    0.989 --     2 C    0.941
    26   1 H    0.999 --     4 C    0.967
    27   1 H    0.999 --     5 C    0.969
    28   1 H    0.999 --     8 C    0.969
    29   1 H    0.999 --     9 C    0.970
    30   1 H    0.999 --    10 C    0.972
    31   1 H    0.999 --    11 C    0.970
    32   1 H    0.999 --    12 C    0.969
    33   1 H    0.998 --    13 C    0.968
    34   1 H    0.999 --    14 C    0.969
    35   1 H    0.999 --    16 C    0.969
    36   1 H    0.998 --    17 C    0.971
    37   1 H    0.998 --    18 C    0.971
    38   1 H    0.998 --    19 C    0.970
    39   1 H    0.999 --    20 C    0.966
    40   1 H    0.997 --    21 C    0.968
    41   1 H    0.997 --    22 C    0.970
    42   1 H    0.998 --    24 C    0.964
 ---------------------------------------------------------------------------

Topologies differ in total number of bonds
Writing topology from bond orders to xtbtopo.mol

molecular dipole:
                 x           y           z       tot (Debye)
 q only:       -0.185      -0.730      -0.120
   full:       -0.168      -1.085      -0.209       2.841
molecular quadrupole (traceless):
                xx          xy          yy          xz          yz          zz
 q only:        3.087       6.647      -5.665       1.663      -4.722       2.578
  q+dip:        7.644      10.918      -9.809      -0.479      -7.469       2.165
   full:        6.109      10.047     -10.185       1.735      -8.209       4.076


           -------------------------------------------------
          | TOTAL ENERGY              -61.984432982268 Eh   |
          | GRADIENT NORM               0.158562184365 Eh/α |
          | HOMO-LUMO GAP               0.259289679637 eV   |
           -------------------------------------------------

------------------------------------------------------------------------
 * finished run on 2025/05/15 at 16:34:05.328     
------------------------------------------------------------------------
 total:
 * wall-time:     0 d,  0 h,  0 min,  0.103 sec
 *  cpu-time:     0 d,  0 h,  0 min,  0.097 sec
 * ratio c/w:     0.942 speedup
 SCF:
 * wall-time:     0 d,  0 h,  0 min,  0.090 sec
 *  cpu-time:     0 d,  0 h,  0 min,  0.086 sec
 * ratio c/w:     0.950 speedup


