----- Optimization -----
      -----------------------------------------------------------      
     |                   =====================                   |     
     |                           x T B                           |     
     |                   =====================                   |     
     |                         S. Grimme                         |     
     |          Mulliken Center for Theoretical Chemistry        |     
     |                    University of Bonn                     |     
      -----------------------------------------------------------      

   * xtb version 6.7.1 (edcfbbe) compiled by 'conda@3ef47c1a292c' on 2024-11-25

   xtb is free software: you can redistribute it and/or modify it under
   the terms of the GNU Lesser General Public License as published by
   the Free Software Foundation, either version 3 of the License, or
   (at your option) any later version.
   
   xtb is distributed in the hope that it will be useful,
   but WITHOUT ANY WARRANTY; without even the implied warranty of
   MERCHANTABILITY or FITNESS FOR A PARTICULAR PURPOSE.  See the
   GNU Lesser General Public License for more details.
   
   Cite this work as:
   * C. Bannwarth, E. Caldeweyher, S. Ehlert, A. Hansen, P. Pracht,
     J. Seibert, S. Spicher, S. Grimme, WIREs Comput. Mol. Sci., 2020, 11,
     e01493. DOI: 10.1002/wcms.1493
   
   for GFN2-xTB:
   * C. Bannwarth, S. Ehlert and S. Grimme., J. Chem. Theory Comput., 2019,
     15, 1652-1671. DOI: 10.1021/acs.jctc.8b01176
   for GFN1-xTB:
   * S. Grimme, C. Bannwarth, P. Shushkov, J. Chem. Theory Comput., 2017,
     13, 1989-2009. DOI: 10.1021/acs.jctc.7b00118
   for GFN0-xTB:
   * P. Pracht, E. Caldeweyher, S. Ehlert, S. Grimme, ChemRxiv, 2019, preprint.
     DOI: 10.26434/chemrxiv.8326202.v1
   for GFN-FF:
   * S. Spicher and S. Grimme, Angew. Chem. Int. Ed., 2020, 59, 15665-15673.
     DOI: 10.1002/anie.202004239
   
   for ALPB and GBSA implicit solvation:
   * S. Ehlert, M. Stahn, S. Spicher, S. Grimme, J. Chem. Theory Comput.,
     2021, 17, 4250-4261. DOI: 10.1021/acs.jctc.1c00471
   
   for ddCOSMO and CPCM-X implicit solvation:
   * M. Stahn, S. Ehlert, S. Grimme, J. Phys. Chem. A,
     2023, XX, XXXX-XXXX. DOI: 10.1021/acs.jpca.3c04382
   
   for DFT-D4:
   * E. Caldeweyher, C. Bannwarth and S. Grimme, J. Chem. Phys., 2017,
     147, 034112. DOI: 10.1063/1.4993215
   * E. Caldeweyher, S. Ehlert, A. Hansen, H. Neugebauer, S. Spicher,
     C. Bannwarth and S. Grimme, J. Chem. Phys., 2019, 150, 154122.
     DOI: 10.1063/1.5090222
   * E. Caldeweyher, J.-M. Mewes, S. Ehlert and S. Grimme, Phys. Chem. Chem. Phys.
     2020, 22, 8499-8512. DOI: 10.1039/D0CP00502A
   
   for sTDA-xTB:
   * S. Grimme and C. Bannwarth, J. Chem. Phys., 2016, 145, 054103.
     DOI: 10.1063/1.4959605
   
   in the mass-spec context:
   * V. Asgeirsson, C. Bauer and S. Grimme, Chem. Sci., 2017, 8, 4879.
     DOI: 10.1039/c7sc00601b
   * J. Koopman and S. Grimme, ACS Omega 2019, 4, 12, 15120-15133.
     DOI: 10.1021/acsomega.9b02011
   
   for metadynamics refer to:
   * S. Grimme, J. Chem. Theory Comput., 2019, 155, 2847-2862
     DOI: 10.1021/acs.jctc.9b00143
   
   for SPH calculations refer to:
   * S. Spicher and S. Grimme, J. Chem. Theory Comput., 2021, 17, 1701-1714
     DOI: 10.1021/acs.jctc.0c01306
   
   for ONIOM refer to:
   * C. Plett, A. Katbashev, S. Ehlert, S. Grimme, M. Bursch,
     Phys. Chem. Chem. Phys., 2023, 25, 17860-17868. DOI: 10.1039/D3CP02178E
   
   for DIPRO refer to:
   * J. Kohn, N. Gildemeister, S. Grimme, D. Fazzi, A. Hansen,
     J. Chem. Phys., 2023, just accepted.
   
   for PTB refer to:
   * S. Grimme, M. Mueller, A. Hansen, J. Chem. Phys., 2023, 158, 124111.
     DOI: 10.1063/5.0137838
   
   with help from (in alphabetical order)
   P. Atkinson, C. Bannwarth, F. Bohle, G. Brandenburg, E. Caldeweyher
   M. Checinski, S. Dohm, S. Ehlert, S. Ehrlich, I. Gerasimov, C. Hölzer
   A. Katbashev, J. Kohn, J. Koopman, C. Lavigne, S. Lehtola, F. März, M. Müller,
   F. Musil, H. Neugebauer, J. Pisarek, C. Plett, P. Pracht, F. Pultar,
   J. Seibert, P. Shushkov, S. Spicher, M. Stahn, M. Steiner, T. Strunk,
   J. Stückrath, T. Rose, and J. Unsleber
   
 * started run on 2025/05/15 at 16:11:03.539     
   ID    Z sym.   atoms
    1    8 O      1, 9, 13, 20, 23, 28
    2    6 C      2-5, 7, 8, 10-12, 14-19, 21, 22, 24-27, 29
    3    7 N      6
    4    1 H      30-54

           -------------------------------------------------
          |                Calculation Setup                |
           -------------------------------------------------

          program call               : xtb /rds/general/user/hgt20/home/callum/QDESCP/Colchicine_rdkit_conf_7/Colchicine_rdkit_conf_7.xyz --opt normal --acc 1 --gfn 2 --chrg 0 --uhf 0 -P 1
          hostname                   : login-c
          coordinate file            : /rds/general/user/hgt20/home/callum/QDESCP/Colchicine_rdkit_conf_7/Colchicine_rdkit_conf_7.xyz
          omp threads                :                     1


           -------------------------------------------------
          |                 G F N 2 - x T B                 |
           -------------------------------------------------

        Reference                      10.1021/acs.jctc.8b01176
      * Hamiltonian:
        H0-scaling (s, p, d)           1.850000    2.230000    2.230000
        zeta-weighting                 0.500000
      * Dispersion:
        s8                             2.700000
        a1                             0.520000
        a2                             5.000000
        s9                             5.000000
      * Repulsion:
        kExp                           1.500000    1.000000
        rExp                           1.000000
      * Coulomb:
        alpha                          2.000000
        third order                    shell-resolved
        anisotropic                    true
        a3                             3.000000
        a5                             4.000000
        cn-shift                       1.200000
        cn-exp                         4.000000
        max-rad                        5.000000


          ...................................................
          :                      SETUP                      :
          :.................................................:
          :  # basis functions                 141          :
          :  # atomic orbitals                 141          :
          :  # shells                           83          :
          :  # electrons                       154          :
          :  max. iterations                   250          :
          :  Hamiltonian                  GFN2-xTB          :
          :  restarted?                      false          :
          :  GBSA solvation                  false          :
          :  PC potential                    false          :
          :  electronic temp.          300.0000000     K    :
          :  accuracy                    1.0000000          :
          :  -> integral cutoff          0.2500000E+02      :
          :  -> integral neglect         0.1000000E-07      :
          :  -> SCF convergence          0.1000000E-05 Eh   :
          :  -> wf. convergence          0.1000000E-03 e    :
          :  Broyden damping             0.4000000          :
          :  net charge                          0          :
          :  unpaired electrons                  0          :
          ...................................................

 iter      E             dE          RMSdq      gap      omega  full diag
   1    -88.0496779 -0.880497E+02  0.447E+00    2.47       0.0  T
   2    -88.1864649 -0.136787E+00  0.241E+00    2.24       1.0  T
   3    -88.1741155  0.123494E-01  0.130E+00    2.39       1.0  T
   4    -88.1905902 -0.164747E-01  0.584E-01    2.33       1.0  T
   5    -88.2034147 -0.128245E-01  0.150E-01    2.31       1.0  T
   6    -88.2041029 -0.688191E-03  0.729E-02    2.31       1.0  T
   7    -88.2041468 -0.438859E-04  0.365E-02    2.32       1.0  T
   8    -88.2041681 -0.212542E-04  0.151E-02    2.31       1.0  T
   9    -88.2041786 -0.105677E-04  0.595E-03    2.31       2.3  T
  10    -88.2041798 -0.118765E-05  0.273E-03    2.31       5.0  T
  11    -88.2041800 -0.152961E-06  0.108E-03    2.31      12.6  T
  12    -88.2041800 -0.480168E-08  0.458E-04    2.31      29.7  T
  13    -88.2041800 -0.438975E-08  0.173E-04    2.31      78.8  T

   *** convergence criteria satisfied after 13 iterations ***

         #    Occupation            Energy/Eh            Energy/eV
      -------------------------------------------------------------
         1        2.0000           -0.7277693             -19.8036
       ...           ...                  ...                  ...
        71        2.0000           -0.4075708             -11.0906
        72        2.0000           -0.4018245             -10.9342
        73        2.0000           -0.3991434             -10.8612
        74        2.0000           -0.3938338             -10.7168
        75        2.0000           -0.3913551             -10.6493
        76        2.0000           -0.3849799             -10.4758
        77        2.0000           -0.3761605             -10.2358 (HOMO)
        78                         -0.2911020              -7.9213 (LUMO)
        79                         -0.2651244              -7.2144
        80                         -0.2431874              -6.6175
        81                         -0.2328552              -6.3363
        82                         -0.2100094              -5.7146
       ...                                ...                  ...
       141                          0.7992047              21.7475
      -------------------------------------------------------------
                  HL-Gap            0.0850585 Eh            2.3146 eV
             Fermi-level           -0.3336312 Eh           -9.0786 eV

 SCC (total)                   0 d,  0 h,  0 min,  0.149 sec
 SCC setup                      ...        0 min,  0.001 sec (  0.366%)
 Dispersion                     ...        0 min,  0.001 sec (  0.527%)
 classical contributions        ...        0 min,  0.000 sec (  0.157%)
 integral evaluation            ...        0 min,  0.037 sec ( 24.859%)
 iterations                     ...        0 min,  0.044 sec ( 29.814%)
 molecular gradient             ...        0 min,  0.065 sec ( 44.006%)
 printout                       ...        0 min,  0.000 sec (  0.265%)

         :::::::::::::::::::::::::::::::::::::::::::::::::::::
         ::                     SUMMARY                     ::
         :::::::::::::::::::::::::::::::::::::::::::::::::::::
         :: total energy             -87.118231979410 Eh    ::
         :: gradient norm              0.152777139486 Eh/a0 ::
         :: HOMO-LUMO gap              2.314559317804 eV    ::
         ::.................................................::
         :: SCC energy               -88.202488366399 Eh    ::
         :: -> isotropic ES            0.128090529926 Eh    ::
         :: -> anisotropic ES          0.011602914498 Eh    ::
         :: -> anisotropic XC          0.018754969796 Eh    ::
         :: -> dispersion             -0.062886052016 Eh    ::
         :: repulsion energy           1.084256386989 Eh    ::
         :: add. restraining           0.000000000000 Eh    ::
         :: total charge              -0.000000000000 e     ::
         :::::::::::::::::::::::::::::::::::::::::::::::::::::

      ----------------------------------------------------------- 
     |                   =====================                   |
     |                        A N C O P T                        |
     |                   =====================                   |
     |               Approximate Normal Coordinate               |
     |                Rational Function Optimizer                |
      ----------------------------------------------------------- 
      ----------------------------------------------------------- 
     |                   =====================                   |
     |                        A N C O P T                        |
     |                   =====================                   |
     |               Approximate Normal Coordinate               |
     |                Rational Function Optimizer                |
      ----------------------------------------------------------- 

          ...................................................
          :                      SETUP                      :
          :.................................................:
          :   optimization level            normal          :
          :   max. optcycles                   200          :
          :   ANC micro-cycles                  20          :
          :   degrees of freedom               156          :
          :.................................................:
          :   RF solver                   davidson          :
          :   write xtbopt.log                true          :
          :   linear?                        false          :
          :   energy convergence         0.5000000E-05 Eh   :
          :   grad. convergence          0.1000000E-02 Eh/α :
          :   maxmium RF displ.          1.0000000          :
          :   Hlow (freq-cutoff)         0.1000000E-01      :
          :   Hmax (freq-cutoff)         5.0000000          :
          :   S6 in model hess.         20.0000000          :
          ...................................................

generating ANC from exact Hessian ...
Using Lindh-Hessian (1995)
 Shifting diagonal of input Hessian by    9.7394575205442795E-003
 Lowest  eigenvalues of input Hessian
    0.000000    0.000000    0.000000    0.000000    0.000000    0.000000
    0.010000    0.010090    0.010310    0.010552    0.010845    0.011207
    0.011706    0.012082    0.012370    0.012691    0.013585    0.014020
 Highest eigenvalues
    2.023897    2.065588    2.105426    2.128893    2.248994    2.313415


........................................................................
.............................. CYCLE    1 ..............................
........................................................................

 iter      E             dE          RMSdq      gap      omega  full diag
   1    -88.2041800 -0.882042E+02  0.760E-05    2.31       0.0  T
   2    -88.2041800 -0.817408E-10  0.519E-05    2.31     262.5  T
   3    -88.2041800 -0.786713E-10  0.319E-05    2.31     426.2  T
     SCC iter.                  ...        0 min,  0.011 sec
     gradient                   ...        0 min,  0.069 sec
 * total energy  :   -87.1182320 Eh     change       -0.5068017E-09 Eh
   gradient norm :     0.1527767 Eh/α   predicted     0.0000000E+00 (-100.00%)
   displ. norm   :     0.3798513 α      lambda       -0.3193800E-01
   maximum displ.:     0.1081804 α      in ANC's #29, #34, #33, ...

........................................................................
.............................. CYCLE    2 ..............................
........................................................................

 iter      E             dE          RMSdq      gap      omega  full diag
   1    -88.2266641 -0.882267E+02  0.242E-01    2.37       0.0  T
   2    -88.2268492 -0.185098E-03  0.168E-01    2.38       1.0  T
   3    -88.2266870  0.162167E-03  0.925E-02    2.38       1.0  T
   4    -88.2270167 -0.329646E-03  0.201E-02    2.38       1.0  T
   5    -88.2270387 -0.220585E-04  0.794E-03    2.38       1.7  T
   6    -88.2270422 -0.344131E-05  0.279E-03    2.38       4.9  T
   7    -88.2270423 -0.106426E-06  0.158E-03    2.38       8.6  T
   8    -88.2270423 -0.126383E-07  0.537E-04    2.38      25.4  T
   9    -88.2270423 -0.705218E-08  0.304E-04    2.38      44.7  T
     SCC iter.                  ...        0 min,  0.067 sec
     gradient                   ...        0 min,  0.038 sec
 * total energy  :   -87.1398660 Eh     change       -0.2163397E-01 Eh
   gradient norm :     0.0556053 Eh/α   predicted    -0.1828838E-01 ( -15.46%)
   displ. norm   :     0.3876072 α      lambda       -0.9780101E-02
   maximum displ.:     0.1787953 α      in ANC's #29, #25, #34, ...

........................................................................
.............................. CYCLE    3 ..............................
........................................................................

 iter      E             dE          RMSdq      gap      omega  full diag
   1    -88.2435921 -0.882436E+02  0.179E-01    2.45       0.0  T
   2    -88.2436708 -0.786618E-04  0.117E-01    2.44       1.0  T
   3    -88.2435672  0.103618E-03  0.689E-02    2.45       1.0  T
   4    -88.2437415 -0.174344E-03  0.118E-02    2.45       1.2  T
   5    -88.2437478 -0.632528E-05  0.587E-03    2.45       2.3  T
   6    -88.2437500 -0.217330E-05  0.179E-03    2.45       7.6  T
   7    -88.2437501 -0.315285E-07  0.103E-03    2.45      13.2  T
   8    -88.2437501 -0.106910E-07  0.366E-04    2.45      37.1  T
   9    -88.2437501 -0.284443E-08  0.193E-04    2.45      70.4  T
     SCC iter.                  ...        0 min,  0.063 sec
     gradient                   ...        0 min,  0.084 sec
 * total energy  :   -87.1459725 Eh     change       -0.6106564E-02 Eh
   gradient norm :     0.0139025 Eh/α   predicted    -0.5632270E-02 (  -7.77%)
   displ. norm   :     0.3257510 α      lambda       -0.2437891E-02
   maximum displ.:     0.1452450 α      in ANC's #29, #10, #27, ...

........................................................................
.............................. CYCLE    4 ..............................
........................................................................

 iter      E             dE          RMSdq      gap      omega  full diag
   1    -88.2475205 -0.882475E+02  0.128E-01    2.49       0.0  T
   2    -88.2475771 -0.566032E-04  0.765E-02    2.48       1.0  T
   3    -88.2475150  0.621560E-04  0.432E-02    2.49       1.0  T
   4    -88.2475885 -0.735580E-04  0.123E-02    2.48       1.1  T
   5    -88.2475973 -0.871286E-05  0.237E-03    2.48       5.7  T
   6    -88.2475974 -0.170759E-06  0.135E-03    2.48      10.1  T
   7    -88.2475975 -0.666185E-07  0.643E-04    2.48      21.2  T
   8    -88.2475975 -0.326504E-08  0.250E-04    2.48      54.5  T
     SCC iter.                  ...        0 min,  0.027 sec
     gradient                   ...        0 min,  0.066 sec
 * total energy  :   -87.1476309 Eh     change       -0.1658378E-02 Eh
   gradient norm :     0.0168164 Eh/α   predicted    -0.1348405E-02 ( -18.69%)
   displ. norm   :     0.3372227 α      lambda       -0.1424763E-02
   maximum displ.:     0.1192464 α      in ANC's #29, #9, #10, ...

........................................................................
.............................. CYCLE    5 ..............................
........................................................................

 iter      E             dE          RMSdq      gap      omega  full diag
   1    -88.2503848 -0.882504E+02  0.112E-01    2.49       0.0  T
   2    -88.2503957 -0.108761E-04  0.667E-02    2.49       1.0  T
   3    -88.2503357  0.599824E-04  0.348E-02    2.49       1.0  T
   4    -88.2504039 -0.681541E-04  0.520E-03    2.49       2.6  T
   5    -88.2504052 -0.131215E-05  0.187E-03    2.49       7.3  T
   6    -88.2504052 -0.469226E-07  0.121E-03    2.49      11.3  T
   7    -88.2504053 -0.387918E-07  0.571E-04    2.49      23.8  T
   8    -88.2504053 -0.585145E-08  0.178E-04    2.49      76.3  T
     SCC iter.                  ...        0 min,  0.027 sec
     gradient                   ...        0 min,  0.066 sec
 * total energy  :   -87.1486112 Eh     change       -0.9802969E-03 Eh
   gradient norm :     0.0144387 Eh/α   predicted    -0.7934213E-03 ( -19.06%)
   displ. norm   :     0.3036604 α      lambda       -0.8035304E-03
   maximum displ.:     0.1046295 α      in ANC's #9, #10, #1, ...

........................................................................
.............................. CYCLE    6 ..............................
........................................................................

 iter      E             dE          RMSdq      gap      omega  full diag
   1    -88.2509991 -0.882510E+02  0.973E-02    2.49       0.0  T
   2    -88.2510077 -0.862712E-05  0.588E-02    2.48       1.0  T
   3    -88.2509329  0.748364E-04  0.367E-02    2.48       1.0  T
   4    -88.2510212 -0.883171E-04  0.477E-03    2.48       2.9  T
   5    -88.2510223 -0.109522E-05  0.178E-03    2.48       7.6  T
   6    -88.2510224 -0.697554E-07  0.107E-03    2.48      12.7  T
   7    -88.2510224 -0.293002E-07  0.452E-04    2.48      30.1  T
   8    -88.2510224 -0.166874E-08  0.217E-04    2.48      62.8  T
     SCC iter.                  ...        0 min,  0.026 sec
     gradient                   ...        0 min,  0.072 sec
 * total energy  :   -87.1491848 Eh     change       -0.5735669E-03 Eh
   gradient norm :     0.0117105 Eh/α   predicted    -0.4388132E-03 ( -23.49%)
   displ. norm   :     0.3097656 α      lambda       -0.5823996E-03
   maximum displ.:     0.1020675 α      in ANC's #9, #1, #10, ...

........................................................................
.............................. CYCLE    7 ..............................
........................................................................

 iter      E             dE          RMSdq      gap      omega  full diag
   1    -88.2518664 -0.882519E+02  0.834E-02    2.47       0.0  T
   2    -88.2518691 -0.268060E-05  0.492E-02    2.47       1.0  T
   3    -88.2518573  0.117972E-04  0.148E-02    2.47       1.0  T
   4    -88.2518707 -0.133730E-04  0.270E-03    2.47       5.0  T
   5    -88.2518710 -0.268462E-06  0.139E-03    2.47       9.8  T
   6    -88.2518710 -0.123327E-07  0.801E-04    2.47      17.0  T
   7    -88.2518710 -0.193745E-07  0.278E-04    2.47      49.0  T
     SCC iter.                  ...        0 min,  0.050 sec
     gradient                   ...        0 min,  0.038 sec
 * total energy  :   -87.1495975 Eh     change       -0.4127316E-03 Eh
   gradient norm :     0.0065394 Eh/α   predicted    -0.3191443E-03 ( -22.68%)
   displ. norm   :     0.3522237 α      lambda       -0.4658486E-03
   maximum displ.:     0.1199617 α      in ANC's #1, #6, #4, ...

........................................................................
.............................. CYCLE    8 ..............................
........................................................................

 iter      E             dE          RMSdq      gap      omega  full diag
   1    -88.2505548 -0.882506E+02  0.939E-02    2.46       0.0  T
   2    -88.2505643 -0.955935E-05  0.560E-02    2.45       1.0  T
   3    -88.2505105  0.538939E-04  0.295E-02    2.46       1.0  T
   4    -88.2505714 -0.609531E-04  0.516E-03    2.46       2.6  T
   5    -88.2505727 -0.130024E-05  0.180E-03    2.46       7.6  T
   6    -88.2505727 -0.417381E-07  0.112E-03    2.46      12.1  T
   7    -88.2505728 -0.264115E-07  0.565E-04    2.46      24.1  T
   8    -88.2505728 -0.561261E-08  0.197E-04    2.46      69.2  T
     SCC iter.                  ...        0 min,  0.064 sec
     gradient                   ...        0 min,  0.038 sec
 * total energy  :   -87.1499315 Eh     change       -0.3339927E-03 Eh
   gradient norm :     0.0098081 Eh/α   predicted    -0.2618283E-03 ( -21.61%)
   displ. norm   :     0.3798851 α      lambda       -0.4741755E-03
   maximum displ.:     0.1459972 α      in ANC's #1, #6, #4, ...

........................................................................
.............................. CYCLE    9 ..............................
........................................................................

 iter      E             dE          RMSdq      gap      omega  full diag
   1    -88.2510003 -0.882510E+02  0.867E-02    2.45       0.0  T
   2    -88.2510069 -0.665682E-05  0.515E-02    2.45       1.0  T
   3    -88.2509945  0.124780E-04  0.162E-02    2.45       1.0  T
   4    -88.2510087 -0.142123E-04  0.429E-03    2.45       3.2  T
   5    -88.2510095 -0.863010E-06  0.172E-03    2.45       7.9  T
   6    -88.2510096 -0.221742E-07  0.107E-03    2.45      12.7  T
   7    -88.2510096 -0.369041E-07  0.306E-04    2.45      44.4  T
   8    -88.2510096 -0.205991E-08  0.151E-04    2.45      90.0  T
     SCC iter.                  ...        0 min,  0.056 sec
     gradient                   ...        0 min,  0.039 sec
 * total energy  :   -87.1502656 Eh     change       -0.3341320E-03 Eh
   gradient norm :     0.0090555 Eh/α   predicted    -0.2713201E-03 ( -18.80%)
   displ. norm   :     0.3817841 α      lambda       -0.3604876E-03
   maximum displ.:     0.1623081 α      in ANC's #6, #1, #2, ...

........................................................................
.............................. CYCLE   10 ..............................
........................................................................

 iter      E             dE          RMSdq      gap      omega  full diag
   1    -88.2501412 -0.882501E+02  0.924E-02    2.46       0.0  T
   2    -88.2501493 -0.804573E-05  0.550E-02    2.45       1.0  T
   3    -88.2501146  0.346459E-04  0.232E-02    2.46       1.0  T
   4    -88.2501526 -0.379540E-04  0.544E-03    2.45       2.5  T
   5    -88.2501543 -0.168810E-05  0.191E-03    2.45       7.1  T
   6    -88.2501543 -0.552514E-07  0.106E-03    2.45      12.8  T
   7    -88.2501544 -0.109520E-07  0.497E-04    2.45      27.4  T
   8    -88.2501544 -0.390560E-08  0.184E-04    2.45      74.1  T
     SCC iter.                  ...        0 min,  0.026 sec
     gradient                   ...        0 min,  0.084 sec
 * total energy  :   -87.1505262 Eh     change       -0.2606202E-03 Eh
   gradient norm :     0.0065175 Eh/α   predicted    -0.2065203E-03 ( -20.76%)
   displ. norm   :     0.3346579 α      lambda       -0.3073928E-03
   maximum displ.:     0.1578141 α      in ANC's #6, #1, #2, ...

........................................................................
.............................. CYCLE   11 ..............................
........................................................................

 iter      E             dE          RMSdq      gap      omega  full diag
   1    -88.2522204 -0.882522E+02  0.769E-02    2.46       0.0  T
   2    -88.2522244 -0.394824E-05  0.458E-02    2.46       1.0  T
   3    -88.2522130  0.113945E-04  0.157E-02    2.46       1.0  T
   4    -88.2522265 -0.134830E-04  0.269E-03    2.46       5.1  T
   5    -88.2522266 -0.171904E-06  0.146E-03    2.46       9.3  T
   6    -88.2522267 -0.193171E-07  0.769E-04    2.46      17.7  T
   7    -88.2522267 -0.118055E-07  0.234E-04    2.46      58.3  T
     SCC iter.                  ...        0 min,  0.023 sec
     gradient                   ...        0 min,  0.072 sec
 * total energy  :   -87.1507355 Eh     change       -0.2092904E-03 Eh
   gradient norm :     0.0049732 Eh/α   predicted    -0.1709109E-03 ( -18.34%)
   displ. norm   :     0.3534640 α      lambda       -0.2157251E-03
   maximum displ.:     0.1798963 α      in ANC's #6, #1, #3, ...

........................................................................
.............................. CYCLE   12 ..............................
........................................................................

 iter      E             dE          RMSdq      gap      omega  full diag
   1    -88.2505876 -0.882506E+02  0.830E-02    2.47       0.0  T
   2    -88.2505931 -0.555113E-05  0.499E-02    2.46       1.0  T
   3    -88.2505512  0.419261E-04  0.248E-02    2.47       1.0  T
   4    -88.2505976 -0.463574E-04  0.477E-03    2.46       2.9  T
   5    -88.2505987 -0.116431E-05  0.164E-03    2.46       8.3  T
   6    -88.2505988 -0.212147E-07  0.927E-04    2.46      14.7  T
   7    -88.2505988 -0.111288E-07  0.343E-04    2.46      39.7  T
     SCC iter.                  ...        0 min,  0.023 sec
     gradient                   ...        0 min,  0.066 sec
 * total energy  :   -87.1508783 Eh     change       -0.1427735E-03 Eh
   gradient norm :     0.0081208 Eh/α   predicted    -0.1213401E-03 ( -15.01%)
   displ. norm   :     0.3309977 α      lambda       -0.2722785E-03
   maximum displ.:     0.1971174 α      in ANC's #6, #1, #3, ...

........................................................................
.............................. CYCLE   13 ..............................
........................................................................

 iter      E             dE          RMSdq      gap      omega  full diag
   1    -88.2533147 -0.882533E+02  0.759E-02    2.47       0.0  T
   2    -88.2533193 -0.455497E-05  0.451E-02    2.46       1.0  T
   3    -88.2533065  0.128317E-04  0.153E-02    2.47       1.0  T
   4    -88.2533203 -0.138295E-04  0.420E-03    2.46       3.2  T
   5    -88.2533213 -0.100465E-05  0.149E-03    2.46       9.1  T
   6    -88.2533213 -0.270638E-07  0.814E-04    2.46      16.7  T
   7    -88.2533213 -0.120684E-07  0.278E-04    2.46      49.0  T
     SCC iter.                  ...        0 min,  0.068 sec
     gradient                   ...        0 min,  0.038 sec
 * total energy  :   -87.1510374 Eh     change       -0.1591481E-03 Eh
   gradient norm :     0.0082374 Eh/α   predicted    -0.1510557E-03 (  -5.08%)
   displ. norm   :     0.2757624 α      lambda       -0.1899897E-03
   maximum displ.:     0.1601268 α      in ANC's #6, #1, #8, ...

........................................................................
.............................. CYCLE   14 ..............................
........................................................................

 iter      E             dE          RMSdq      gap      omega  full diag
   1    -88.2528719 -0.882529E+02  0.649E-02    2.46       0.0  T
   2    -88.2528756 -0.372952E-05  0.388E-02    2.46       1.0  T
   3    -88.2528714  0.422568E-05  0.956E-03    2.46       1.4  T
   4    -88.2528763 -0.484400E-05  0.281E-03    2.46       4.8  T
   5    -88.2528766 -0.353746E-06  0.130E-03    2.46      10.5  T
   6    -88.2528766 -0.360474E-07  0.719E-04    2.46      18.9  T
   7    -88.2528767 -0.112642E-07  0.272E-04    2.46      50.0  T
     SCC iter.                  ...        0 min,  0.062 sec
     gradient                   ...        0 min,  0.039 sec
 * total energy  :   -87.1511761 Eh     change       -0.1386992E-03 Eh
   gradient norm :     0.0068024 Eh/α   predicted    -0.1022195E-03 ( -26.30%)
   displ. norm   :     0.3595863 α      lambda       -0.2297893E-03
   maximum displ.:     0.2272919 α      in ANC's #6, #8, #1, ...

........................................................................
.............................. CYCLE   15 ..............................
........................................................................

 iter      E             dE          RMSdq      gap      omega  full diag
   1    -88.2509114 -0.882509E+02  0.830E-02    2.45       0.0  T
   2    -88.2509147 -0.326222E-05  0.494E-02    2.45       1.0  T
   3    -88.2508962  0.184458E-04  0.161E-02    2.45       1.0  T
   4    -88.2509164 -0.201761E-04  0.370E-03    2.45       3.7  T
   5    -88.2509171 -0.653411E-06  0.151E-03    2.45       9.0  T
   6    -88.2509171 -0.164668E-07  0.802E-04    2.45      17.0  T
   7    -88.2509171 -0.147991E-07  0.267E-04    2.45      51.0  T
     SCC iter.                  ...        0 min,  0.023 sec
     gradient                   ...        0 min,  0.039 sec
 * total energy  :   -87.1513377 Eh     change       -0.1615441E-03 Eh
   gradient norm :     0.0062225 Eh/α   predicted    -0.1297524E-03 ( -19.68%)
   displ. norm   :     0.2597532 α      lambda       -0.1715390E-03
   maximum displ.:     0.1556611 α      in ANC's #6, #8, #5, ...

........................................................................
.............................. CYCLE   16 ..............................
........................................................................

 iter      E             dE          RMSdq      gap      omega  full diag
   1    -88.2521225 -0.882521E+02  0.643E-02    2.44       0.0  T
   2    -88.2521253 -0.282554E-05  0.386E-02    2.44       1.0  T
   3    -88.2521174  0.789486E-05  0.120E-02    2.44       1.1  T
   4    -88.2521259 -0.850855E-05  0.312E-03    2.44       4.4  T
   5    -88.2521264 -0.538952E-06  0.113E-03    2.44      12.0  T
   6    -88.2521265 -0.210555E-07  0.591E-04    2.44      23.0  T
   7    -88.2521265 -0.992031E-08  0.174E-04    2.44      78.1  T
     SCC iter.                  ...        0 min,  0.023 sec
     gradient                   ...        0 min,  0.039 sec
 * total energy  :   -87.1514489 Eh     change       -0.1112411E-03 Eh
   gradient norm :     0.0055061 Eh/α   predicted    -0.9155935E-04 ( -17.69%)
   displ. norm   :     0.3727130 α      lambda       -0.1596772E-03
   maximum displ.:     0.2364463 α      in ANC's #6, #1, #8, ...

........................................................................
.............................. CYCLE   17 ..............................
........................................................................

 iter      E             dE          RMSdq      gap      omega  full diag
   1    -88.2487756 -0.882488E+02  0.853E-02    2.44       0.0  T
   2    -88.2487822 -0.660480E-05  0.506E-02    2.44       1.0  T
   3    -88.2487670  0.151766E-04  0.164E-02    2.44       1.0  T
   4    -88.2487835 -0.164520E-04  0.482E-03    2.44       2.8  T
   5    -88.2487849 -0.139694E-05  0.172E-03    2.44       7.9  T
   6    -88.2487849 -0.475674E-07  0.971E-04    2.44      14.0  T
   7    -88.2487849 -0.163783E-07  0.348E-04    2.44      39.1  T
     SCC iter.                  ...        0 min,  0.023 sec
     gradient                   ...        0 min,  0.066 sec
 * total energy  :   -87.1515462 Eh     change       -0.9730043E-04 Eh
   gradient norm :     0.0073107 Eh/α   predicted    -0.9094057E-04 (  -6.54%)
   displ. norm   :     0.2060745 α      lambda       -0.1643669E-03
   maximum displ.:     0.0980462 α      in ANC's #6, #5, #7, ...

........................................................................
.............................. CYCLE   18 ..............................
........................................................................

 iter      E             dE          RMSdq      gap      omega  full diag
   1    -88.2518173 -0.882518E+02  0.505E-02    2.44       0.0  T
   2    -88.2518199 -0.263992E-05  0.301E-02    2.44       1.0  T
   3    -88.2518156  0.435133E-05  0.970E-03    2.44       1.4  T
   4    -88.2518201 -0.452638E-05  0.310E-03    2.44       4.4  T
   5    -88.2518207 -0.569466E-06  0.910E-04    2.44      14.9  T
   6    -88.2518207 -0.125523E-07  0.530E-04    2.44      25.7  T
     SCC iter.                  ...        0 min,  0.020 sec
     gradient                   ...        0 min,  0.090 sec
 * total energy  :   -87.1516530 Eh     change       -0.1068083E-03 Eh
   gradient norm :     0.0061210 Eh/α   predicted    -0.8567387E-04 ( -19.79%)
   displ. norm   :     0.3353176 α      lambda       -0.1415132E-03
   maximum displ.:     0.1969419 α      in ANC's #6, #5, #8, ...

........................................................................
.............................. CYCLE   19 ..............................
........................................................................

 iter      E             dE          RMSdq      gap      omega  full diag
   1    -88.2509741 -0.882510E+02  0.802E-02    2.45       0.0  T
   2    -88.2509765 -0.242797E-05  0.478E-02    2.45       1.0  T
   3    -88.2509716  0.495734E-05  0.963E-03    2.45       1.4  T
   4    -88.2509777 -0.613694E-05  0.201E-03    2.45       6.8  T
   5    -88.2509777 -0.230888E-07  0.108E-03    2.45      12.6  T
   6    -88.2509777 -0.101484E-07  0.526E-04    2.45      25.8  T
   7    -88.2509778 -0.894906E-08  0.199E-04    2.45      68.3  T
     SCC iter.                  ...        0 min,  0.062 sec
     gradient                   ...        0 min,  0.038 sec
 * total energy  :   -87.1517476 Eh     change       -0.9456420E-04 Eh
   gradient norm :     0.0049591 Eh/α   predicted    -0.7871297E-04 ( -16.76%)
   displ. norm   :     0.1998233 α      lambda       -0.1277616E-03
   maximum displ.:     0.0839272 α      in ANC's #6, #7, #5, ...

........................................................................
.............................. CYCLE   20 ..............................
........................................................................

 iter      E             dE          RMSdq      gap      omega  full diag
   1    -88.2531558 -0.882532E+02  0.488E-02    2.45       0.0  T
   2    -88.2531573 -0.149151E-05  0.290E-02    2.45       1.0  T
   3    -88.2531535  0.386054E-05  0.844E-03    2.45       1.6  T
   4    -88.2531579 -0.444983E-05  0.183E-03    2.45       7.4  T
   5    -88.2531580 -0.112036E-06  0.964E-04    2.45      14.1  T
   6    -88.2531581 -0.170182E-07  0.527E-04    2.45      25.8  T
     SCC iter.                  ...        0 min,  0.053 sec
     gradient                   ...        0 min,  0.039 sec
 * total energy  :   -87.1518346 Eh     change       -0.8699972E-04 Eh
   gradient norm :     0.0052774 Eh/α   predicted    -0.6643611E-04 ( -23.64%)
   displ. norm   :     0.2794667 α      lambda       -0.1129968E-03
   maximum displ.:     0.1420123 α      in ANC's #6, #4, #7, ...
 * RMSD in coord.:     0.6344614 α      energy gain  -0.3360263E-01 Eh

generating ANC from exact Hessian ...
Using Lindh-Hessian (1995)
 Shifting diagonal of input Hessian by    9.6921400685306084E-003
 Lowest  eigenvalues of input Hessian
    0.000000    0.000000    0.000000    0.000000    0.000000    0.000000
    0.010000    0.010084    0.010234    0.010556    0.010812    0.011143
    0.011633    0.012122    0.012460    0.012892    0.013742    0.014263
 Highest eigenvalues
    1.969717    2.072597    2.095446    2.139605    2.255156    2.344020


........................................................................
.............................. CYCLE   21 ..............................
........................................................................

 iter      E             dE          RMSdq      gap      omega  full diag
   1    -88.2521204 -0.882521E+02  0.669E-02    2.45       0.0  T
   2    -88.2521228 -0.234367E-05  0.399E-02    2.45       1.0  T
   3    -88.2521055  0.172260E-04  0.162E-02    2.45       1.0  T
   4    -88.2521247 -0.191465E-04  0.295E-03    2.45       4.6  T
   5    -88.2521250 -0.342547E-06  0.139E-03    2.45       9.8  T
   6    -88.2521251 -0.291958E-07  0.674E-04    2.45      20.2  T
   7    -88.2521251 -0.122098E-07  0.262E-04    2.45      52.0  T
     SCC iter.                  ...        0 min,  0.024 sec
     gradient                   ...        0 min,  0.072 sec
 * total energy  :   -87.1519226 Eh     change       -0.8796317E-04 Eh
   gradient norm :     0.0069488 Eh/α   predicted     0.0000000E+00 (-100.00%)
   displ. norm   :     0.0568697 α      lambda       -0.9060912E-04
   maximum displ.:     0.0258963 α      in ANC's #7, #18, #4, ...

........................................................................
.............................. CYCLE   22 ..............................
........................................................................

 iter      E             dE          RMSdq      gap      omega  full diag
   1    -88.2529042 -0.882529E+02  0.205E-02    2.44       0.0  T
   2    -88.2529048 -0.601831E-06  0.123E-02    2.45       1.1  T
   3    -88.2529031  0.169529E-05  0.604E-03    2.45       2.3  T
   4    -88.2529050 -0.191211E-05  0.148E-03    2.45       9.2  T
   5    -88.2529051 -0.123092E-06  0.465E-04    2.45      29.3  T
   6    -88.2529051 -0.486533E-08  0.249E-04    2.45      54.7  T
     SCC iter.                  ...        0 min,  0.021 sec
     gradient                   ...        0 min,  0.069 sec
 * total energy  :   -87.1520050 Eh     change       -0.8245205E-04 Eh
   gradient norm :     0.0029612 Eh/α   predicted    -0.5392605E-04 ( -34.60%)
   displ. norm   :     0.1434420 α      lambda       -0.1409473E-03
   maximum displ.:     0.0717621 α      in ANC's #7, #18, #4, ...

........................................................................
.............................. CYCLE   23 ..............................
........................................................................

 iter      E             dE          RMSdq      gap      omega  full diag
   1    -88.2534937 -0.882535E+02  0.426E-02    2.44       0.0  T
   2    -88.2534952 -0.151147E-05  0.252E-02    2.44       1.0  T
   3    -88.2534920  0.321225E-05  0.976E-03    2.44       1.4  T
   4    -88.2534958 -0.375225E-05  0.202E-03    2.44       6.7  T
   5    -88.2534959 -0.148608E-06  0.895E-04    2.44      15.2  T
   6    -88.2534959 -0.142131E-07  0.450E-04    2.44      30.2  T
     SCC iter.                  ...        0 min,  0.020 sec
     gradient                   ...        0 min,  0.066 sec
 * total energy  :   -87.1521024 Eh     change       -0.9739897E-04 Eh
   gradient norm :     0.0035300 Eh/α   predicted    -0.7192530E-04 ( -26.15%)
   displ. norm   :     0.1783454 α      lambda       -0.1020490E-03
   maximum displ.:     0.0982602 α      in ANC's #7, #4, #18, ...

........................................................................
.............................. CYCLE   24 ..............................
........................................................................

 iter      E             dE          RMSdq      gap      omega  full diag
   1    -88.2531609 -0.882532E+02  0.468E-02    2.43       0.0  T
   2    -88.2531621 -0.118293E-05  0.279E-02    2.43       1.0  T
   3    -88.2531570  0.513122E-05  0.110E-02    2.43       1.2  T
   4    -88.2531629 -0.591259E-05  0.187E-03    2.43       7.3  T
   5    -88.2531630 -0.961343E-07  0.966E-04    2.43      14.1  T
   6    -88.2531630 -0.136022E-07  0.432E-04    2.43      31.5  T
     SCC iter.                  ...        0 min,  0.020 sec
     gradient                   ...        0 min,  0.078 sec
 * total energy  :   -87.1521834 Eh     change       -0.8102071E-04 Eh
   gradient norm :     0.0051228 Eh/α   predicted    -0.5264795E-04 ( -35.02%)
   displ. norm   :     0.2780007 α      lambda       -0.1384436E-03
   maximum displ.:     0.1576056 α      in ANC's #7, #4, #10, ...

........................................................................
.............................. CYCLE   25 ..............................
........................................................................

 iter      E             dE          RMSdq      gap      omega  full diag
   1    -88.2520915 -0.882521E+02  0.686E-02    2.43       0.0  T
   2    -88.2520943 -0.281007E-05  0.412E-02    2.43       1.0  T
   3    -88.2520793  0.150034E-04  0.178E-02    2.43       1.0  T
   4    -88.2520965 -0.171707E-04  0.299E-03    2.43       4.6  T
   5    -88.2520968 -0.276956E-06  0.153E-03    2.43       8.9  T
   6    -88.2520968 -0.361016E-07  0.718E-04    2.43      19.0  T
   7    -88.2520968 -0.120872E-07  0.340E-04    2.43      40.0  T
     SCC iter.                  ...        0 min,  0.023 sec
     gradient                   ...        0 min,  0.073 sec
 * total energy  :   -87.1522869 Eh     change       -0.1034934E-03 Eh
   gradient norm :     0.0052057 Eh/α   predicted    -0.7457384E-04 ( -27.94%)
   displ. norm   :     0.2332638 α      lambda       -0.1066722E-03
   maximum displ.:     0.1377534 α      in ANC's #7, #4, #10, ...

........................................................................
.............................. CYCLE   26 ..............................
........................................................................

 iter      E             dE          RMSdq      gap      omega  full diag
   1    -88.2516142 -0.882516E+02  0.545E-02    2.43       0.0  T
   2    -88.2516165 -0.228440E-05  0.327E-02    2.43       1.0  T
   3    -88.2516074  0.908019E-05  0.144E-02    2.43       1.0  T
   4    -88.2516180 -0.105961E-04  0.247E-03    2.43       5.5  T
   5    -88.2516182 -0.192362E-06  0.127E-03    2.43      10.7  T
   6    -88.2516182 -0.285535E-07  0.616E-04    2.43      22.1  T
   7    -88.2516183 -0.848704E-08  0.284E-04    2.43      47.9  T
     SCC iter.                  ...        0 min,  0.061 sec
     gradient                   ...        0 min,  0.038 sec
 * total energy  :   -87.1523653 Eh     change       -0.7838840E-04 Eh
   gradient norm :     0.0045704 Eh/α   predicted    -0.5624417E-04 ( -28.25%)
   displ. norm   :     0.1839612 α      lambda       -0.1026267E-03
   maximum displ.:     0.1117821 α      in ANC's #7, #4, #2, ...

........................................................................
.............................. CYCLE   27 ..............................
........................................................................

 iter      E             dE          RMSdq      gap      omega  full diag
   1    -88.2523920 -0.882524E+02  0.422E-02    2.43       0.0  T
   2    -88.2523936 -0.159398E-05  0.251E-02    2.43       1.0  T
   3    -88.2523900  0.366694E-05  0.102E-02    2.43       1.3  T
   4    -88.2523945 -0.451139E-05  0.154E-03    2.43       8.8  T
   5    -88.2523945 -0.463839E-07  0.873E-04    2.43      15.6  T
   6    -88.2523945 -0.120961E-07  0.448E-04    2.43      30.4  T
     SCC iter.                  ...        0 min,  0.020 sec
     gradient                   ...        0 min,  0.039 sec
 * total energy  :   -87.1524395 Eh     change       -0.7414577E-04 Eh
   gradient norm :     0.0037838 Eh/α   predicted    -0.5305017E-04 ( -28.45%)
   displ. norm   :     0.1747729 α      lambda       -0.7737745E-04
   maximum displ.:     0.1044567 α      in ANC's #7, #2, #4, ...

........................................................................
.............................. CYCLE   28 ..............................
........................................................................

 iter      E             dE          RMSdq      gap      omega  full diag
   1    -88.2528338 -0.882528E+02  0.400E-02    2.43       0.0  T
   2    -88.2528350 -0.124440E-05  0.238E-02    2.43       1.0  T
   3    -88.2528319  0.315415E-05  0.951E-03    2.43       1.4  T
   4    -88.2528356 -0.378326E-05  0.154E-03    2.43       8.8  T
   5    -88.2528357 -0.615948E-07  0.944E-04    2.43      14.4  T
   6    -88.2528357 -0.312190E-07  0.400E-04    2.43      34.0  T
     SCC iter.                  ...        0 min,  0.020 sec
     gradient                   ...        0 min,  0.039 sec
 * total energy  :   -87.1524979 Eh     change       -0.5842242E-04 Eh
   gradient norm :     0.0040978 Eh/α   predicted    -0.3987259E-04 ( -31.75%)
   displ. norm   :     0.2193296 α      lambda       -0.8051452E-04
   maximum displ.:     0.1261167 α      in ANC's #7, #2, #10, ...

........................................................................
.............................. CYCLE   29 ..............................
........................................................................

 iter      E             dE          RMSdq      gap      omega  full diag
   1    -88.2527261 -0.882527E+02  0.503E-02    2.43       0.0  T
   2    -88.2527277 -0.155069E-05  0.300E-02    2.43       1.0  T
   3    -88.2527223  0.537334E-05  0.120E-02    2.43       1.1  T
   4    -88.2527285 -0.624686E-05  0.205E-03    2.43       6.6  T
   5    -88.2527287 -0.144989E-06  0.117E-03    2.43      11.6  T
   6    -88.2527287 -0.463205E-07  0.435E-04    2.43      31.3  T
   7    -88.2527287 -0.183188E-08  0.197E-04    2.43      68.9  T
     SCC iter.                  ...        0 min,  0.023 sec
     gradient                   ...        0 min,  0.072 sec
 * total energy  :   -87.1525600 Eh     change       -0.6206162E-04 Eh
   gradient norm :     0.0041663 Eh/α   predicted    -0.4219608E-04 ( -32.01%)
   displ. norm   :     0.2736140 α      lambda       -0.9532314E-04
   maximum displ.:     0.1457427 α      in ANC's #7, #2, #6, ...

........................................................................
.............................. CYCLE   30 ..............................
........................................................................

 iter      E             dE          RMSdq      gap      omega  full diag
   1    -88.2523707 -0.882524E+02  0.635E-02    2.43       0.0  T
   2    -88.2523727 -0.196447E-05  0.379E-02    2.43       1.0  T
   3    -88.2523643  0.836261E-05  0.146E-02    2.43       1.0  T
   4    -88.2523739 -0.957863E-05  0.249E-03    2.43       5.5  T
   5    -88.2523741 -0.214846E-06  0.139E-03    2.43       9.8  T
   6    -88.2523742 -0.580131E-07  0.501E-04    2.43      27.1  T
   7    -88.2523742 -0.229457E-08  0.247E-04    2.43      55.0  T
     SCC iter.                  ...        0 min,  0.023 sec
     gradient                   ...        0 min,  0.060 sec
 * total energy  :   -87.1526327 Eh     change       -0.7273830E-04 Eh
   gradient norm :     0.0035278 Eh/α   predicted    -0.5123050E-04 ( -29.57%)
   displ. norm   :     0.3089648 α      lambda       -0.9697495E-04
   maximum displ.:     0.1527140 α      in ANC's #7, #6, #2, ...

........................................................................
.............................. CYCLE   31 ..............................
........................................................................

 iter      E             dE          RMSdq      gap      omega  full diag
   1    -88.2513954 -0.882514E+02  0.727E-02    2.43       0.0  T
   2    -88.2513976 -0.213402E-05  0.433E-02    2.43       1.0  T
   3    -88.2513890  0.856062E-05  0.149E-02    2.43       1.0  T
   4    -88.2513989 -0.990667E-05  0.246E-03    2.43       5.5  T
   5    -88.2513990 -0.136036E-06  0.150E-03    2.43       9.1  T
   6    -88.2513991 -0.589384E-07  0.547E-04    2.43      24.9  T
   7    -88.2513991 -0.296444E-08  0.287E-04    2.43      47.4  T
     SCC iter.                  ...        0 min,  0.023 sec
     gradient                   ...        0 min,  0.066 sec
 * total energy  :   -87.1527059 Eh     change       -0.7325339E-04 Eh
   gradient norm :     0.0033488 Eh/α   predicted    -0.5312069E-04 ( -27.48%)
   displ. norm   :     0.2712078 α      lambda       -0.1253772E-03
   maximum displ.:     0.1379386 α      in ANC's #6, #3, #2, ...

........................................................................
.............................. CYCLE   32 ..............................
........................................................................

 iter      E             dE          RMSdq      gap      omega  full diag
   1    -88.2537934 -0.882538E+02  0.641E-02    2.42       0.0  T
   2    -88.2537955 -0.207463E-05  0.383E-02    2.42       1.0  T
   3    -88.2537851  0.103709E-04  0.133E-02    2.42       1.0  T
   4    -88.2537965 -0.113222E-04  0.290E-03    2.42       4.7  T
   5    -88.2537969 -0.397542E-06  0.129E-03    2.42      10.5  T
   6    -88.2537969 -0.194942E-07  0.626E-04    2.42      21.8  T
   7    -88.2537969 -0.632325E-08  0.246E-04    2.42      55.3  T
     SCC iter.                  ...        0 min,  0.023 sec
     gradient                   ...        0 min,  0.078 sec
 * total energy  :   -87.1527452 Eh     change       -0.3923135E-04 Eh
   gradient norm :     0.0064196 Eh/α   predicted    -0.6731666E-04 (  71.59%)
   displ. norm   :     0.3765674 α      lambda       -0.1639713E-03
   maximum displ.:     0.1812324 α      in ANC's #7, #3, #6, ...

........................................................................
.............................. CYCLE   33 ..............................
........................................................................

 iter      E             dE          RMSdq      gap      omega  full diag
   1    -88.2496062 -0.882496E+02  0.915E-02    2.41       0.0  T
   2    -88.2496104 -0.411945E-05  0.548E-02    2.41       1.0  T
   3    -88.2495874  0.229590E-04  0.216E-02    2.41       1.0  T
   4    -88.2496135 -0.261018E-04  0.352E-03    2.41       3.9  T
   5    -88.2496138 -0.333807E-06  0.185E-03    2.41       7.4  T
   6    -88.2496139 -0.518909E-07  0.866E-04    2.41      15.7  T
   7    -88.2496139 -0.152118E-07  0.417E-04    2.41      32.6  T
     SCC iter.                  ...        0 min,  0.023 sec
     gradient                   ...        0 min,  0.075 sec
 * total energy  :   -87.1528014 Eh     change       -0.5617943E-04 Eh
   gradient norm :     0.0068258 Eh/α   predicted    -0.9361693E-04 (  66.64%)
   displ. norm   :     0.1392258 α      lambda       -0.9040403E-04
   maximum displ.:     0.0754656 α      in ANC's #7, #2, #6, ...

........................................................................
.............................. CYCLE   34 ..............................
........................................................................

 iter      E             dE          RMSdq      gap      omega  full diag
   1    -88.2528655 -0.882529E+02  0.343E-02    2.42       0.0  T
   2    -88.2528664 -0.862299E-06  0.204E-02    2.42       1.0  T
   3    -88.2528647  0.167048E-05  0.715E-03    2.42       1.9  T
   4    -88.2528667 -0.203974E-05  0.127E-03    2.42      10.7  T
   5    -88.2528667 -0.232594E-07  0.739E-04    2.42      18.4  T
   6    -88.2528668 -0.117549E-07  0.341E-04    2.42      39.9  T
     SCC iter.                  ...        0 min,  0.020 sec
     gradient                   ...        0 min,  0.065 sec
 * total energy  :   -87.1528510 Eh     change       -0.4968757E-04 Eh
   gradient norm :     0.0029916 Eh/α   predicted    -0.4607898E-04 (  -7.26%)
   displ. norm   :     0.1328132 α      lambda       -0.5204203E-04
   maximum displ.:     0.0755067 α      in ANC's #3, #6, #2, ...

........................................................................
.............................. CYCLE   35 ..............................
........................................................................

 iter      E             dE          RMSdq      gap      omega  full diag
   1    -88.2532169 -0.882532E+02  0.301E-02    2.42       0.0  T
   2    -88.2532171 -0.227332E-06  0.179E-02    2.42       1.0  T
   3    -88.2532165  0.562692E-06  0.352E-03    2.42       3.9  T
   4    -88.2532172 -0.672407E-06  0.732E-04    2.42      18.6  T
   5    -88.2532172 -0.908392E-08  0.426E-04    2.42      31.9  T
     SCC iter.                  ...        0 min,  0.016 sec
     gradient                   ...        0 min,  0.066 sec
 * total energy  :   -87.1528942 Eh     change       -0.4320218E-04 Eh
   gradient norm :     0.0015661 Eh/α   predicted    -0.2648077E-04 ( -38.71%)
   displ. norm   :     0.5186540 α      lambda       -0.9734720E-04
   maximum displ.:     0.2833299 α      in ANC's #3, #6, #2, ...

........................................................................
.............................. CYCLE   36 ..............................
........................................................................

 iter      E             dE          RMSdq      gap      omega  full diag
   1    -88.2518923 -0.882519E+02  0.117E-01    2.42       0.0  T
   2    -88.2518964 -0.410569E-05  0.696E-02    2.42       1.0  T
   3    -88.2518722  0.241576E-04  0.201E-02    2.42       1.0  T
   4    -88.2518989 -0.266622E-04  0.381E-03    2.42       3.6  T
   5    -88.2518995 -0.571536E-06  0.187E-03    2.42       7.3  T
   6    -88.2518995 -0.465239E-07  0.977E-04    2.42      13.9  T
   7    -88.2518995 -0.214594E-07  0.403E-04    2.42      33.8  T
     SCC iter.                  ...        0 min,  0.023 sec
     gradient                   ...        0 min,  0.072 sec
 * total energy  :   -87.1529858 Eh     change       -0.9159515E-04 Eh
   gradient norm :     0.0053473 Eh/α   predicted    -0.5449313E-04 ( -40.51%)
   displ. norm   :     0.1984623 α      lambda       -0.5390336E-04
   maximum displ.:     0.1202579 α      in ANC's #3, #6, #2, ...

........................................................................
.............................. CYCLE   37 ..............................
........................................................................

 iter      E             dE          RMSdq      gap      omega  full diag
   1    -88.2516702 -0.882517E+02  0.414E-02    2.42       0.0  T
   2    -88.2516705 -0.279960E-06  0.245E-02    2.42       1.0  T
   3    -88.2516696  0.846253E-06  0.390E-03    2.42       3.5  T
   4    -88.2516706 -0.987785E-06  0.110E-03    2.42      12.3  T
   5    -88.2516706 -0.365221E-07  0.636E-04    2.42      21.4  T
   6    -88.2516706 -0.692336E-08  0.233E-04    2.42      58.4  T
     SCC iter.                  ...        0 min,  0.020 sec
     gradient                   ...        0 min,  0.071 sec
 * total energy  :   -87.1530316 Eh     change       -0.4580222E-04 Eh
   gradient norm :     0.0048369 Eh/α   predicted    -0.2801376E-04 ( -38.84%)
   displ. norm   :     0.3900018 α      lambda       -0.1299794E-03
   maximum displ.:     0.2532265 α      in ANC's #3, #6, #2, ...

........................................................................
.............................. CYCLE   38 ..............................
........................................................................

 iter      E             dE          RMSdq      gap      omega  full diag
   1    -88.2529205 -0.882529E+02  0.785E-02    2.42       0.0  T
   2    -88.2529215 -0.103379E-05  0.466E-02    2.42       1.0  T
   3    -88.2529125  0.903826E-05  0.110E-02    2.42       1.2  T
   4    -88.2529225 -0.100111E-04  0.212E-03    2.42       6.4  T
   5    -88.2529226 -0.119398E-06  0.117E-03    2.42      11.6  T
   6    -88.2529226 -0.947203E-08  0.506E-04    2.42      26.9  T
   7    -88.2529226 -0.612842E-08  0.184E-04    2.42      73.8  T
     SCC iter.                  ...        0 min,  0.062 sec
     gradient                   ...        0 min,  0.038 sec
 * total energy  :   -87.1531241 Eh     change       -0.9244376E-04 Eh
   gradient norm :     0.0040505 Eh/α   predicted    -0.7487797E-04 ( -19.00%)
   displ. norm   :     0.5283019 α      lambda       -0.1150563E-03
   maximum displ.:     0.3136091 α      in ANC's #3, #6, #2, ...

........................................................................
.............................. CYCLE   39 ..............................
........................................................................

 iter      E             dE          RMSdq      gap      omega  full diag
   1    -88.2487568 -0.882488E+02  0.109E-01    2.42       0.0  T
   2    -88.2487597 -0.287262E-05  0.651E-02    2.42       1.0  T
   3    -88.2487314  0.283316E-04  0.203E-02    2.42       1.0  T
   4    -88.2487624 -0.309847E-04  0.343E-03    2.42       4.0  T
   5    -88.2487628 -0.398124E-06  0.172E-03    2.42       7.9  T
   6    -88.2487628 -0.150507E-07  0.905E-04    2.42      15.0  T
   7    -88.2487628 -0.142880E-07  0.363E-04    2.42      37.4  T
     SCC iter.                  ...        0 min,  0.023 sec
     gradient                   ...        0 min,  0.077 sec
 * total energy  :   -87.1531640 Eh     change       -0.3990927E-04 Eh
   gradient norm :     0.0090417 Eh/α   predicted    -0.7358908E-04 (  84.39%)
   displ. norm   :     0.1054735 α      lambda       -0.1453065E-03
   maximum displ.:     0.0582342 α      in ANC's #3, #22, #1, ...

........................................................................
.............................. CYCLE   40 ..............................
........................................................................

 iter      E             dE          RMSdq      gap      omega  full diag
   1    -88.2533792 -0.882534E+02  0.277E-02    2.42       0.0  T
   2    -88.2533838 -0.457276E-05  0.183E-02    2.43       1.0  T
   3    -88.2533829  0.904180E-06  0.113E-02    2.42       1.2  T
   4    -88.2533872 -0.424900E-05  0.406E-03    2.42       3.4  T
   5    -88.2533879 -0.774693E-06  0.925E-04    2.42      14.7  T
   6    -88.2533880 -0.233370E-07  0.561E-04    2.42      24.2  T
     SCC iter.                  ...        0 min,  0.020 sec
     gradient                   ...        0 min,  0.083 sec
 * total energy  :   -87.1532281 Eh     change       -0.6415554E-04 Eh
   gradient norm :     0.0037841 Eh/α   predicted    -0.7346347E-04 (  14.51%)
   displ. norm   :     0.2052649 α      lambda       -0.7859009E-04
   maximum displ.:     0.1263315 α      in ANC's #3, #6, #2, ...

........................................................................
.............................. CYCLE   41 ..............................
........................................................................

 iter      E             dE          RMSdq      gap      omega  full diag
   1    -88.2530356 -0.882530E+02  0.467E-02    2.42       0.0  T
   2    -88.2530376 -0.200838E-05  0.283E-02    2.42       1.0  T
   3    -88.2530278  0.984877E-05  0.125E-02    2.42       1.1  T
   4    -88.2530386 -0.108374E-04  0.258E-03    2.42       5.3  T
   5    -88.2530389 -0.339524E-06  0.865E-04    2.42      15.7  T
   6    -88.2530389 -0.745030E-08  0.563E-04    2.42      24.2  T
     SCC iter.                  ...        0 min,  0.065 sec
     gradient                   ...        0 min,  0.039 sec
 * total energy  :   -87.1532741 Eh     change       -0.4593739E-04 Eh
   gradient norm :     0.0048946 Eh/α   predicted    -0.4095256E-04 ( -10.85%)
   displ. norm   :     0.3198423 α      lambda       -0.7191252E-04
   maximum displ.:     0.1910570 α      in ANC's #3, #6, #2, ...

........................................................................
.............................. CYCLE   42 ..............................
........................................................................

 iter      E             dE          RMSdq      gap      omega  full diag
   1    -88.2508666 -0.882509E+02  0.665E-02    2.42       0.0  T
   2    -88.2508679 -0.127182E-05  0.394E-02    2.42       1.0  T
   3    -88.2508660  0.184983E-05  0.645E-03    2.42       2.1  T
   4    -88.2508683 -0.226207E-05  0.195E-03    2.42       7.0  T
   5    -88.2508684 -0.117106E-06  0.108E-03    2.42      12.6  T
   6    -88.2508684 -0.142875E-07  0.589E-04    2.42      23.1  T
   7    -88.2508684 -0.820366E-08  0.176E-04    2.42      77.3  T
     SCC iter.                  ...        0 min,  0.023 sec
     gradient                   ...        0 min,  0.078 sec
 * total energy  :   -87.1533105 Eh     change       -0.3640699E-04 Eh
   gradient norm :     0.0057696 Eh/α   predicted    -0.3963564E-04 (   8.87%)
   displ. norm   :     0.1286943 α      lambda       -0.8036014E-04
   maximum displ.:     0.0568294 α      in ANC's #3, #2, #7, ...
 * RMSD in coord.:     0.5981681 α      energy gain  -0.1475889E-02 Eh

generating ANC from exact Hessian ...
Using Lindh-Hessian (1995)
 Shifting diagonal of input Hessian by    9.7029134975605072E-003
 Lowest  eigenvalues of input Hessian
    0.000000    0.000000    0.000000    0.000000    0.000000    0.000000
    0.010000    0.010083    0.010263    0.010589    0.010772    0.011255
    0.011725    0.012072    0.012436    0.012926    0.013678    0.014206
 Highest eigenvalues
    1.970794    2.073086    2.095367    2.131748    2.253510    2.342591


........................................................................
.............................. CYCLE   43 ..............................
........................................................................

 iter      E             dE          RMSdq      gap      omega  full diag
   1    -88.2513645 -0.882514E+02  0.331E-02    2.42       0.0  T
   2    -88.2513654 -0.908353E-06  0.197E-02    2.42       1.0  T
   3    -88.2513628  0.257442E-05  0.755E-03    2.42       1.8  T
   4    -88.2513658 -0.298242E-05  0.147E-03    2.42       9.2  T
   5    -88.2513659 -0.650512E-07  0.720E-04    2.42      18.9  T
   6    -88.2513659 -0.791385E-08  0.415E-04    2.42      32.8  T
     SCC iter.                  ...        0 min,  0.059 sec
     gradient                   ...        0 min,  0.039 sec
 * total energy  :   -87.1533564 Eh     change       -0.4585712E-04 Eh
   gradient norm :     0.0059223 Eh/α   predicted     0.0000000E+00 (-100.00%)
   displ. norm   :     0.0313980 α      lambda       -0.4328114E-04
   maximum displ.:     0.0101753 α      in ANC's #7, #17, #13, ...

........................................................................
.............................. CYCLE   44 ..............................
........................................................................

 iter      E             dE          RMSdq      gap      omega  full diag
   1    -88.2532341 -0.882532E+02  0.126E-02    2.42       0.0  T
   2    -88.2532349 -0.863727E-06  0.880E-03    2.42       1.5  T
   3    -88.2532347  0.210606E-06  0.531E-03    2.42       2.6  T
   4    -88.2532357 -0.954980E-06  0.177E-03    2.42       7.7  T
   5    -88.2532358 -0.153482E-06  0.421E-04    2.42      32.3  T
   6    -88.2532358 -0.541819E-08  0.241E-04    2.42      56.5  T
     SCC iter.                  ...        0 min,  0.020 sec
     gradient                   ...        0 min,  0.039 sec
 * total energy  :   -87.1533951 Eh     change       -0.3875544E-04 Eh
   gradient norm :     0.0016307 Eh/α   predicted    -0.2873005E-04 ( -25.87%)
   displ. norm   :     0.0710146 α      lambda       -0.2587655E-04
   maximum displ.:     0.0291797 α      in ANC's #7, #13, #17, ...

........................................................................
.............................. CYCLE   45 ..............................
........................................................................

 iter      E             dE          RMSdq      gap      omega  full diag
   1    -88.2546376 -0.882546E+02  0.209E-02    2.42       0.0  T
   2    -88.2546385 -0.961777E-06  0.127E-02    2.42       1.1  T
   3    -88.2546366  0.195723E-05  0.720E-03    2.42       1.9  T
   4    -88.2546389 -0.238867E-05  0.186E-03    2.42       7.3  T
   5    -88.2546391 -0.187328E-06  0.612E-04    2.42      22.2  T
   6    -88.2546391 -0.112360E-07  0.296E-04    2.42      46.0  T
     SCC iter.                  ...        0 min,  0.020 sec
     gradient                   ...        0 min,  0.084 sec
 * total energy  :   -87.1534193 Eh     change       -0.2416444E-04 Eh
   gradient norm :     0.0025835 Eh/α   predicted    -0.1296778E-04 ( -46.34%)
   displ. norm   :     0.0646134 α      lambda       -0.2202507E-04
   maximum displ.:     0.0307809 α      in ANC's #7, #6, #2, ...

........................................................................
.............................. CYCLE   46 ..............................
........................................................................

 iter      E             dE          RMSdq      gap      omega  full diag
   1    -88.2545626 -0.882546E+02  0.181E-02    2.42       0.0  T
   2    -88.2545629 -0.282196E-06  0.108E-02    2.42       1.3  T
   3    -88.2545623  0.605633E-06  0.429E-03    2.42       3.2  T
   4    -88.2545630 -0.759098E-06  0.614E-04    2.42      22.2  T
   5    -88.2545630 -0.366855E-08  0.385E-04    2.42      35.4  T
     SCC iter.                  ...        0 min,  0.017 sec
     gradient                   ...        0 min,  0.085 sec
 * total energy  :   -87.1534391 Eh     change       -0.1982753E-04 Eh
   gradient norm :     0.0023488 Eh/α   predicted    -0.1109675E-04 ( -44.03%)
   displ. norm   :     0.2772372 α      lambda       -0.8175764E-04
   maximum displ.:     0.1370492 α      in ANC's #7, #6, #2, ...

........................................................................
.............................. CYCLE   47 ..............................
........................................................................

 iter      E             dE          RMSdq      gap      omega  full diag
   1    -88.2531541 -0.882532E+02  0.757E-02    2.42       0.0  T
   2    -88.2531583 -0.421819E-05  0.450E-02    2.42       1.0  T
   3    -88.2531477  0.106130E-04  0.173E-02    2.42       1.0  T
   4    -88.2531608 -0.130720E-04  0.251E-03    2.42       5.4  T
   5    -88.2531609 -0.634360E-07  0.155E-03    2.42       8.8  T
   6    -88.2531609 -0.553040E-07  0.742E-04    2.42      18.3  T
   7    -88.2531609 -0.483094E-08  0.365E-04    2.42      37.3  T
     SCC iter.                  ...        0 min,  0.023 sec
     gradient                   ...        0 min,  0.078 sec
 * total energy  :   -87.1534868 Eh     change       -0.4769158E-04 Eh
   gradient norm :     0.0027716 Eh/α   predicted    -0.4402393E-04 (  -7.69%)
   displ. norm   :     0.0780417 α      lambda       -0.1963893E-04
   maximum displ.:     0.0396730 α      in ANC's #7, #6, #2, ...

........................................................................
.............................. CYCLE   48 ..............................
........................................................................

 iter      E             dE          RMSdq      gap      omega  full diag
   1    -88.2530779 -0.882531E+02  0.200E-02    2.42       0.0  T
   2    -88.2530781 -0.180147E-06  0.118E-02    2.42       1.1  T
   3    -88.2530772  0.903735E-06  0.427E-03    2.42       3.2  T
   4    -88.2530782 -0.103317E-05  0.763E-04    2.42      17.8  T
   5    -88.2530783 -0.202123E-07  0.431E-04    2.42      31.5  T
   6    -88.2530783 -0.416406E-08  0.185E-04    2.42      73.6  T
     SCC iter.                  ...        0 min,  0.065 sec
     gradient                   ...        0 min,  0.085 sec
 * total energy  :   -87.1535043 Eh     change       -0.1748783E-04 Eh
   gradient norm :     0.0024675 Eh/α   predicted    -0.9889082E-05 ( -43.45%)
   displ. norm   :     0.2375295 α      lambda       -0.7460183E-04
   maximum displ.:     0.1135980 α      in ANC's #7, #6, #8, ...

........................................................................
.............................. CYCLE   49 ..............................
........................................................................

 iter      E             dE          RMSdq      gap      omega  full diag
   1    -88.2531425 -0.882531E+02  0.561E-02    2.42       0.0  T
   2    -88.2531437 -0.112098E-05  0.332E-02    2.42       1.0  T
   3    -88.2531373  0.631166E-05  0.109E-02    2.42       1.2  T
   4    -88.2531445 -0.713172E-05  0.203E-03    2.42       6.7  T
   5    -88.2531446 -0.148818E-06  0.108E-03    2.42      12.5  T
   6    -88.2531446 -0.202972E-07  0.474E-04    2.42      28.7  T
   7    -88.2531447 -0.354107E-08  0.180E-04    2.42      75.4  T
     SCC iter.                  ...        0 min,  0.023 sec
     gradient                   ...        0 min,  0.078 sec
 * total energy  :   -87.1535579 Eh     change       -0.5366572E-04 Eh
   gradient norm :     0.0022629 Eh/α   predicted    -0.3942706E-04 ( -26.53%)
   displ. norm   :     0.2679019 α      lambda       -0.4886631E-04
   maximum displ.:     0.1219632 α      in ANC's #6, #7, #8, ...

........................................................................
.............................. CYCLE   50 ..............................
........................................................................

 iter      E             dE          RMSdq      gap      omega  full diag
   1    -88.2519574 -0.882520E+02  0.631E-02    2.41       0.0  T
   2    -88.2519589 -0.144958E-05  0.374E-02    2.41       1.0  T
   3    -88.2519542  0.471978E-05  0.106E-02    2.41       1.3  T
   4    -88.2519598 -0.563043E-05  0.179E-03    2.41       7.6  T
   5    -88.2519598 -0.344182E-07  0.114E-03    2.41      11.9  T
   6    -88.2519598 -0.233700E-07  0.488E-04    2.41      27.9  T
   7    -88.2519599 -0.252390E-08  0.187E-04    2.41      72.6  T
     SCC iter.                  ...        0 min,  0.023 sec
     gradient                   ...        0 min,  0.078 sec
 * total energy  :   -87.1535908 Eh     change       -0.3283424E-04 Eh
   gradient norm :     0.0042305 Eh/α   predicted    -0.2618742E-04 ( -20.24%)
   displ. norm   :     0.1747088 α      lambda       -0.5088883E-04
   maximum displ.:     0.0875719 α      in ANC's #6, #8, #2, ...

........................................................................
.............................. CYCLE   51 ..............................
........................................................................

 iter      E             dE          RMSdq      gap      omega  full diag
   1    -88.2527405 -0.882527E+02  0.372E-02    2.41       0.0  T
   2    -88.2527409 -0.407058E-06  0.220E-02    2.41       1.0  T
   3    -88.2527384  0.243022E-05  0.650E-03    2.41       2.1  T
   4    -88.2527411 -0.268078E-05  0.129E-03    2.41      10.5  T
   5    -88.2527412 -0.693659E-07  0.559E-04    2.41      24.4  T
   6    -88.2527412 -0.108543E-08  0.295E-04    2.41      46.2  T
     SCC iter.                  ...        0 min,  0.065 sec
     gradient                   ...        0 min,  0.039 sec
 * total energy  :   -87.1536261 Eh     change       -0.3529962E-04 Eh
   gradient norm :     0.0033473 Eh/α   predicted    -0.2623930E-04 ( -25.67%)
   displ. norm   :     0.2657546 α      lambda       -0.5848839E-04
   maximum displ.:     0.1371719 α      in ANC's #6, #2, #8, ...

........................................................................
.............................. CYCLE   52 ..............................
........................................................................

 iter      E             dE          RMSdq      gap      omega  full diag
   1    -88.2519839 -0.882520E+02  0.594E-02    2.41       0.0  T
   2    -88.2519850 -0.111084E-05  0.353E-02    2.41       1.0  T
   3    -88.2519817  0.326322E-05  0.857E-03    2.41       1.6  T
   4    -88.2519855 -0.382851E-05  0.168E-03    2.41       8.1  T
   5    -88.2519856 -0.522162E-07  0.107E-03    2.41      12.7  T
   6    -88.2519856 -0.320783E-07  0.478E-04    2.41      28.4  T
   7    -88.2519856 -0.265483E-08  0.209E-04    2.41      65.2  T
     SCC iter.                  ...        0 min,  0.023 sec
     gradient                   ...        0 min,  0.084 sec
 * total energy  :   -87.1536714 Eh     change       -0.4529860E-04 Eh
   gradient norm :     0.0038717 Eh/α   predicted    -0.3131041E-04 ( -30.88%)
   displ. norm   :     0.2839233 α      lambda       -0.1006627E-03
   maximum displ.:     0.1589798 α      in ANC's #6, #2, #3, ...

........................................................................
.............................. CYCLE   53 ..............................
........................................................................

 iter      E             dE          RMSdq      gap      omega  full diag
   1    -88.2530399 -0.882530E+02  0.604E-02    2.42       0.0  T
   2    -88.2530411 -0.121888E-05  0.359E-02    2.42       1.0  T
   3    -88.2530397  0.140122E-05  0.585E-03    2.42       2.3  T
   4    -88.2530416 -0.182982E-05  0.146E-03    2.42       9.3  T
   5    -88.2530416 -0.360610E-07  0.829E-04    2.42      16.4  T
   6    -88.2530416 -0.602672E-08  0.486E-04    2.42      28.0  T
     SCC iter.                  ...        0 min,  0.020 sec
     gradient                   ...        0 min,  0.088 sec
 * total energy  :   -87.1537383 Eh     change       -0.6692227E-04 Eh
   gradient norm :     0.0032539 Eh/α   predicted    -0.5439308E-04 ( -18.72%)
   displ. norm   :     0.3208849 α      lambda       -0.6510615E-04
   maximum displ.:     0.1765155 α      in ANC's #6, #2, #3, ...

........................................................................
.............................. CYCLE   54 ..............................
........................................................................

 iter      E             dE          RMSdq      gap      omega  full diag
   1    -88.2511808 -0.882512E+02  0.718E-02    2.42       0.0  T
   2    -88.2511827 -0.190909E-05  0.425E-02    2.42       1.0  T
   3    -88.2511793  0.337220E-05  0.870E-03    2.42       1.6  T
   4    -88.2511833 -0.402996E-05  0.214E-03    2.42       6.4  T
   5    -88.2511834 -0.114862E-06  0.126E-03    2.42      10.8  T
   6    -88.2511835 -0.425050E-07  0.653E-04    2.42      20.8  T
   7    -88.2511835 -0.824328E-08  0.217E-04    2.42      62.6  T
     SCC iter.                  ...        0 min,  0.068 sec
     gradient                   ...        0 min,  0.038 sec
 * total energy  :   -87.1537772 Eh     change       -0.3892330E-04 Eh
   gradient norm :     0.0058972 Eh/α   predicted    -0.3591349E-04 (  -7.73%)
   displ. norm   :     0.2223745 α      lambda       -0.1107387E-03
   maximum displ.:     0.1227231 α      in ANC's #6, #3, #2, ...

........................................................................
.............................. CYCLE   55 ..............................
........................................................................

 iter      E             dE          RMSdq      gap      omega  full diag
   1    -88.2530556 -0.882531E+02  0.471E-02    2.43       0.0  T
   2    -88.2530572 -0.163125E-05  0.281E-02    2.43       1.0  T
   3    -88.2530528  0.435809E-05  0.870E-03    2.43       1.6  T
   4    -88.2530577 -0.482239E-05  0.228E-03    2.43       6.0  T
   5    -88.2530579 -0.235403E-06  0.859E-04    2.43      15.8  T
   6    -88.2530579 -0.676437E-08  0.504E-04    2.43      27.0  T
     SCC iter.                  ...        0 min,  0.020 sec
     gradient                   ...        0 min,  0.090 sec
 * total energy  :   -87.1538470 Eh     change       -0.6981320E-04 Eh
   gradient norm :     0.0036415 Eh/α   predicted    -0.5810887E-04 ( -16.77%)
   displ. norm   :     0.2964466 α      lambda       -0.7144234E-04
   maximum displ.:     0.1657378 α      in ANC's #6, #2, #3, ...

........................................................................
.............................. CYCLE   56 ..............................
........................................................................

 iter      E             dE          RMSdq      gap      omega  full diag
   1    -88.2520545 -0.882521E+02  0.640E-02    2.44       0.0  T
   2    -88.2520557 -0.121508E-05  0.379E-02    2.43       1.0  T
   3    -88.2520520  0.371803E-05  0.857E-03    2.44       1.6  T
   4    -88.2520563 -0.432109E-05  0.195E-03    2.43       7.0  T
   5    -88.2520564 -0.999213E-07  0.110E-03    2.43      12.4  T
   6    -88.2520564 -0.191702E-07  0.568E-04    2.43      24.0  T
   7    -88.2520564 -0.838247E-08  0.198E-04    2.43      68.6  T
     SCC iter.                  ...        0 min,  0.023 sec
     gradient                   ...        0 min,  0.078 sec
 * total energy  :   -87.1538998 Eh     change       -0.5279290E-04 Eh
   gradient norm :     0.0047879 Eh/α   predicted    -0.3886196E-04 ( -26.39%)
   displ. norm   :     0.2536200 α      lambda       -0.1075209E-03
   maximum displ.:     0.1352739 α      in ANC's #3, #6, #2, ...

........................................................................
.............................. CYCLE   57 ..............................
........................................................................

 iter      E             dE          RMSdq      gap      omega  full diag
   1    -88.2540802 -0.882541E+02  0.520E-02    2.44       0.0  T
   2    -88.2540815 -0.131496E-05  0.315E-02    2.44       1.0  T
   3    -88.2540701  0.114017E-04  0.128E-02    2.44       1.1  T
   4    -88.2540826 -0.124559E-04  0.203E-03    2.44       6.7  T
   5    -88.2540827 -0.147688E-06  0.915E-04    2.44      14.9  T
   6    -88.2540828 -0.892715E-08  0.507E-04    2.44      26.8  T
     SCC iter.                  ...        0 min,  0.066 sec
[...]
     DOI: 10.1021/acsomega.9b02011
   
   for metadynamics refer to:
   * S. Grimme, J. Chem. Theory Comput., 2019, 155, 2847-2862
     DOI: 10.1021/acs.jctc.9b00143
   
   for SPH calculations refer to:
   * S. Spicher and S. Grimme, J. Chem. Theory Comput., 2021, 17, 1701-1714
     DOI: 10.1021/acs.jctc.0c01306
   
   for ONIOM refer to:
   * C. Plett, A. Katbashev, S. Ehlert, S. Grimme, M. Bursch,
     Phys. Chem. Chem. Phys., 2023, 25, 17860-17868. DOI: 10.1039/D3CP02178E
   
   for DIPRO refer to:
   * J. Kohn, N. Gildemeister, S. Grimme, D. Fazzi, A. Hansen,
     J. Chem. Phys., 2023, just accepted.
   
   for PTB refer to:
   * S. Grimme, M. Mueller, A. Hansen, J. Chem. Phys., 2023, 158, 124111.
     DOI: 10.1063/5.0137838
   
   with help from (in alphabetical order)
   P. Atkinson, C. Bannwarth, F. Bohle, G. Brandenburg, E. Caldeweyher
   M. Checinski, S. Dohm, S. Ehlert, S. Ehrlich, I. Gerasimov, C. Hölzer
   A. Katbashev, J. Kohn, J. Koopman, C. Lavigne, S. Lehtola, F. März, M. Müller,
   F. Musil, H. Neugebauer, J. Pisarek, C. Plett, P. Pracht, F. Pultar,
   J. Seibert, P. Shushkov, S. Spicher, M. Stahn, M. Steiner, T. Strunk,
   J. Stückrath, T. Rose, and J. Unsleber
   
 * started run on 2025/05/15 at 16:11:15.924     
   ID    Z sym.   atoms
    1    8 O      1, 9, 13, 20, 23, 28
    2    6 C      2-5, 7, 8, 10-12, 14-19, 21, 22, 24-27, 29
    3    7 N      6
    4    1 H      30-54

           -------------------------------------------------
          |                Calculation Setup                |
           -------------------------------------------------

          program call               : xtb /rds/general/user/hgt20/home/callum/QDESCP/Colchicine_rdkit_conf_7/Colchicine_rdkit_conf_7.xyz --acc 1 --gfn 2 --chrg 0 --uhf 2 --etemp 300 --input /rds/general/user/hgt20/home/callum/QDESCP/Colchicine_rdkit_conf_7/Colchicine_rdkit_conf_7_xtb.inp -P 1
          hostname                   : login-c
          coordinate file            : /rds/general/user/hgt20/home/callum/QDESCP/Colchicine_rdkit_conf_7/Colchicine_rdkit_conf_7.xyz
          omp threads                :                     1


           -------------------------------------------------
          |                 G F N 2 - x T B                 |
           -------------------------------------------------

        Reference                      10.1021/acs.jctc.8b01176
      * Hamiltonian:
        H0-scaling (s, p, d)           1.850000    2.230000    2.230000
        zeta-weighting                 0.500000
      * Dispersion:
        s8                             2.700000
        a1                             0.520000
        a2                             5.000000
        s9                             5.000000
      * Repulsion:
        kExp                           1.500000    1.000000
        rExp                           1.000000
      * Coulomb:
        alpha                          2.000000
        third order                    shell-resolved
        anisotropic                    true
        a3                             3.000000
        a5                             4.000000
        cn-shift                       1.200000
        cn-exp                         4.000000
        max-rad                        5.000000


          ...................................................
          :                      SETUP                      :
          :.................................................:
          :  # basis functions                 141          :
          :  # atomic orbitals                 141          :
          :  # shells                           83          :
          :  # electrons                       154          :
          :  max. iterations                   250          :
          :  Hamiltonian                  GFN2-xTB          :
          :  restarted?                      false          :
          :  GBSA solvation                  false          :
          :  PC potential                    false          :
          :  electronic temp.          300.0000000     K    :
          :  accuracy                    1.0000000          :
          :  -> integral cutoff          0.2500000E+02      :
          :  -> integral neglect         0.1000000E-07      :
          :  -> SCF convergence          0.1000000E-05 Eh   :
          :  -> wf. convergence          0.1000000E-03 e    :
          :  Broyden damping             0.4000000          :
          :  net charge                          0          :
          :  unpaired electrons                  2          :
          ...................................................

 iter      E             dE          RMSdq      gap      omega  full diag
   1    -87.9668331 -0.879668E+02  0.442E+00    0.20       0.0  T
   2    -87.9259751  0.408580E-01  0.286E+00    0.16       1.0  T
   3    -87.7749286  0.151047E+00  0.231E+00    0.28       1.0  T
   4    -88.1380924 -0.363164E+00  0.820E-01    0.26       1.0  T
   5    -88.1528068 -0.147144E-01  0.361E-01    0.09       1.0  T
   6    -88.1583385 -0.553176E-02  0.257E-01    0.23       1.0  T
   7    -88.1600226 -0.168407E-02  0.128E-01    0.14       1.0  T
   8    -88.1599713  0.512750E-04  0.709E-02    0.15       1.0  T
   9    -88.1602859 -0.314576E-03  0.218E-02    0.15       1.0  T
  10    -88.1603003 -0.144190E-04  0.136E-02    0.15       1.0  T
  11    -88.1603031 -0.277144E-05  0.893E-03    0.15       1.5  T
  12    -88.1603064 -0.335484E-05  0.287E-03    0.15       4.7  T
  13    -88.1603067 -0.259365E-06  0.100E-03    0.15      13.6  T
  14    -88.1603067 -0.218398E-07  0.480E-04    0.15      28.4  T
  15    -88.1603067 -0.427458E-08  0.253E-04    0.15      53.8  T

   *** convergence criteria satisfied after 15 iterations ***

         #    Occupation            Energy/Eh            Energy/eV
      -------------------------------------------------------------
         1        2.0000           -0.7388629             -20.1055
       ...           ...                  ...                  ...
        72        2.0000           -0.4025162             -10.9530
        73        2.0000           -0.3971243             -10.8063
        74        2.0000           -0.3910064             -10.6398
        75        1.9999           -0.3841629             -10.4536
        76        1.9982           -0.3813870             -10.3781
        77        1.0019           -0.3693970             -10.0518
        78        0.9437           -0.2726076              -7.4180 (HOMO)
        79        0.0563           -0.2672499              -7.2722 (LUMO)
        80                         -0.2387714              -6.4973
        81                         -0.2299587              -6.2575
        82                         -0.2001148              -5.4454
        83                         -0.1370947              -3.7305
       ...                                ...                  ...
       141                          0.7072776              19.2460
      -------------------------------------------------------------
                  HL-Gap            0.0053577 Eh            0.1458 eV
             Fermi-level           -0.3226479 Eh           -8.7797 eV

 transition dipole moment (au) for excitation:          77          78
     X       Y       Z   
  -0.4276  -1.9326  -0.2945  total (au/Debye):    2.001   5.087
 dE (eV)             :    2.634
 oscillator strength :  0.36544E+00

 SCC (total)                   0 d,  0 h,  0 min,  0.187 sec
 SCC setup                      ...        0 min,  0.001 sec (  0.278%)
 Dispersion                     ...        0 min,  0.001 sec (  0.393%)
 classical contributions        ...        0 min,  0.000 sec (  0.128%)
 integral evaluation            ...        0 min,  0.012 sec (  6.415%)
 iterations                     ...        0 min,  0.085 sec ( 45.531%)
 molecular gradient             ...        0 min,  0.078 sec ( 41.601%)
 printout                       ...        0 min,  0.011 sec (  5.650%)

         :::::::::::::::::::::::::::::::::::::::::::::::::::::
         ::                     SUMMARY                     ::
         :::::::::::::::::::::::::::::::::::::::::::::::::::::
         :: total energy             -87.060219779449 Eh    ::
         :: gradient norm              0.135659790817 Eh/a0 ::
         :: HOMO-LUMO gap              0.145790802243 eV    ::
         ::.................................................::
         :: SCC energy               -88.158750567451 Eh    ::
         :: -> isotropic ES            0.120701608500 Eh    ::
         :: -> anisotropic ES          0.009787326948 Eh    ::
         :: -> anisotropic XC          0.017059830135 Eh    ::
         :: -> dispersion             -0.063661963599 Eh    ::
         :: repulsion energy           1.098530788002 Eh    ::
         :: add. restraining           0.000000000000 Eh    ::
         :: total charge              -0.000000000000 e     ::
         :::::::::::::::::::::::::::::::::::::::::::::::::::::

           -------------------------------------------------
          |                Property Printout                |
           -------------------------------------------------

    * Orbital Energies and Occupations

         #    Occupation            Energy/Eh            Energy/eV
      -------------------------------------------------------------
         1        2.0000           -0.7388629             -20.1055
       ...           ...                  ...                  ...
        66        2.0000           -0.4449678             -12.1082
        67        2.0000           -0.4383831             -11.9290
        68        2.0000           -0.4356299             -11.8541
        69        2.0000           -0.4285843             -11.6624
        70        2.0000           -0.4195423             -11.4163
        71        2.0000           -0.4140873             -11.2679
        72        2.0000           -0.4025162             -10.9530
        73        2.0000           -0.3971243             -10.8063
        74        2.0000           -0.3910064             -10.6398
        75        1.9999           -0.3841629             -10.4536
        76        1.9982           -0.3813870             -10.3781
        77        1.0019           -0.3693970             -10.0518
        78        0.9437           -0.2726076              -7.4180 (HOMO)
        79        0.0563           -0.2672499              -7.2722 (LUMO)
        80                         -0.2387714              -6.4973
        81                         -0.2299587              -6.2575
        82                         -0.2001148              -5.4454
        83                         -0.1370947              -3.7305
        84                         -0.1263618              -3.4385
        85                         -0.1046804              -2.8485
        86                         -0.0119579              -0.3254
        87                          0.0009090               0.0247
        88                          0.0139439               0.3794
        89                          0.0241744               0.6578
       ...                                ...                  ...
       141                          0.7072776              19.2460
      -------------------------------------------------------------
                  HL-Gap            0.0053577 Eh            0.1458 eV
             Fermi-level           -0.3226479 Eh           -8.7797 eV

     #   Z          covCN         q      C6AA      α(0)
     1   8 O        0.859    -0.354    20.790     6.113
     2   6 C        2.818     0.217    23.426     7.930
     3   6 C        2.904    -0.081    30.030     8.985
     4   6 C        2.949     0.008    27.837     8.654
     5   6 C        3.802     0.035    19.981     6.364
     6   7 N        2.690    -0.195    25.222     7.459
     7   6 C        2.749     0.278    22.296     7.732
     8   6 C        3.757    -0.142    23.282     6.879
     9   8 O        0.858    -0.433    22.359     6.340
    10   6 C        3.806    -0.063    21.710     6.633
    11   6 C        3.809    -0.063    21.700     6.631
    12   6 C        2.838     0.100    25.773     8.320
    13   8 O        1.708    -0.209    17.468     5.643
    14   6 C        3.641     0.029    20.430     6.499
    15   6 C        2.891    -0.056    29.402     8.890
    16   6 C        2.907    -0.047    29.168     8.856
    17   6 C        2.955     0.014    27.697     8.632
    18   6 C        2.984    -0.027    28.663     8.782
    19   6 C        2.872     0.105    25.667     8.305
    20   8 O        1.703    -0.288    18.778     5.851
    21   6 C        3.649     0.038    20.243     6.463
    22   6 C        2.855     0.096    25.863     8.335
    23   8 O        1.704    -0.266    18.413     5.793
    24   6 C        3.639     0.037    20.306     6.481
    25   6 C        2.974     0.003    27.948     8.672
    26   6 C        2.920    -0.086    30.158     9.006
    27   6 C        2.857     0.110    25.561     8.287
    28   8 O        1.704    -0.261    18.326     5.780
    29   6 C        3.642     0.035    20.330     6.482
    30   1 H        0.925     0.064     2.151     2.294
    31   1 H        0.924     0.083     1.953     2.185
    32   1 H        0.860     0.169     1.278     1.771
    33   1 H        0.925     0.071     2.077     2.254
    34   1 H        0.925     0.047     2.354     2.399
    35   1 H        0.925     0.054     2.266     2.354
    36   1 H        0.924     0.052     2.299     2.371
    37   1 H        0.924     0.049     2.337     2.391
    38   1 H        0.924     0.045     2.389     2.417
    39   1 H        0.924     0.050     2.315     2.379
    40   1 H        0.924     0.052     2.297     2.370
    41   1 H        0.925     0.074     2.041     2.234
    42   1 H        0.924     0.053     2.288     2.365
    43   1 H        0.925     0.046     2.366     2.406
    44   1 H        0.925     0.054     2.267     2.355
    45   1 H        0.924     0.052     2.299     2.371
    46   1 H        0.925     0.061     2.184     2.311
    47   1 H        0.924     0.027     2.631     2.537
    48   1 H        0.925     0.060     2.201     2.320
    49   1 H        0.924     0.054     2.274     2.358
    50   1 H        0.924     0.041     2.431     2.438
    51   1 H        0.926     0.050     2.322     2.383
    52   1 H        0.924     0.045     2.381     2.413
    53   1 H        0.924     0.046     2.376     2.411
    54   1 H        0.925     0.065     2.137     2.286

 Mol. C6AA /au·bohr⁶  :      31594.400788
 Mol. C8AA /au·bohr⁸  :     737077.639526
 Mol. α(0) /au        :        273.169482


Wiberg/Mayer (AO) data.
largest (>0.10) Wiberg bond orders for each atom

 ---------------------------------------------------------------------------
     #   Z sym  total        # sym  WBO       # sym  WBO       # sym  WBO
 ---------------------------------------------------------------------------
     1   8 O    1.987 --     2 C    1.714
     2   6 C    3.917 --     1 O    1.714     3 C    1.080    12 C    1.019
     3   6 C    3.834 --     4 C    1.481     2 C    1.080    30 H    0.954
     4   6 C    3.954 --     3 C    1.481    17 C    1.276     5 C    0.984
     5   6 C    3.966 --     4 C    0.984     6 N    0.984    10 C    0.965
                            31 H    0.949
     6   7 N    3.430 --     7 C    1.242     5 C    0.984    32 H    0.921
                             9 O    0.195
     7   6 C    3.951 --     9 O    1.696     6 N    1.242     8 C    0.975
     8   6 C    3.993 --    33 H    0.983    34 H    0.976     7 C    0.975
                            35 H    0.969
     9   8 O    2.009 --     7 C    1.696     6 N    0.195
    10   6 C    3.984 --    11 C    0.985    37 H    0.975    36 H    0.974
                             5 C    0.965
    11   6 C    3.995 --    25 C    1.018    10 C    0.985    38 H    0.974
                            39 H    0.965
    12   6 C    3.755 --    15 C    1.312    13 O    1.149     2 C    1.019
    13   8 O    2.300 --    12 C    1.149    14 C    0.984
    14   6 C    3.939 --    13 O    0.984    41 H    0.977    40 H    0.971
                            42 H    0.968
    15   6 C    3.942 --    16 C    1.455    12 C    1.312    43 H    0.956
    16   6 C    3.880 --    15 C    1.455    17 C    1.199    44 H    0.963
    17   6 C    3.878 --     4 C    1.276    16 C    1.199    18 C    1.105
    18   6 C    3.962 --    19 C    1.292    25 C    1.289    17 C    1.105
    19   6 C    3.930 --    22 C    1.360    18 C    1.292    20 O    1.022
    20   8 O    2.132 --    19 C    1.022    21 C    0.967
    21   6 C    3.943 --    46 H    0.980    47 H    0.978    45 H    0.976
                            20 O    0.967
    22   6 C    3.923 --    19 C    1.360    27 C    1.272    23 O    1.054
    23   8 O    2.201 --    22 C    1.054    24 C    0.972
    24   6 C    3.940 --    50 H    0.981    48 H    0.979    49 H    0.975
                            23 O    0.972
    25   6 C    3.965 --    26 C    1.441    18 C    1.289    11 C    1.018
    26   6 C    3.973 --    25 C    1.441    27 C    1.350    51 H    0.960
    27   6 C    3.878 --    26 C    1.350    22 C    1.272    28 O    1.060
    28   8 O    2.207 --    27 C    1.060    29 C    0.983
    29   6 C    3.942 --    28 O    0.983    54 H    0.979    52 H    0.975
                            53 H    0.975
    30   1 H    0.994 --     3 C    0.954
    31   1 H    0.992 --     5 C    0.949
    32   1 H    0.971 --     6 N    0.921
    33   1 H    0.995 --     8 C    0.983
    34   1 H    0.998 --     8 C    0.976
    35   1 H    0.997 --     8 C    0.969
    36   1 H    0.996 --    10 C    0.974
    37   1 H    0.997 --    10 C    0.975
    38   1 H    0.997 --    11 C    0.974
    39   1 H    0.997 --    11 C    0.965
    40   1 H    0.995 --    14 C    0.971
    41   1 H    0.994 --    14 C    0.977
    42   1 H    0.994 --    14 C    0.968
    43   1 H    0.997 --    15 C    0.956
    44   1 H    0.996 --    16 C    0.963
    45   1 H    0.997 --    21 C    0.976
    46   1 H    0.995 --    21 C    0.980
    47   1 H    0.999 --    21 C    0.978
    48   1 H    0.995 --    24 C    0.979
    49   1 H    0.996 --    24 C    0.975
    50   1 H    0.998 --    24 C    0.981
    51   1 H    0.997 --    26 C    0.960
    52   1 H    0.995 --    29 C    0.975
    53   1 H    0.996 --    29 C    0.975
    54   1 H    0.995 --    29 C    0.979
 ---------------------------------------------------------------------------

Topologies differ in total number of bonds
Writing topology from bond orders to xtbtopo.mol

molecular dipole:
                 x           y           z       tot (Debye)
 q only:        2.903       0.605      -0.866
   full:        3.563       0.865      -0.992       9.654
molecular quadrupole (traceless):
                xx          xy          yy          xz          yz          zz
 q only:      -26.271      -1.324      27.089       5.539     -12.183      -0.818
  q+dip:      -31.120      -1.169      32.264       5.101     -12.988      -1.144
   full:      -33.876      -1.788      31.524       4.926     -14.046       2.352


           -------------------------------------------------
          | TOTAL ENERGY              -87.060219779449 Eh   |
          | GRADIENT NORM               0.135659790817 Eh/α |
          | HOMO-LUMO GAP               0.145790802243 eV   |
           -------------------------------------------------

------------------------------------------------------------------------
 * finished run on 2025/05/15 at 16:11:16.129     
------------------------------------------------------------------------
 total:
 * wall-time:     0 d,  0 h,  0 min,  0.205 sec
 *  cpu-time:     0 d,  0 h,  0 min,  0.129 sec
 * ratio c/w:     0.630 speedup
 SCF:
 * wall-time:     0 d,  0 h,  0 min,  0.187 sec
 *  cpu-time:     0 d,  0 h,  0 min,  0.113 sec
 * ratio c/w:     0.606 speedup


