54
 energy: -87.154181844307 gnorm: 0.000955866762 xtb: 6.7.1 (edcfbbe)
O           -4.56234316720526       -3.09289246518478       -1.13528341107311
C           -3.42385358157379       -2.75697775822309       -0.84444467138305
C           -3.16807408283681       -1.44190630060675       -0.29113201296033
C           -2.06102373574337       -0.66451887818252       -0.17159327341208
C           -2.29638337167864        0.71529020561208        0.42097628425278
N           -1.32616298765824        1.06446557263026        1.43794377009082
C           -1.68789723578747        1.60629786588382        2.62455134380529
C           -0.50400373775921        1.90586339661463        3.52386501726782
O           -2.83910868344000        1.81745055071253        2.93645823464549
C           -2.38471370698676        1.77796774672043       -0.69683802242006
C           -1.39040598577726        1.53581716204149       -1.83825556307636
C           -2.31695161205682       -3.74046868531454       -0.95346438284489
O           -2.82521235718529       -4.98364971806112       -1.01047658910432
C           -1.97867854995941       -6.10379609767924       -1.08507066300139
C           -0.98496061048553       -3.46470540285978       -1.05292663525416
C           -0.31389287714055       -2.22781991588311       -1.01434217054113
C           -0.73968807336561       -0.98739869181041       -0.62232628633345
C            0.27426346776462        0.09119290699001       -0.66807597255291
C            1.54549086500117       -0.09475663114172       -0.10691330520928
O            1.85218062518211       -1.30149108125679        0.48614800128827
C            1.98821614937162       -1.26923439984211        1.89308868569112
C            2.51146858375050        0.92140499770031       -0.14431670381514
O            3.70008564958962        0.62948890697466        0.46892697033200
C            4.89862242003611        1.17023007172080       -0.04630635146649
C           -0.01625815058514        1.30885828773150       -1.28606712389446
C            0.93579898466068        2.31201358704034       -1.31918352905250
C            2.19198949458330        2.14928164267330       -0.74883611076623
O            3.14256029353154        3.13246456829486       -0.72291520514237
C            2.87667220684053        4.34880320846047       -1.37810007647728
H           -4.10043119303241       -1.00067423935013        0.04616774070342
H           -3.25241541289381        0.72096551690683        0.95683205563616
H           -0.34937262874950        0.95266688533833        1.21927295107454
H           -0.84455295856456        2.46622351329072        4.38961241394911
H            0.24822416756064        2.48161377575835        2.98918121360145
H           -0.05601492888247        0.97330912385729        3.86142179352157
H           -3.39611649096429        1.77298500039238       -1.10472012240215
H           -2.20666830119204        2.75564072815926       -0.24539174697297
H           -1.39529077438783        2.39749050434560       -2.50705779440521
H           -1.70701644353473        0.65949074325264       -2.40785721772036
H           -1.28052379459697       -6.13886364252557       -0.24224734094880
H           -2.63794894114149       -6.96967243614170       -1.04473816184364
H           -1.41783541787515       -6.12237096164477       -2.02573552070963
H           -0.32844316564530       -4.30398544772040       -1.24387385253602
H            0.72576879448434       -2.28633379770189       -1.30709931870009
H            2.73209619927029       -0.53595805293997        2.21080300963871
H            2.31186164823979       -2.26700413604576        2.18259928638557
H            1.02464359437736       -1.04943954518823        2.36915520638235
H            5.69364153048991        0.54481887879654        0.35978040277987
H            5.04557416924211        2.20416329763334        0.27302252941342
H            4.92076766748030        1.12205876885152       -1.13745851490303
H            0.67724186711985        3.24515282483200       -1.79287715818564
H            2.68310666447431        4.19856652754178       -2.44464918663839
H            2.03272401322199        4.87610996049585       -0.92252046757674
H            3.77914390241740        4.94597155804154       -1.25691244711605
