66
 energy: -102.675496937128 gnorm: 0.000754240649 xtb: 6.7.1 (edcfbbe)
C           -6.36277018993823       -0.69303683728441        2.65425868652318
C           -5.67423579753828       -1.46240395549222        1.53512639677071
C           -5.88234138157660       -0.77892320365546        0.17470406712653
C           -5.19811098470939        0.53826993630649        0.11990910810880
N           -5.75356468733832        1.71589024927239        0.30956528901053
C           -4.77948152835119        2.65132820844435        0.22469535025899
C           -5.03796684795079        4.10216526469257        0.38704072931906
C           -3.56884209451541        2.02944468218962       -0.02591396053182
N           -3.87040799547868        0.67843377772697       -0.08522736060139
N           -2.89996958212682       -0.24789881300331       -0.34095797681016
C           -1.62602616235646        0.19161784666714       -0.52235624273244
C           -0.57499394898227       -0.80095061377414       -0.80854489224347
C           -0.72042492123236       -2.20002873696217       -0.69781257881437
C            0.37613245950574       -3.02198382528666       -0.95961705608765
C            1.59528647532319       -2.48419033372667       -1.32472905166376
C            1.72988778358305       -1.11555122866334       -1.45091508518927
S            3.33464072281766       -0.45117777733075       -1.89382075174857
O            3.14975182641615        0.83043971379343       -2.51048648315746
N            4.00714848563137       -0.36156405131641       -0.35905227264931
C            3.65061716788332        0.82603694429196        0.38983606658384
C            4.50023953167738        2.03231378873942       -0.00911493249734
N            5.91229336107838        1.71358619302566        0.14362896693383
C            6.24647215783909        0.58422996589894       -0.70740888742466
C            5.42810392098365       -0.63372854711271       -0.28630290714949
C            6.75522972719625        2.87185951971942       -0.10923999980469
C            8.16618775841711        2.67856562013713        0.43562729147114
O            4.04985707655802       -1.45961302630211       -2.62179932614619
C            0.66080679503583       -0.28625632817907       -1.20224168736097
O           -1.93584902872711       -2.69696749464683       -0.33558624093844
C           -2.12484179225548       -4.10355932218649       -0.23139686860005
C           -3.57175190334489       -4.34610957691355        0.16742296311712
N           -1.28136362543593        1.42828109864926       -0.46088117544793
C           -2.18772777861481        2.45597396772438       -0.20381864137080
O           -1.81873786806378        3.60761030459915       -0.13343010733196
H           -6.01700827245342        0.33719438997758        2.67433417409612
H           -6.15473230382556       -1.15141931186784        3.61820236995149
H           -7.43866374110533       -0.68355012839834        2.49993698201864
H           -6.07659428722125       -2.47668673793618        1.48564383405647
H           -4.60413850718229       -1.53423949036645        1.74972311545224
H           -6.94694282694130       -0.60920911947446        0.01618564493202
H           -5.50964621882100       -1.42204763116368       -0.62855435229294
H           -5.41416825429966        4.30495758048841        1.38901816370259
H           -5.79396272683796        4.42836093882851       -0.32542705974559
H           -4.11529533983165        4.65235258411584        0.22605309165781
H           -3.14381659837188       -1.22971875753214       -0.33807210694964
H            0.28427602537233       -4.09253083001394       -0.87810891604696
H            2.44528627067619       -3.11329243100420       -1.53264672086750
H            3.80352685087751        0.60041724271726        1.44971696799545
H            2.59547776140292        1.03418130977656        0.21463333313979
H            4.25374507224382        2.30900748274758       -1.04670157752888
H            4.25723187217356        2.87124887036979        0.64710565532759
H            7.30760084941773        0.35723096087469       -0.59966230487620
H            6.03268418596758        0.79949886629989       -1.77068915921119
H            5.66306435585639       -0.90440347006283        0.74703730615870
H            5.62942320182237       -1.47655974575386       -0.94681879283573
H            6.79686082456488        3.11513289272441       -1.18498360339371
H            6.29827730836035        3.72008054437629        0.40680719845069
H            8.70143712659914        3.62409779282772        0.40665416835354
H            8.72758000933854        1.95466134770677       -0.14842407487405
H            8.11676975247599        2.33358508153127        1.46461655972930
H            0.75013873786603        0.78215760657526       -1.31856729314242
H           -1.44977241104323       -4.51452967307220        0.52863677997602
H           -1.91288860194219       -4.57793197321109       -1.19724951466199
H           -3.78169985144546       -3.88258257434672        1.12746086164686
H           -3.75160856361051       -5.41399885784351        0.24679926773660
H           -4.24578883151217       -3.93356816997782       -0.57922042686024
