----- Optimization -----
      -----------------------------------------------------------      
     |                   =====================                   |     
     |                           x T B                           |     
     |                   =====================                   |     
     |                         S. Grimme                         |     
     |          Mulliken Center for Theoretical Chemistry        |     
     |                    University of Bonn                     |     
      -----------------------------------------------------------      

   * xtb version 6.7.1 (edcfbbe) compiled by 'conda@3ef47c1a292c' on 2024-11-25

   xtb is free software: you can redistribute it and/or modify it under
   the terms of the GNU Lesser General Public License as published by
   the Free Software Foundation, either version 3 of the License, or
   (at your option) any later version.
   
   xtb is distributed in the hope that it will be useful,
   but WITHOUT ANY WARRANTY; without even the implied warranty of
   MERCHANTABILITY or FITNESS FOR A PARTICULAR PURPOSE.  See the
   GNU Lesser General Public License for more details.
   
   Cite this work as:
   * C. Bannwarth, E. Caldeweyher, S. Ehlert, A. Hansen, P. Pracht,
     J. Seibert, S. Spicher, S. Grimme, WIREs Comput. Mol. Sci., 2020, 11,
     e01493. DOI: 10.1002/wcms.1493
   
   for GFN2-xTB:
   * C. Bannwarth, S. Ehlert and S. Grimme., J. Chem. Theory Comput., 2019,
     15, 1652-1671. DOI: 10.1021/acs.jctc.8b01176
   for GFN1-xTB:
   * S. Grimme, C. Bannwarth, P. Shushkov, J. Chem. Theory Comput., 2017,
     13, 1989-2009. DOI: 10.1021/acs.jctc.7b00118
   for GFN0-xTB:
   * P. Pracht, E. Caldeweyher, S. Ehlert, S. Grimme, ChemRxiv, 2019, preprint.
     DOI: 10.26434/chemrxiv.8326202.v1
   for GFN-FF:
   * S. Spicher and S. Grimme, Angew. Chem. Int. Ed., 2020, 59, 15665-15673.
     DOI: 10.1002/anie.202004239
   
   for ALPB and GBSA implicit solvation:
   * S. Ehlert, M. Stahn, S. Spicher, S. Grimme, J. Chem. Theory Comput.,
     2021, 17, 4250-4261. DOI: 10.1021/acs.jctc.1c00471
   
   for ddCOSMO and CPCM-X implicit solvation:
   * M. Stahn, S. Ehlert, S. Grimme, J. Phys. Chem. A,
     2023, XX, XXXX-XXXX. DOI: 10.1021/acs.jpca.3c04382
   
   for DFT-D4:
   * E. Caldeweyher, C. Bannwarth and S. Grimme, J. Chem. Phys., 2017,
     147, 034112. DOI: 10.1063/1.4993215
   * E. Caldeweyher, S. Ehlert, A. Hansen, H. Neugebauer, S. Spicher,
     C. Bannwarth and S. Grimme, J. Chem. Phys., 2019, 150, 154122.
     DOI: 10.1063/1.5090222
   * E. Caldeweyher, J.-M. Mewes, S. Ehlert and S. Grimme, Phys. Chem. Chem. Phys.
     2020, 22, 8499-8512. DOI: 10.1039/D0CP00502A
   
   for sTDA-xTB:
   * S. Grimme and C. Bannwarth, J. Chem. Phys., 2016, 145, 054103.
     DOI: 10.1063/1.4959605
   
   in the mass-spec context:
   * V. Asgeirsson, C. Bauer and S. Grimme, Chem. Sci., 2017, 8, 4879.
     DOI: 10.1039/c7sc00601b
   * J. Koopman and S. Grimme, ACS Omega 2019, 4, 12, 15120-15133.
     DOI: 10.1021/acsomega.9b02011
   
   for metadynamics refer to:
   * S. Grimme, J. Chem. Theory Comput., 2019, 155, 2847-2862
     DOI: 10.1021/acs.jctc.9b00143
   
   for SPH calculations refer to:
   * S. Spicher and S. Grimme, J. Chem. Theory Comput., 2021, 17, 1701-1714
     DOI: 10.1021/acs.jctc.0c01306
   
   for ONIOM refer to:
   * C. Plett, A. Katbashev, S. Ehlert, S. Grimme, M. Bursch,
     Phys. Chem. Chem. Phys., 2023, 25, 17860-17868. DOI: 10.1039/D3CP02178E
   
   for DIPRO refer to:
   * J. Kohn, N. Gildemeister, S. Grimme, D. Fazzi, A. Hansen,
     J. Chem. Phys., 2023, just accepted.
   
   for PTB refer to:
   * S. Grimme, M. Mueller, A. Hansen, J. Chem. Phys., 2023, 158, 124111.
     DOI: 10.1063/5.0137838
   
   with help from (in alphabetical order)
   P. Atkinson, C. Bannwarth, F. Bohle, G. Brandenburg, E. Caldeweyher
   M. Checinski, S. Dohm, S. Ehlert, S. Ehrlich, I. Gerasimov, C. Hölzer
   A. Katbashev, J. Kohn, J. Koopman, C. Lavigne, S. Lehtola, F. März, M. Müller,
   F. Musil, H. Neugebauer, J. Pisarek, C. Plett, P. Pracht, F. Pultar,
   J. Seibert, P. Shushkov, S. Spicher, M. Stahn, M. Steiner, T. Strunk,
   J. Stückrath, T. Rose, and J. Unsleber
   
 * started run on 2025/05/15 at 16:17:38.216     
   ID    Z sym.   atoms
    1    8 O      1, 21
    2    6 C      2, 3, 5-15, 17-20, 22-24
    3    7 N      4, 16
    4    1 H      25-50

           -------------------------------------------------
          |                Calculation Setup                |
           -------------------------------------------------

          program call               : xtb /rds/general/user/hgt20/home/callum/QDESCP/Hydroquinine_rdkit_conf_8/Hydroquinine_rdkit_conf_8.xyz --opt normal --acc 1 --gfn 2 --chrg 0 --uhf 0 -P 1
          hostname                   : login-c
          coordinate file            : /rds/general/user/hgt20/home/callum/QDESCP/Hydroquinine_rdkit_conf_8/Hydroquinine_rdkit_conf_8.xyz
          omp threads                :                     1


           -------------------------------------------------
          |                 G F N 2 - x T B                 |
           -------------------------------------------------

        Reference                      10.1021/acs.jctc.8b01176
      * Hamiltonian:
        H0-scaling (s, p, d)           1.850000    2.230000    2.230000
        zeta-weighting                 0.500000
      * Dispersion:
        s8                             2.700000
        a1                             0.520000
        a2                             5.000000
        s9                             5.000000
      * Repulsion:
        kExp                           1.500000    1.000000
        rExp                           1.000000
      * Coulomb:
        alpha                          2.000000
        third order                    shell-resolved
        anisotropic                    true
        a3                             3.000000
        a5                             4.000000
        cn-shift                       1.200000
        cn-exp                         4.000000
        max-rad                        5.000000


          ...................................................
          :                      SETUP                      :
          :.................................................:
          :  # basis functions                 122          :
          :  # atomic orbitals                 122          :
          :  # shells                           74          :
          :  # electrons                       128          :
          :  max. iterations                   250          :
          :  Hamiltonian                  GFN2-xTB          :
          :  restarted?                      false          :
          :  GBSA solvation                  false          :
          :  PC potential                    false          :
          :  electronic temp.          300.0000000     K    :
          :  accuracy                    1.0000000          :
          :  -> integral cutoff          0.2500000E+02      :
          :  -> integral neglect         0.1000000E-07      :
          :  -> SCF convergence          0.1000000E-05 Eh   :
          :  -> wf. convergence          0.1000000E-03 e    :
          :  Broyden damping             0.4000000          :
          :  net charge                          0          :
          :  unpaired electrons                  0          :
          ...................................................

 iter      E             dE          RMSdq      gap      omega  full diag
   1    -70.9330142 -0.709330E+02  0.347E+00    2.46       0.0  T
   2    -71.0075510 -0.745368E-01  0.204E+00    2.48       1.0  T
   3    -70.9942316  0.133194E-01  0.952E-01    2.30       1.0  T
   4    -71.0095086 -0.152770E-01  0.439E-01    2.31       1.0  T
   5    -71.0169239 -0.741532E-02  0.118E-01    2.20       1.0  T
   6    -71.0174824 -0.558428E-03  0.572E-02    2.25       1.0  T
   7    -71.0175470 -0.646762E-04  0.241E-02    2.23       1.0  T
   8    -71.0175535 -0.648864E-05  0.902E-03    2.24       1.6  T
   9    -71.0175547 -0.120650E-05  0.292E-03    2.24       4.8  T
  10    -71.0175549 -0.134877E-06  0.124E-03    2.24      11.4  T
  11    -71.0175549 -0.210572E-07  0.621E-04    2.24      22.8  T
  12    -71.0175549 -0.435564E-08  0.227E-04    2.24      62.4  T

   *** convergence criteria satisfied after 12 iterations ***

         #    Occupation            Energy/Eh            Energy/eV
      -------------------------------------------------------------
         1        2.0000           -0.7142972             -19.4370
       ...           ...                  ...                  ...
        58        2.0000           -0.4205770             -11.4445
        59        2.0000           -0.4157643             -11.3135
        60        2.0000           -0.3993883             -10.8679
        61        2.0000           -0.3972138             -10.8087
        62        2.0000           -0.3712350             -10.1018
        63        2.0000           -0.3648388              -9.9278
        64        2.0000           -0.3592639              -9.7761 (HOMO)
        65                         -0.2770440              -7.5388 (LUMO)
        66                         -0.2246225              -6.1123
        67                         -0.1995124              -5.4290
        68                         -0.1514308              -4.1206
        69                         -0.0660619              -1.7976
       ...                                ...                  ...
       122                          0.6747450              18.3607
      -------------------------------------------------------------
                  HL-Gap            0.0822198 Eh            2.2373 eV
             Fermi-level           -0.3181540 Eh           -8.6574 eV

 SCC (total)                   0 d,  0 h,  0 min,  0.117 sec
 SCC setup                      ...        0 min,  0.000 sec (  0.375%)
 Dispersion                     ...        0 min,  0.001 sec (  0.537%)
 classical contributions        ...        0 min,  0.000 sec (  0.169%)
 integral evaluation            ...        0 min,  0.009 sec (  8.045%)
 iterations                     ...        0 min,  0.073 sec ( 62.478%)
 molecular gradient             ...        0 min,  0.033 sec ( 28.217%)
 printout                       ...        0 min,  0.000 sec (  0.172%)

         :::::::::::::::::::::::::::::::::::::::::::::::::::::
         ::                     SUMMARY                     ::
         :::::::::::::::::::::::::::::::::::::::::::::::::::::
         :: total energy             -70.088379201824 Eh    ::
         :: gradient norm              0.099737741241 Eh/a0 ::
         :: HOMO-LUMO gap              2.237315450614 eV    ::
         ::.................................................::
         :: SCC energy               -71.016754038479 Eh    ::
         :: -> isotropic ES            0.056979118510 Eh    ::
         :: -> anisotropic ES          0.009695815663 Eh    ::
         :: -> anisotropic XC          0.036187762318 Eh    ::
         :: -> dispersion             -0.054577120259 Eh    ::
         :: repulsion energy           0.928374836655 Eh    ::
         :: add. restraining           0.000000000000 Eh    ::
         :: total charge              -0.000000000000 e     ::
         :::::::::::::::::::::::::::::::::::::::::::::::::::::

      ----------------------------------------------------------- 
     |                   =====================                   |
     |                        A N C O P T                        |
     |                   =====================                   |
     |               Approximate Normal Coordinate               |
     |                Rational Function Optimizer                |
      ----------------------------------------------------------- 
      ----------------------------------------------------------- 
     |                   =====================                   |
     |                        A N C O P T                        |
     |                   =====================                   |
     |               Approximate Normal Coordinate               |
     |                Rational Function Optimizer                |
      ----------------------------------------------------------- 

          ...................................................
          :                      SETUP                      :
          :.................................................:
          :   optimization level            normal          :
          :   max. optcycles                   200          :
          :   ANC micro-cycles                  20          :
          :   degrees of freedom               144          :
          :.................................................:
          :   RF solver                   davidson          :
          :   write xtbopt.log                true          :
          :   linear?                        false          :
          :   energy convergence         0.5000000E-05 Eh   :
          :   grad. convergence          0.1000000E-02 Eh/α :
          :   maxmium RF displ.          1.0000000          :
          :   Hlow (freq-cutoff)         0.1000000E-01      :
          :   Hmax (freq-cutoff)         5.0000000          :
          :   S6 in model hess.         20.0000000          :
          ...................................................

generating ANC from exact Hessian ...
Using Lindh-Hessian (1995)
 Shifting diagonal of input Hessian by    9.8091287614624767E-003
 Lowest  eigenvalues of input Hessian
    0.000000    0.000000    0.000000    0.000000    0.000000    0.000000
    0.010000    0.010092    0.010522    0.010797    0.011655    0.012187
    0.013001    0.013526    0.014683    0.015128    0.015491    0.016810
 Highest eigenvalues
    1.790724    1.831932    1.957061    1.972430    2.066389    2.165353


........................................................................
.............................. CYCLE    1 ..............................
........................................................................

 iter      E             dE          RMSdq      gap      omega  full diag
   1    -71.0175549 -0.710176E+02  0.775E-05    2.24       0.0  T
   2    -71.0175549 -0.507896E-10  0.489E-05    2.24     289.3  T
   3    -71.0175549 -0.146088E-10  0.333E-05    2.24     425.2  T
     SCC iter.                  ...        0 min,  0.008 sec
     gradient                   ...        0 min,  0.074 sec
 * total energy  :   -70.0883792 Eh     change       -0.1237041E-08 Eh
   gradient norm :     0.0997390 Eh/α   predicted     0.0000000E+00 (-100.00%)
   displ. norm   :     0.3249329 α      lambda       -0.1436120E-01
   maximum displ.:     0.0960471 α      in ANC's #12, #35, #47, ...

........................................................................
.............................. CYCLE    2 ..............................
........................................................................

 iter      E             dE          RMSdq      gap      omega  full diag
   1    -71.0515630 -0.710516E+02  0.172E-01    2.34       0.0  T
   2    -71.0516521 -0.890758E-04  0.106E-01    2.37       1.0  T
   3    -71.0516225  0.296503E-04  0.369E-02    2.36       1.0  T
   4    -71.0516677 -0.451928E-04  0.824E-03    2.37       1.7  T
   5    -71.0516710 -0.333134E-05  0.365E-03    2.37       3.9  T
   6    -71.0516713 -0.304831E-06  0.175E-03    2.37       8.1  T
   7    -71.0516713 -0.306311E-07  0.797E-04    2.37      17.7  T
   8    -71.0516713 -0.151665E-07  0.273E-04    2.37      51.8  T
     SCC iter.                  ...        0 min,  0.062 sec
     gradient                   ...        0 min,  0.033 sec
 * total energy  :   -70.0980988 Eh     change       -0.9719640E-02 Eh
   gradient norm :     0.0420003 Eh/α   predicted    -0.7945715E-02 ( -18.25%)
   displ. norm   :     0.2518659 α      lambda       -0.3769549E-02
   maximum displ.:     0.1208413 α      in ANC's #12, #8, #26, ...

........................................................................
.............................. CYCLE    3 ..............................
........................................................................

 iter      E             dE          RMSdq      gap      omega  full diag
   1    -71.0712899 -0.710713E+02  0.959E-02    2.44       0.0  T
   2    -71.0713330 -0.430747E-04  0.602E-02    2.45       1.0  T
   3    -71.0713266  0.635234E-05  0.241E-02    2.45       1.0  T
   4    -71.0713396 -0.129590E-04  0.499E-03    2.45       2.8  T
   5    -71.0713406 -0.107835E-05  0.191E-03    2.45       7.4  T
   6    -71.0713407 -0.817381E-07  0.944E-04    2.45      15.0  T
   7    -71.0713407 -0.903370E-08  0.382E-04    2.45      37.0  T
     SCC iter.                  ...        0 min,  0.017 sec
     gradient                   ...        0 min,  0.066 sec
 * total energy  :   -70.1001785 Eh     change       -0.2079676E-02 Eh
   gradient norm :     0.0093863 Eh/α   predicted    -0.2005430E-02 (  -3.57%)
   displ. norm   :     0.1433246 α      lambda       -0.3964216E-03
   maximum displ.:     0.0741794 α      in ANC's #12, #8, #3, ...

........................................................................
.............................. CYCLE    4 ..............................
........................................................................

 iter      E             dE          RMSdq      gap      omega  full diag
   1    -71.0723002 -0.710723E+02  0.341E-02    2.45       0.0  T
   2    -71.0723024 -0.219616E-05  0.206E-02    2.45       1.0  T
   3    -71.0722999  0.249774E-05  0.735E-03    2.46       1.9  T
   4    -71.0723028 -0.287542E-05  0.213E-03    2.45       6.6  T
   5    -71.0723030 -0.201802E-06  0.645E-04    2.45      21.9  T
   6    -71.0723030 -0.735365E-08  0.313E-04    2.45      45.2  T
     SCC iter.                  ...        0 min,  0.066 sec
     gradient                   ...        0 min,  0.033 sec
 * total energy  :   -70.1004651 Eh     change       -0.2866147E-03 Eh
   gradient norm :     0.0048187 Eh/α   predicted    -0.2022996E-03 ( -29.42%)
   displ. norm   :     0.1878079 α      lambda       -0.2692721E-03
   maximum displ.:     0.1002924 α      in ANC's #8, #3, #12, ...

........................................................................
.............................. CYCLE    5 ..............................
........................................................................

 iter      E             dE          RMSdq      gap      omega  full diag
   1    -71.0721479 -0.710721E+02  0.411E-02    2.45       0.0  T
   2    -71.0721495 -0.160589E-05  0.247E-02    2.45       1.0  T
   3    -71.0721455  0.400757E-05  0.889E-03    2.46       1.6  T
   4    -71.0721501 -0.457094E-05  0.183E-03    2.45       7.7  T
   5    -71.0721502 -0.120397E-06  0.678E-04    2.45      20.9  T
   6    -71.0721502 -0.485085E-08  0.323E-04    2.45      43.8  T
     SCC iter.                  ...        0 min,  0.015 sec
     gradient                   ...        0 min,  0.061 sec
 * total energy  :   -70.1006298 Eh     change       -0.1646422E-03 Eh
   gradient norm :     0.0028549 Eh/α   predicted    -0.1394287E-03 ( -15.31%)
   displ. norm   :     0.1057473 α      lambda       -0.6643317E-04
   maximum displ.:     0.0588828 α      in ANC's #3, #8, #7, ...

........................................................................
.............................. CYCLE    6 ..............................
........................................................................

 iter      E             dE          RMSdq      gap      omega  full diag
   1    -71.0722231 -0.710722E+02  0.236E-02    2.45       0.0  T
   2    -71.0722233 -0.221913E-06  0.139E-02    2.45       1.0  T
   3    -71.0722227  0.593045E-06  0.381E-03    2.45       3.7  T
   4    -71.0722234 -0.703527E-06  0.756E-04    2.45      18.7  T
   5    -71.0722234 -0.927244E-08  0.338E-04    2.45      41.9  T
     SCC iter.                  ...        0 min,  0.013 sec
     gradient                   ...        0 min,  0.078 sec
 * total energy  :   -70.1006819 Eh     change       -0.5208251E-04 Eh
   gradient norm :     0.0024955 Eh/α   predicted    -0.3360850E-04 ( -35.47%)
   displ. norm   :     0.1591766 α      lambda       -0.8332071E-04
   maximum displ.:     0.0891994 α      in ANC's #3, #5, #7, ...

........................................................................
.............................. CYCLE    7 ..............................
........................................................................

 iter      E             dE          RMSdq      gap      omega  full diag
   1    -71.0723757 -0.710724E+02  0.366E-02    2.45       0.0  T
   2    -71.0723762 -0.519127E-06  0.214E-02    2.45       1.0  T
   3    -71.0723758  0.464591E-06  0.403E-03    2.45       3.5  T
   4    -71.0723764 -0.641746E-06  0.117E-03    2.45      12.1  T
   5    -71.0723764 -0.196319E-07  0.476E-04    2.45      29.7  T
   6    -71.0723765 -0.687677E-08  0.148E-04    2.45      95.5  T
     SCC iter.                  ...        0 min,  0.015 sec
     gradient                   ...        0 min,  0.078 sec
 * total energy  :   -70.1007455 Eh     change       -0.6360786E-04 Eh
   gradient norm :     0.0019938 Eh/α   predicted    -0.4271750E-04 ( -32.84%)
   displ. norm   :     0.2801016 α      lambda       -0.7329551E-04
   maximum displ.:     0.1561526 α      in ANC's #3, #5, #7, ...

........................................................................
.............................. CYCLE    8 ..............................
........................................................................

 iter      E             dE          RMSdq      gap      omega  full diag
   1    -71.0724570 -0.710725E+02  0.645E-02    2.45       0.0  T
   2    -71.0724584 -0.143432E-05  0.376E-02    2.45       1.0  T
   3    -71.0724579  0.484744E-06  0.520E-03    2.45       2.7  T
   4    -71.0724589 -0.950757E-06  0.197E-03    2.45       7.2  T
   5    -71.0724589 -0.513801E-07  0.686E-04    2.45      20.6  T
   6    -71.0724589 -0.165599E-07  0.196E-04    2.45      72.2  T
     SCC iter.                  ...        0 min,  0.015 sec
     gradient                   ...        0 min,  0.071 sec
 * total energy  :   -70.1008147 Eh     change       -0.6925496E-04 Eh
   gradient norm :     0.0027871 Eh/α   predicted    -0.3792650E-04 ( -45.24%)
   displ. norm   :     0.1033632 α      lambda       -0.3719572E-04
   maximum displ.:     0.0559989 α      in ANC's #3, #5, #4, ...

........................................................................
.............................. CYCLE    9 ..............................
........................................................................

 iter      E             dE          RMSdq      gap      omega  full diag
   1    -71.0727932 -0.710728E+02  0.226E-02    2.45       0.0  T
   2    -71.0727934 -0.174836E-06  0.132E-02    2.45       1.1  T
   3    -71.0727934 -0.828028E-08  0.121E-03    2.45      11.7  T
   4    -71.0727934 -0.422694E-07  0.610E-04    2.45      23.2  T
   5    -71.0727934 -0.474910E-08  0.291E-04    2.45      48.6  T
     SCC iter.                  ...        0 min,  0.012 sec
     gradient                   ...        0 min,  0.076 sec
 * total energy  :   -70.1008468 Eh     change       -0.3206221E-04 Eh
   gradient norm :     0.0019948 Eh/α   predicted    -0.1879854E-04 ( -41.37%)
   displ. norm   :     0.2951863 α      lambda       -0.6452407E-04
   maximum displ.:     0.1544013 α      in ANC's #3, #4, #5, ...

........................................................................
.............................. CYCLE   10 ..............................
........................................................................

 iter      E             dE          RMSdq      gap      omega  full diag
   1    -71.0729334 -0.710729E+02  0.641E-02    2.45       0.0  T
   2    -71.0729347 -0.138801E-05  0.375E-02    2.45       1.0  T
   3    -71.0729348 -0.103587E-06  0.333E-03    2.45       4.3  T
   4    -71.0729352 -0.308799E-06  0.161E-03    2.45       8.8  T
   5    -71.0729352 -0.215467E-07  0.690E-04    2.45      20.5  T
   6    -71.0729352 -0.181060E-07  0.233E-04    2.45      60.8  T
     SCC iter.                  ...        0 min,  0.015 sec
     gradient                   ...        0 min,  0.075 sec
 * total energy  :   -70.1009018 Eh     change       -0.5505101E-04 Eh
   gradient norm :     0.0017187 Eh/α   predicted    -0.3351228E-04 ( -39.13%)
   displ. norm   :     0.1016311 α      lambda       -0.1521926E-04
   maximum displ.:     0.0512778 α      in ANC's #4, #3, #2, ...

........................................................................
.............................. CYCLE   11 ..............................
........................................................................

 iter      E             dE          RMSdq      gap      omega  full diag
   1    -71.0729524 -0.710730E+02  0.225E-02    2.45       0.0  T
   2    -71.0729525 -0.142195E-06  0.132E-02    2.45       1.1  T
   3    -71.0729524  0.108690E-06  0.188E-03    2.45       7.5  T
   4    -71.0729526 -0.163655E-06  0.678E-04    2.45      20.9  T
   5    -71.0729526 -0.559609E-08  0.281E-04    2.45      50.3  T
     SCC iter.                  ...        0 min,  0.012 sec
     gradient                   ...        0 min,  0.066 sec
 * total energy  :   -70.1009209 Eh     change       -0.1905576E-04 Eh
   gradient norm :     0.0013941 Eh/α   predicted    -0.7648330E-05 ( -59.86%)
   displ. norm   :     0.1720319 α      lambda       -0.2743899E-04
   maximum displ.:     0.0916633 α      in ANC's #4, #2, #3, ...

........................................................................
.............................. CYCLE   12 ..............................
........................................................................

 iter      E             dE          RMSdq      gap      omega  full diag
   1    -71.0730005 -0.710730E+02  0.395E-02    2.45       0.0  T
   2    -71.0730009 -0.361836E-06  0.233E-02    2.45       1.0  T
   3    -71.0730006  0.262142E-06  0.308E-03    2.45       4.6  T
   4    -71.0730011 -0.417619E-06  0.115E-03    2.45      12.3  T
   5    -71.0730011 -0.129305E-07  0.473E-04    2.45      29.9  T
   6    -71.0730011 -0.451521E-08  0.163E-04    2.45      87.0  T
     SCC iter.                  ...        0 min,  0.015 sec
     gradient                   ...        0 min,  0.078 sec
 * total energy  :   -70.1009479 Eh     change       -0.2704579E-04 Eh
   gradient norm :     0.0009034 Eh/α   predicted    -0.1390043E-04 ( -48.60%)
   displ. norm   :     0.1185889 α      lambda       -0.1147312E-04
   maximum displ.:     0.0666977 α      in ANC's #4, #2, #3, ...

........................................................................
.............................. CYCLE   13 ..............................
........................................................................

 iter      E             dE          RMSdq      gap      omega  full diag
   1    -71.0727140 -0.710727E+02  0.262E-02    2.45       0.0  T
   2    -71.0727142 -0.187369E-06  0.154E-02    2.45       1.0  T
   3    -71.0727141  0.150339E-06  0.218E-03    2.45       6.5  T
   4    -71.0727143 -0.221794E-06  0.801E-04    2.45      17.7  T
   5    -71.0727143 -0.890958E-08  0.330E-04    2.45      42.9  T
     SCC iter.                  ...        0 min,  0.013 sec
     gradient                   ...        0 min,  0.078 sec
 * total energy  :   -70.1009593 Eh     change       -0.1140082E-04 Eh
   gradient norm :     0.0009698 Eh/α   predicted    -0.5772792E-05 ( -49.37%)
   displ. norm   :     0.0861367 α      lambda       -0.7908950E-05
   maximum displ.:     0.0506124 α      in ANC's #4, #2, #3, ...

........................................................................
.............................. CYCLE   14 ..............................
........................................................................

 iter      E             dE          RMSdq      gap      omega  full diag
   1    -71.0729294 -0.710729E+02  0.177E-02    2.45       0.0  T
   2    -71.0729295 -0.724709E-07  0.104E-02    2.45       1.4  T
   3    -71.0729295  0.357105E-07  0.112E-03    2.45      12.6  T
   4    -71.0729295 -0.651653E-07  0.438E-04    2.45      32.3  T
   5    -71.0729295 -0.153234E-08  0.184E-04    2.45      76.9  T
     SCC iter.                  ...        0 min,  0.012 sec
     gradient                   ...        0 min,  0.071 sec
 * total energy  :   -70.1009688 Eh     change       -0.9511324E-05 Eh
   gradient norm :     0.0007756 Eh/α   predicted    -0.3972504E-05 ( -58.23%)
   displ. norm   :     0.0981602 α      lambda       -0.9121475E-05
   maximum displ.:     0.0594304 α      in ANC's #2, #4, #5, ...

........................................................................
.............................. CYCLE   15 ..............................
........................................................................

 iter      E             dE          RMSdq      gap      omega  full diag
   1    -71.0730938 -0.710731E+02  0.183E-02    2.45       0.0  T
   2    -71.0730939 -0.792235E-07  0.107E-02    2.45       1.3  T
   3    -71.0730938  0.884282E-07  0.147E-03    2.45       9.7  T
   4    -71.0730939 -0.123634E-06  0.424E-04    2.45      33.4  T
   5    -71.0730939 -0.782492E-09  0.218E-04    2.45      65.0  T
     SCC iter.                  ...        0 min,  0.013 sec
     gradient                   ...        0 min,  0.072 sec
 * total energy  :   -70.1009793 Eh     change       -0.1046205E-04 Eh
   gradient norm :     0.0005454 Eh/α   predicted    -0.4584342E-05 ( -56.18%)
   displ. norm   :     0.0935812 α      lambda       -0.7070033E-05
   maximum displ.:     0.0598859 α      in ANC's #2, #4, #5, ...

........................................................................
.............................. CYCLE   16 ..............................
........................................................................

 iter      E             dE          RMSdq      gap      omega  full diag
   1    -71.0731455 -0.710731E+02  0.166E-02    2.45       0.0  T
   2    -71.0731455 -0.442987E-07  0.978E-03    2.45       1.4  T
   3    -71.0731454  0.704697E-07  0.125E-03    2.45      11.3  T
   4    -71.0731455 -0.920183E-07  0.346E-04    2.45      40.9  T
   5    -71.0731455 -0.569713E-09  0.188E-04    2.45      75.0  T
     SCC iter.                  ...        0 min,  0.012 sec
     gradient                   ...        0 min,  0.084 sec
 * total energy  :   -70.1009871 Eh     change       -0.7778984E-05 Eh
   gradient norm :     0.0005196 Eh/α   predicted    -0.3553110E-05 ( -54.32%)
   displ. norm   :     0.0777022 α      lambda       -0.5187495E-05
   maximum displ.:     0.0518202 α      in ANC's #2, #4, #5, ...

........................................................................
.............................. CYCLE   17 ..............................
........................................................................

 iter      E             dE          RMSdq      gap      omega  full diag
   1    -71.0731578 -0.710732E+02  0.133E-02    2.45       0.0  T
   2    -71.0731578 -0.338894E-07  0.785E-03    2.45       1.8  T
   3    -71.0731577  0.962292E-07  0.139E-03    2.45      10.2  T
   4    -71.0731578 -0.116025E-06  0.319E-04    2.45      44.3  T
   5    -71.0731578 -0.533689E-09  0.187E-04    2.45      75.6  T
     SCC iter.                  ...        0 min,  0.012 sec
     gradient                   ...        0 min,  0.072 sec
 * total energy  :   -70.1009932 Eh     change       -0.6082055E-05 Eh
   gradient norm :     0.0005568 Eh/α   predicted    -0.2601594E-05 ( -57.23%)
   displ. norm   :     0.0792218 α      lambda       -0.5112742E-05
   maximum displ.:     0.0539689 α      in ANC's #2, #4, #5, ...

........................................................................
.............................. CYCLE   18 ..............................
........................................................................

 iter      E             dE          RMSdq      gap      omega  full diag
   1    -71.0730711 -0.710731E+02  0.140E-02    2.45       0.0  T
   2    -71.0730712 -0.345482E-07  0.828E-03    2.45       1.7  T
   3    -71.0730711  0.686843E-07  0.118E-03    2.45      12.0  T
   4    -71.0730712 -0.852965E-07  0.329E-04    2.45      43.0  T
   5    -71.0730712 -0.872944E-09  0.190E-04    2.45      74.4  T
     SCC iter.                  ...        0 min,  0.012 sec
     gradient                   ...        0 min,  0.072 sec
 * total energy  :   -70.1009994 Eh     change       -0.6267855E-05 Eh
   gradient norm :     0.0004849 Eh/α   predicted    -0.2567987E-05 ( -59.03%)
   displ. norm   :     0.0838830 α      lambda       -0.5030643E-05
   maximum displ.:     0.0577266 α      in ANC's #2, #4, #1, ...

........................................................................
.............................. CYCLE   19 ..............................
........................................................................

 iter      E             dE          RMSdq      gap      omega  full diag
   1    -71.0730376 -0.710730E+02  0.141E-02    2.45       0.0  T
   2    -71.0730376 -0.427645E-07  0.838E-03    2.45       1.7  T
   3    -71.0730376  0.495413E-07  0.108E-03    2.45      13.1  T
   4    -71.0730377 -0.671202E-07  0.361E-04    2.45      39.1  T
   5    -71.0730377 -0.114846E-08  0.206E-04    2.45      68.5  T
     SCC iter.                  ...        0 min,  0.012 sec
     gradient                   ...        0 min,  0.077 sec
 * total energy  :   -70.1010053 Eh     change       -0.5833012E-05 Eh
   gradient norm :     0.0003991 Eh/α   predicted    -0.2525545E-05 ( -56.70%)
   displ. norm   :     0.0731550 α      lambda       -0.3786701E-05
   maximum displ.:     0.0515898 α      in ANC's #2, #4, #1, ...

........................................................................
.............................. CYCLE   20 ..............................
........................................................................

 iter      E             dE          RMSdq      gap      omega  full diag
   1    -71.0729123 -0.710729E+02  0.114E-02    2.45       0.0  T
   2    -71.0729124 -0.244882E-07  0.675E-03    2.45       2.1  T
   3    -71.0729123  0.217816E-07  0.819E-04    2.45      17.3  T
   4    -71.0729124 -0.325655E-07  0.280E-04    2.45      50.4  T
     SCC iter.                  ...        0 min,  0.010 sec
     gradient                   ...        0 min,  0.033 sec
 * total energy  :   -70.1010096 Eh     change       -0.4309450E-05 Eh
   gradient norm :     0.0003940 Eh/α   predicted    -0.1900697E-05 ( -55.89%)
   displ. norm   :     0.0595308 α      lambda       -0.2921931E-05
   maximum displ.:     0.0426023 α      in ANC's #2, #4, #1, ...

   *** GEOMETRY OPTIMIZATION CONVERGED AFTER 20 ITERATIONS ***

------------------------------------------------------------------------
 total energy gain   :        -0.0126304 Eh       -7.9257 kcal/mol
 total RMSD          :         0.2718639 a0        0.1439 Å
 total power (kW/mol):        -1.6580528 (step)  -16.5788 (real)
------------------------------------------------------------------------

 ANCopt (total)                0 d,  0 h,  0 min,  2.000 sec
 optimizer setup                ...        0 min,  0.000 sec (  0.004%)
 model hessian                  ...        0 min,  0.076 sec (  3.819%)
 ANC generation                 ...        0 min,  0.002 sec (  0.108%)
 coordinate transformation      ...        0 min,  0.000 sec (  0.010%)
 single point calculation       ...        0 min,  1.912 sec ( 95.602%)
 optimization log               ...        0 min,  0.005 sec (  0.239%)
 hessian update                 ...        0 min,  0.000 sec (  0.017%)
 rational function              ...        0 min,  0.001 sec (  0.069%)

================
 final structure:
================
50
 xtb: 6.7.1 (edcfbbe)
O            0.64658941223485       -1.72294305275945        1.69226274830924
C            0.15258526102548       -1.40215395279647        0.41497210393730
C           -0.52532011800079       -0.01355288476994        0.44003265385378
N           -1.41575563001020        0.07569432847460        1.59928541537546
C           -1.72528664161780        1.48043340284613        1.82972631068009
C           -2.27206227276263        2.13391276545145        0.54256668706730
C           -2.65851956784603       -0.65094436723854        1.37207910342536
C           -3.51755214357034        0.00867842014078        0.26863193649173
C           -4.15862316587863       -1.04240491194309       -0.64105600828199
C           -5.17826294196536       -0.45801525410771       -1.61208182298275
C           -2.59789795198665        1.00962686929048       -0.44956163449183
C           -1.28679395043964        0.32539443315470       -0.85164088529294
C            1.23956956131785       -1.40874620441826       -0.63096380613067
C            1.01840552853322       -2.05718831973809       -1.82114304176821
C            1.97875590303501       -1.99485333458684       -2.84356925036331
N            3.09972883211428       -1.34174326529019       -2.74152760760519
C            3.36446965172627       -0.71026884479536       -1.58108419504785
C            2.46968334846969       -0.71296289790822       -0.46995214255009
C            2.85362282184542       -0.03995507459403        0.70000991338260
C            4.05854041603858        0.62593091680861        0.78044854036714
O            4.32154731314451        1.24280750799606        1.96743523968423
C            5.56264457202369        1.88165807729413        2.14159498587913
C            4.92884181440017        0.64132365449057       -0.32691670531763
C            4.58514917034095       -0.01671967973915       -1.47406302876517
H            0.03815194289046       -1.31851443728794        2.32898974705288
H           -0.59479150707243       -2.16068153358815        0.12126543275013
H            0.26726226731466        0.72277796183998        0.60857259463212
H           -2.45795098962053        1.52872828605375        2.63816859429058
H           -0.81543934200590        1.98070636008823        2.17068239487143
H           -3.16757796680014        2.71874732961499        0.75683521239740
H           -1.53117755954863        2.80353976542541        0.10257574956550
H           -3.20024594026609       -0.68431808237471        2.32138306604864
H           -2.41243220054343       -1.67813441913391        1.09899971031585
H           -4.32974734682473        0.57947549459274        0.73308060795065
H           -4.66095110946285       -1.77558475400728       -0.00413053944268
H           -3.38783626783830       -1.57301983236924       -1.20372108791207
H           -5.65958620290775       -1.25483220105340       -2.17441872944362
H           -4.70488077797794        0.21614384087940       -2.32149320226368
H           -5.94644076016866        0.09296386456033       -1.07345216366945
H           -3.09197896622124        1.42328214500306       -1.33119241538166
H           -0.69110978273713        0.98671978134538       -1.48254414241313
H           -1.49376486813018       -0.57673633447299       -1.42846497399885
H            0.10772550120985       -2.61482057544014       -1.98522729494398
H            1.80563407895841       -2.50024734294355       -3.78543692927435
H            2.22620697266605       -0.06663022461295        1.57474573096381
H            6.39726311717509        1.18614095992825        2.00811989628341
H            5.56238510627844        2.24708343677651        3.16737177627396
H            5.68145295821810        2.72940756224566        1.45855004244325
H            5.87198411677430        1.16276219392373       -0.27603628014968
H            5.24358630446235       -0.02756757624837       -2.32850830679586

 Bond Distances (Angstroems)
 ---------------------------
O1-C2=1.4066         O1-H25=0.9691        C2-O1=1.4066         C2-C3=1.5454         C2-C13=1.5085        C2-H26=1.1046        
C3-C2=1.5454         C3-N4=1.4645         C3-C12=1.5373        C3-H27=1.0949        N4-C3=1.4645         N4-C5=1.4568         
N4-C7=1.4574         C5-N4=1.4568         C5-C6=1.5436         C5-H28=1.0921        C5-H29=1.0929        C6-C5=1.5436         
C6-C11=1.5344        C6-H30=1.0908        C6-H31=1.0913        C7-N4=1.4574         C7-C8=1.5462         C7-H32=1.0935        
C7-H33=1.0910        C8-C7=1.5462         C8-C9=1.5308         C8-C11=1.5374        C8-H34=1.0960        C9-C8=1.5308         
C9-C10=1.5245        C9-H35=1.0934        C9-H36=1.0919        C10-C9=1.5245        C10-H37=1.0876       C10-H38=1.0871       
C10-H39=1.0880       C11-C6=1.5344        C11-C8=1.5374        C11-C12=1.5326       C11-H40=1.0920       C12-C3=1.5373        
C12-C11=1.5326       C12-H41=1.0910       C12-H42=1.0906       C13-C2=1.5085        C13-C14=1.3733       C13-C18=1.4224       
C14-C13=1.3733       C14-C15=1.4041       C14-H43=1.0804       C15-C14=1.4041       C15-N16=1.3014       C15-H44=1.0828       
N16-C15=1.3014       N16-C17=1.3474       C17-N16=1.3474       C17-C18=1.4266       C17-C24=1.4080       C18-C13=1.4224       
C18-C17=1.4266       C18-C19=1.4033       C19-C18=1.4033       C19-C20=1.3790       C19-H45=1.0768       C20-C19=1.3790       
C20-O21=1.3633       C20-C23=1.4085       O21-C20=1.3633       O21-C22=1.4067       C22-O21=1.4067       C22-H46=1.0946       
C22-H47=1.0889       C22-H48=1.0951       C23-C20=1.4085       C23-C24=1.3664       C23-H49=1.0789       C24-C17=1.4080       
C24-C23=1.3664       C24-H50=1.0788       H25-O1=0.9691        H26-C2=1.1046        H27-C3=1.0949        H28-C5=1.0921        
H29-C5=1.0929        H30-C6=1.0908        H31-C6=1.0913        H32-C7=1.0935        H33-C7=1.0910        H34-C8=1.0960        
H35-C9=1.0934        H36-C9=1.0919        H37-C10=1.0876       H38-C10=1.0871       H39-C10=1.0880       H40-C11=1.0920       
H41-C12=1.0910       H42-C12=1.0906       H43-C14=1.0804       H44-C15=1.0828       H45-C19=1.0768       H46-C22=1.0946       
H47-C22=1.0889       H48-C22=1.0951       H49-C23=1.0789       H50-C24=1.0788       
 C  H  Rav=1.0898 sigma=0.0062  Rmin=1.0768  Rmax=1.1046    25
 C  C  Rav=1.4701 sigma=0.0692  Rmin=1.3664  Rmax=1.5462    19
 N  C  Rav=1.4055 sigma=0.0679  Rmin=1.3014  Rmax=1.4645     5
 O  H  Rav=0.9691 sigma=0.0000  Rmin=0.9691  Rmax=0.9691     1
 O  C  Rav=1.3922 sigma=0.0204  Rmin=1.3633  Rmax=1.4067     3

 selected bond angles (degree)
 --------------------
H25-O1-C2=106.32               C3-C2-O1=110.14                C13-C2-O1=112.06               C13-C2-C3=109.34               
H26-C2-O1=108.81               H26-C2-C3=108.94               H26-C2-C13=107.47              N4-C3-C2=109.53                
C12-C3-C2=113.69               C12-C3-N4=110.52               H27-C3-C2=106.81               H27-C3-N4=106.10               
H27-C3-C12=109.85              C5-N4-C3=108.25                C7-N4-C3=111.39                C7-N4-C5=108.92                
C6-C5-N4=110.58                H28-C5-N4=107.59               H28-C5-C6=111.16               H29-C5-N4=108.29               
H29-C5-C6=111.18               H29-C5-H28=107.90              C11-C6-C5=107.71               H30-C6-C5=110.73               
H30-C6-C11=110.21              H31-C6-C5=110.82               H31-C6-C11=109.46              H31-C6-H30=107.91              
C8-C7-N4=111.86                H32-C7-N4=107.60               H32-C7-C8=110.94               H33-C7-N4=108.43               
H33-C7-C8=110.39               H33-C7-H32=107.48              C9-C8-C7=111.34                C11-C8-C7=106.19               
C11-C8-C9=114.83               H34-C8-C7=109.36               H34-C8-C9=107.40               H34-C8-C11=107.59              
C10-C9-C8=113.29               H35-C9-C8=107.86               H35-C9-C10=108.71              H36-C9-C8=110.14               
H36-C9-C10=109.28              H36-C9-H35=107.37              H37-C10-C9=110.15              H38-C10-C9=111.23              
H38-C10-H37=108.04             H39-C10-C9=110.55              H39-C10-H37=108.33             H39-C10-H38=108.45             

 selected dihedral angles (degree)
 ---------------------------------
C3-C2-O1-H25= 32.76           C13-C2-O1-H25=154.72          H26-C2-O1-H25=273.42          N4-C3-C2-O1=313.27            
N4-C3-C2-C13=189.71           N4-C3-C2-H26= 72.53           C12-C3-C2-O1=189.09           C12-C3-C2-C13= 65.54          
C12-C3-C2-H26=308.36          H27-C3-C2-O1= 67.76           H27-C3-C2-C13=304.21          H27-C3-C2-H26=187.03          
C5-N4-C3-C2=163.34            C5-N4-C3-C12=289.35           C5-N4-C3-H27= 48.39           C7-N4-C3-C2=283.06            
C7-N4-C3-C12= 49.07           C7-N4-C3-H27=168.12           C6-C5-N4-C3= 53.49            C6-C5-N4-C7=292.23            
H28-C5-N4-C3=175.06           H28-C5-N4-C7= 53.80           H29-C5-N4-C3=291.44           H29-C5-N4-C7=170.18           
C11-C6-C5-N4= 12.51           C11-C6-C5-H28=253.06          C11-C6-C5-H29=132.84          H30-C6-C5-N4=133.08           
H30-C6-C5-H28= 13.64          H30-C6-C5-H29=253.42          H31-C6-C5-N4=252.80           H31-C6-C5-H28=133.36          
H31-C6-C5-H29= 13.14          C8-C7-N4-C3=292.94            C8-C7-N4-C5= 52.27            H32-C7-N4-C3=170.86           
H32-C7-N4-C5=290.19           H33-C7-N4-C3= 54.90           H33-C7-N4-C5=174.23           C9-C8-C7-N4=139.42            
C9-C8-C7-H32=259.57           C9-C8-C7-H33= 18.60           C11-C8-C7-N4= 13.77           C11-C8-C7-H32=133.92          
C11-C8-C7-H33=252.94          H34-C8-C7-N4=257.95           H34-C8-C7-H32= 18.10          H34-C8-C7-H33=137.13          
C10-C9-C8-C7=171.36           C10-C9-C8-C11=292.06          C10-C9-C8-H34= 51.66          H35-C9-C8-C7= 50.99           
H35-C9-C8-C11=171.69          H35-C9-C8-H34=291.29          H36-C9-C8-C7=294.09           H36-C9-C8-C11= 54.80          
H36-C9-C8-H34=174.40          H37-C10-C9-C8=184.64          H37-C10-C9-H35=304.52         H37-C10-C9-H36= 61.43         
H38-C10-C9-C8= 64.87          H38-C10-C9-H35=184.76         H38-C10-C9-H36=301.66         H39-C10-C9-C8=304.33          
H39-C10-C9-H35= 64.22         H39-C10-C9-H36=181.12         
           -------------------------------------------------
          |                Final Singlepoint                |
           -------------------------------------------------

          ...................................................
          :                      SETUP                      :
          :.................................................:
          :  # basis functions                 122          :
          :  # atomic orbitals                 122          :
          :  # shells                           74          :
          :  # electrons                       128          :
          :  max. iterations                   250          :
          :  Hamiltonian                  GFN2-xTB          :
          :  restarted?                      false          :
          :  GBSA solvation                  false          :
          :  PC potential                    false          :
          :  electronic temp.          300.0000000     K    :
          :  accuracy                    1.0000000          :
          :  -> integral cutoff          0.2500000E+02      :
          :  -> integral neglect         0.1000000E-07      :
          :  -> SCF convergence          0.1000000E-05 Eh   :
          :  -> wf. convergence          0.1000000E-03 e    :
          :  Broyden damping             0.4000000          :
          :  net charge                          0          :
          :  unpaired electrons                  0          :
          ...................................................

 iter      E             dE          RMSdq      gap      omega  full diag
   1    -71.0729124 -0.710729E+02  0.140E-04    2.45       0.0  T
   2    -71.0729124 -0.185096E-09  0.100E-04    2.45     140.9  T
   3    -71.0729124 -0.367947E-09  0.528E-05    2.45     268.0  T

   *** convergence criteria satisfied after 3 iterations ***

         #    Occupation            Energy/Eh            Energy/eV
      -------------------------------------------------------------
         1        2.0000           -0.7156967             -19.4751
       ...           ...                  ...                  ...
        58        2.0000           -0.4194246             -11.4131
        59        2.0000           -0.4161442             -11.3239
        60        2.0000           -0.3998790             -10.8813
        61        2.0000           -0.3958988             -10.7730
        62        2.0000           -0.3719779             -10.1220
        63        2.0000           -0.3603836              -9.8065
        64        2.0000           -0.3578634              -9.7380 (HOMO)
        65                         -0.2678696              -7.2891 (LUMO)
        66                         -0.2266649              -6.1679
        67                         -0.1951390              -5.3100
        68                         -0.1470882              -4.0025
        69                         -0.0629181              -1.7121
       ...                                ...                  ...
       122                          0.6861156              18.6702
      -------------------------------------------------------------
                  HL-Gap            0.0899939 Eh            2.4489 eV
             Fermi-level           -0.3128665 Eh           -8.5135 eV

 SCC (total)                   0 d,  0 h,  0 min,  0.138 sec
 SCC setup                      ...        0 min,  0.000 sec (  0.267%)
 Dispersion                     ...        0 min,  0.037 sec ( 27.051%)
 classical contributions        ...        0 min,  0.000 sec (  0.137%)
 integral evaluation            ...        0 min,  0.009 sec (  6.539%)
 iterations                     ...        0 min,  0.007 sec (  5.388%)
 molecular gradient             ...        0 min,  0.084 sec ( 60.481%)
 printout                       ...        0 min,  0.000 sec (  0.132%)

         :::::::::::::::::::::::::::::::::::::::::::::::::::::
         ::                     SUMMARY                     ::
         :::::::::::::::::::::::::::::::::::::::::::::::::::::
         :: total energy             -70.101009581963 Eh    ::
         :: gradient norm              0.000392833856 Eh/a0 ::
         :: HOMO-LUMO gap              2.448857784655 eV    ::
         ::.................................................::
         :: SCC energy               -71.072056985458 Eh    ::
         :: -> isotropic ES            0.055242688389 Eh    ::
         :: -> anisotropic ES          0.008669024065 Eh    ::
         :: -> anisotropic XC          0.034805092715 Eh    ::
         :: -> dispersion             -0.055490289059 Eh    ::
         :: repulsion energy           0.971047403495 Eh    ::
         :: add. restraining           0.000000000000 Eh    ::
         :: total charge              -0.000000000000 e     ::
         :::::::::::::::::::::::::::::::::::::::::::::::::::::

           -------------------------------------------------
          |                Property Printout                |
           -------------------------------------------------

    * Orbital Energies and Occupations

         #    Occupation            Energy/Eh            Energy/eV
      -------------------------------------------------------------
         1        2.0000           -0.7156967             -19.4751
       ...           ...                  ...                  ...
        52        2.0000           -0.4396758             -11.9642
        53        2.0000           -0.4388488             -11.9417
        54        2.0000           -0.4375337             -11.9059
        55        2.0000           -0.4351641             -11.8414
        56        2.0000           -0.4308819             -11.7249
        57        2.0000           -0.4249277             -11.5629
        58        2.0000           -0.4194246             -11.4131
        59        2.0000           -0.4161442             -11.3239
        60        2.0000           -0.3998790             -10.8813
        61        2.0000           -0.3958988             -10.7730
        62        2.0000           -0.3719779             -10.1220
        63        2.0000           -0.3603836              -9.8065
        64        2.0000           -0.3578634              -9.7380 (HOMO)
        65                         -0.2678696              -7.2891 (LUMO)
        66                         -0.2266649              -6.1679
        67                         -0.1951390              -5.3100
        68                         -0.1470882              -4.0025
        69                         -0.0629181              -1.7121
        70                          0.0152245               0.4143
        71                          0.0239187               0.6509
        72                          0.0300303               0.8172
        73                          0.0392158               1.0671
        74                          0.0543489               1.4789
        75                          0.0657893               1.7902
       ...                                ...                  ...
       122                          0.6861156              18.6702
      -------------------------------------------------------------
                  HL-Gap            0.0899939 Eh            2.4489 eV
             Fermi-level           -0.3128665 Eh           -8.5135 eV

     #   Z          covCN         q      C6AA      α(0)
     1   8 O        1.655    -0.444    21.731     6.293
     2   6 C        3.732     0.111    18.843     6.196
     3   6 C        3.827     0.032    20.022     6.367
     4   7 N        2.729    -0.199    25.326     7.474
     5   6 C        3.783     0.009    20.439     6.440
     6   6 C        3.809    -0.065    21.735     6.636
     7   6 C        3.775     0.005    20.527     6.455
     8   6 C        3.857    -0.029    21.055     6.526
     9   6 C        3.801    -0.055    21.565     6.612
    10   6 C        3.751    -0.102    22.506     6.765
    11   6 C        3.865    -0.010    20.704     6.471
    12   6 C        3.808    -0.064    21.718     6.634
    13   6 C        2.972     0.014    27.706     8.634
    14   6 C        2.916    -0.051    29.273     8.872
    15   6 C        2.904     0.060    26.650     8.465
    16   7 N        1.842    -0.233    26.945     7.693
    17   6 C        2.978     0.080    26.212     8.398
    18   6 C        2.983     0.004    27.921     8.668
    19   6 C        2.917    -0.065    29.608     8.923
    20   6 C        2.861     0.142    24.903     8.180
    21   8 O        1.706    -0.269    18.455     5.800
    22   6 C        3.643     0.038    20.275     6.473
    23   6 C        2.913    -0.060    29.492     8.905
    24   6 C        2.923    -0.040    29.006     8.832
    25   1 H        0.804     0.305     0.708     1.321
    26   1 H        0.923     0.014     2.823     2.628
    27   1 H        0.924     0.040     2.454     2.450
    28   1 H        0.924     0.033     2.538     2.491
    29   1 H        0.924     0.032     2.559     2.502
    30   1 H        0.924     0.028     2.614     2.529
    31   1 H        0.924     0.029     2.604     2.523
    32   1 H        0.924     0.029     2.594     2.519
    33   1 H        0.924     0.036     2.510     2.477
    34   1 H        0.924     0.028     2.617     2.530
    35   1 H        0.924     0.030     2.585     2.514
    36   1 H        0.924     0.029     2.602     2.523
    37   1 H        0.925     0.035     2.512     2.478
    38   1 H        0.925     0.034     2.529     2.487
    39   1 H        0.925     0.034     2.530     2.487
    40   1 H        0.924     0.026     2.649     2.545
    41   1 H        0.924     0.025     2.653     2.547
    42   1 H        0.924     0.030     2.582     2.513
    43   1 H        0.926     0.027     2.626     2.534
    44   1 H        0.925     0.036     2.505     2.475
    45   1 H        0.926     0.072     2.068     2.249
    46   1 H        0.924     0.041     2.434     2.440
    47   1 H        0.925     0.062     2.177     2.307
    48   1 H        0.924     0.039     2.460     2.453
    49   1 H        0.926     0.040     2.448     2.447
    50   1 H        0.926     0.056     2.242     2.342

 Mol. C6AA /au·bohr⁶  :      24670.270707
 Mol. C8AA /au·bohr⁸  :     567122.633522
 Mol. α(0) /au        :        240.021873


Wiberg/Mayer (AO) data.
largest (>0.10) Wiberg bond orders for each atom

 ---------------------------------------------------------------------------
     #   Z sym  total        # sym  WBO       # sym  WBO       # sym  WBO
 ---------------------------------------------------------------------------
     1   8 O    1.962 --     2 C    0.995    25 H    0.875
     2   6 C    3.962 --     1 O    0.995    13 C    0.992     3 C    0.952
                            26 H    0.948
     3   6 C    3.982 --     4 N    0.988    12 C    0.984    27 H    0.962
                             2 C    0.952
     4   7 N    3.131 --     7 C    1.002     5 C    1.000     3 C    0.988
     5   6 C    3.985 --     4 N    1.000     6 C    0.990    28 H    0.976
                            29 H    0.975
     6   6 C    3.998 --    11 C    0.997     5 C    0.990    31 H    0.980
                            30 H    0.980
     7   6 C    3.986 --     4 N    1.002     8 C    0.978    32 H    0.975
                            33 H    0.969
     8   6 C    3.995 --     9 C    0.999    11 C    0.986     7 C    0.978
                            34 H    0.969
     9   6 C    3.997 --    10 C    1.019     8 C    0.999    35 H    0.977
                            36 H    0.973
    10   6 C    3.997 --     9 C    1.019    39 H    0.988    37 H    0.987
                            38 H    0.985
    11   6 C    3.996 --    12 C    0.997     6 C    0.997     8 C    0.986
                            40 H    0.966
    12   6 C    3.998 --    11 C    0.997     3 C    0.984    41 H    0.979
                            42 H    0.970
    13   6 C    3.985 --    14 C    1.527    18 C    1.247     2 C    0.992
                            16 N    0.103
    14   6 C    3.990 --    13 C    1.527    15 C    1.307    43 H    0.967
    15   6 C    3.974 --    16 N    1.549    14 C    1.307    44 H    0.963
    16   7 N    3.063 --    15 C    1.549    17 C    1.285    13 C    0.103
    17   6 C    3.983 --    16 N    1.285    24 C    1.274    18 C    1.225
    18   6 C    3.989 --    19 C    1.313    13 C    1.247    17 C    1.225
    19   6 C    3.985 --    20 C    1.444    18 C    1.313    45 H    0.957
                            24 C    0.115
    20   6 C    3.934 --    19 C    1.444    23 C    1.275    21 O    1.061
    21   8 O    2.225 --    20 C    1.061    22 C    0.986
    22   6 C    3.947 --    21 O    0.986    47 H    0.979    46 H    0.977
                            48 H    0.976
    23   6 C    3.989 --    24 C    1.554    20 C    1.275    49 H    0.965
    24   6 C    3.989 --    23 C    1.554    17 C    1.274    50 H    0.967
                            19 C    0.115
    25   1 H    0.907 --     1 O    0.875
    26   1 H    0.999 --     2 C    0.948
    27   1 H    0.998 --     3 C    0.962
    28   1 H    0.998 --     5 C    0.976
    29   1 H    0.999 --     5 C    0.975
    30   1 H    0.999 --     6 C    0.980
    31   1 H    0.999 --     6 C    0.980
    32   1 H    0.999 --     7 C    0.975
    33   1 H    0.999 --     7 C    0.969
    34   1 H    0.999 --     8 C    0.969
    35   1 H    0.999 --     9 C    0.977
    36   1 H    0.999 --     9 C    0.973
    37   1 H    0.998 --    10 C    0.987
    38   1 H    0.999 --    10 C    0.985
    39   1 H    0.999 --    10 C    0.988
    40   1 H    0.999 --    11 C    0.966
    41   1 H    0.999 --    12 C    0.979
    42   1 H    0.999 --    12 C    0.970
    43   1 H    0.999 --    14 C    0.967
    44   1 H    0.998 --    15 C    0.963
    45   1 H    0.995 --    19 C    0.957
    46   1 H    0.998 --    22 C    0.977
    47   1 H    0.996 --    22 C    0.979
    48   1 H    0.998 --    22 C    0.976
    49   1 H    0.998 --    23 C    0.965
    50   1 H    0.996 --    24 C    0.967
 ---------------------------------------------------------------------------

Topologies differ in total number of bonds
Writing topology from bond orders to xtbtopo.mol

molecular dipole:
                 x           y           z       tot (Debye)
 q only:       -0.379       0.831       0.317
   full:       -0.844       1.059       0.323       3.539
molecular quadrupole (traceless):
                xx          xy          yy          xz          yz          zz
 q only:       10.973      10.704      -5.176       4.916       3.128      -5.797
  q+dip:       14.241      15.554      -4.576       5.860       5.029      -9.665
   full:       13.401      13.481      -2.792       7.659       3.585     -10.610

           -------------------------------------------------
          |                Geometry Summary                 |
           -------------------------------------------------

      molecular mass/u    :      326.4333938
   center of mass at/Å    :        0.5747073      -0.1533856      -0.0193814
  moments of inertia/u·Å² :        0.1207767E+04   0.3468553E+04   0.4129628E+04
rotational constants/cm⁻¹ :        0.1395769E-01   0.4860134E-02   0.4082119E-02

 * 49 selected distances

     #   Z          #   Z                                           value/Å
     1   8 O        2   6 C                                       1.4065623
     3   6 C        4   7 N                                       1.4644821
     4   7 N        5   6 C                                       1.4567789
     4   7 N        7   6 C                                       1.4574255
     8   6 C        9   6 C                                       1.5307778
     9   6 C       10   6 C                                       1.5244895
     6   6 C       11   6 C                                       1.5344402
     8   6 C       11   6 C                                       1.5373562 (max)
     3   6 C       12   6 C                                       1.5372536
    11   6 C       12   6 C                                       1.5325912
    13   6 C       14   6 C                                       1.3732872
    14   6 C       15   6 C                                       1.4041062
    15   6 C       16   7 N                                       1.3013631
    16   7 N       17   6 C                                       1.3473963
    13   6 C       18   6 C                                       1.4223992
    17   6 C       18   6 C                                       1.4266270
    18   6 C       19   6 C                                       1.4032678
    19   6 C       20   6 C                                       1.3790219
    20   6 C       21   8 O                                       1.3633221
    21   8 O       22   6 C                                       1.4066927
    20   6 C       23   6 C                                       1.4085168
    17   6 C       24   6 C                                       1.4080209
    23   6 C       24   6 C                                       1.3664153
     1   8 O       25   1 H                                       0.9691131 (min)
     2   6 C       26   1 H                                       1.1046266
     3   6 C       27   1 H                                       1.0948862
     5   6 C       28   1 H                                       1.0921120
     5   6 C       29   1 H                                       1.0928616
     6   6 C       30   1 H                                       1.0908213
     6   6 C       31   1 H                                       1.0912849
     7   6 C       32   1 H                                       1.0935079
     7   6 C       33   1 H                                       1.0909862
     8   6 C       34   1 H                                       1.0959850
     9   6 C       35   1 H                                       1.0934168
     9   6 C       36   1 H                                       1.0919051
    10   6 C       37   1 H                                       1.0875718
    10   6 C       38   1 H                                       1.0871274
    10   6 C       39   1 H                                       1.0880245
    11   6 C       40   1 H                                       1.0920164
    12   6 C       41   1 H                                       1.0909766
    12   6 C       42   1 H                                       1.0905976
    14   6 C       43   1 H                                       1.0803776
    15   6 C       44   1 H                                       1.0828246
    19   6 C       45   1 H                                       1.0768125
    22   6 C       46   1 H                                       1.0945995
    22   6 C       47   1 H                                       1.0889233
    22   6 C       48   1 H                                       1.0951462
    23   6 C       49   1 H                                       1.0788904
    24   6 C       50   1 H                                       1.0787651

 * 5 distinct bonds (by element types)

   Z      Z             #   av. dist./Å        max./Å        min./Å
   1 H    6 C          25     1.0898019     1.1046266     1.0768125
   6 C    6 C          15     1.4525714     1.5373562     1.3664153
   6 C    7 N           5     1.4054892     1.4644821     1.3013631
   1 H    8 O           1     0.9691131     0.9691131     0.9691131
   6 C    8 O           3     1.3921924     1.4066927     1.3633221


optimized geometry written to: xtbopt.xyz


           -------------------------------------------------
          | TOTAL ENERGY              -70.101009581963 Eh   |
          | GRADIENT NORM               0.000392833856 Eh/α |
          | HOMO-LUMO GAP               2.448857784655 eV   |
           -------------------------------------------------

------------------------------------------------------------------------
 * finished run on 2025/05/15 at 16:17:40.492     
------------------------------------------------------------------------
 total:
 * wall-time:     0 d,  0 h,  0 min,  2.275 sec
 *  cpu-time:     0 d,  0 h,  0 min,  1.309 sec
 * ratio c/w:     0.575 speedup
 SCF:
 * wall-time:     0 d,  0 h,  0 min,  0.117 sec
 *  cpu-time:     0 d,  0 h,  0 min,  0.075 sec
 * ratio c/w:     0.639 speedup
 ANC optimizer:
 * wall-time:     0 d,  0 h,  0 min,  2.142 sec
 *  cpu-time:     0 d,  0 h,  0 min,  1.220 sec
 * ratio c/w:     0.570 speedup



----- Single-point -----
      -----------------------------------------------------------      
     |                   =====================                   |     
     |                           x T B                           |     
     |                   =====================                   |     
     |                         S. Grimme                         |     
     |          Mulliken Center for Theoretical Chemistry        |     
     |                    University of Bonn                     |     
      -----------------------------------------------------------      

   * xtb version 6.7.1 (edcfbbe) compiled by 'conda@3ef47c1a292c' on 2024-11-25

   xtb is free software: you can redistribute it and/or modify it under
   the terms of the GNU Lesser General Public License as published by
   the Free Software Foundation, either version 3 of the License, or
   (at your option) any later version.
   
   xtb is distributed in the hope that it will be useful,
   but WITHOUT ANY WARRANTY; without even the implied warranty of
   MERCHANTABILITY or FITNESS FOR A PARTICULAR PURPOSE.  See the
   GNU Lesser General Public License for more details.
   
   Cite this work as:
   * C. Bannwarth, E. Caldeweyher, S. Ehlert, A. Hansen, P. Pracht,
     J. Seibert, S. Spicher, S. Grimme, WIREs Comput. Mol. Sci., 2020, 11,
     e01493. DOI: 10.1002/wcms.1493
   
   for GFN2-xTB:
   * C. Bannwarth, S. Ehlert and S. Grimme., J. Chem. Theory Comput., 2019,
     15, 1652-1671. DOI: 10.1021/acs.jctc.8b01176
   for GFN1-xTB:
   * S. Grimme, C. Bannwarth, P. Shushkov, J. Chem. Theory Comput., 2017,
     13, 1989-2009. DOI: 10.1021/acs.jctc.7b00118
   for GFN0-xTB:
   * P. Pracht, E. Caldeweyher, S. Ehlert, S. Grimme, ChemRxiv, 2019, preprint.
     DOI: 10.26434/chemrxiv.8326202.v1
   for GFN-FF:
   * S. Spicher and S. Grimme, Angew. Chem. Int. Ed., 2020, 59, 15665-15673.
     DOI: 10.1002/anie.202004239
   
   for ALPB and GBSA implicit solvation:
   * S. Ehlert, M. Stahn, S. Spicher, S. Grimme, J. Chem. Theory Comput.,
     2021, 17, 4250-4261. DOI: 10.1021/acs.jctc.1c00471
   
   for ddCOSMO and CPCM-X implicit solvation:
   * M. Stahn, S. Ehlert, S. Grimme, J. Phys. Chem. A,
     2023, XX, XXXX-XXXX. DOI: 10.1021/acs.jpca.3c04382
   
   for DFT-D4:
   * E. Caldeweyher, C. Bannwarth and S. Grimme, J. Chem. Phys., 2017,
     147, 034112. DOI: 10.1063/1.4993215
   * E. Caldeweyher, S. Ehlert, A. Hansen, H. Neugebauer, S. Spicher,
     C. Bannwarth and S. Grimme, J. Chem. Phys., 2019, 150, 154122.
     DOI: 10.1063/1.5090222
   * E. Caldeweyher, J.-M. Mewes, S. Ehlert and S. Grimme, Phys. Chem. Chem. Phys.
     2020, 22, 8499-8512. DOI: 10.1039/D0CP00502A
   
   for sTDA-xTB:
   * S. Grimme and C. Bannwarth, J. Chem. Phys., 2016, 145, 054103.
     DOI: 10.1063/1.4959605
   
   in the mass-spec context:
   * V. Asgeirsson, C. Bauer and S. Grimme, Chem. Sci., 2017, 8, 4879.
     DOI: 10.1039/c7sc00601b
   * J. Koopman and S. Grimme, ACS Omega 2019, 4, 12, 15120-15133.
     DOI: 10.1021/acsomega.9b02011
   
   for metadynamics refer to:
   * S. Grimme, J. Chem. Theory Comput., 2019, 155, 2847-2862
     DOI: 10.1021/acs.jctc.9b00143
   
   for SPH calculations refer to:
   * S. Spicher and S. Grimme, J. Chem. Theory Comput., 2021, 17, 1701-1714
     DOI: 10.1021/acs.jctc.0c01306
   
   for ONIOM refer to:
   * C. Plett, A. Katbashev, S. Ehlert, S. Grimme, M. Bursch,
     Phys. Chem. Chem. Phys., 2023, 25, 17860-17868. DOI: 10.1039/D3CP02178E
   
   for DIPRO refer to:
   * J. Kohn, N. Gildemeister, S. Grimme, D. Fazzi, A. Hansen,
     J. Chem. Phys., 2023, just accepted.
   
   for PTB refer to:
   * S. Grimme, M. Mueller, A. Hansen, J. Chem. Phys., 2023, 158, 124111.
     DOI: 10.1063/5.0137838
   
   with help from (in alphabetical order)
   P. Atkinson, C. Bannwarth, F. Bohle, G. Brandenburg, E. Caldeweyher
   M. Checinski, S. Dohm, S. Ehlert, S. Ehrlich, I. Gerasimov, C. Hölzer
   A. Katbashev, J. Kohn, J. Koopman, C. Lavigne, S. Lehtola, F. März, M. Müller,
   F. Musil, H. Neugebauer, J. Pisarek, C. Plett, P. Pracht, F. Pultar,
   J. Seibert, P. Shushkov, S. Spicher, M. Stahn, M. Steiner, T. Strunk,
   J. Stückrath, T. Rose, and J. Unsleber
   
 * started run on 2025/05/15 at 16:17:40.527     
   ID    Z sym.   atoms
    1    8 O      1, 21
    2    6 C      2, 3, 5-15, 17-20, 22-24
    3    7 N      4, 16
    4    1 H      25-50

           -------------------------------------------------
          |                Calculation Setup                |
           -------------------------------------------------

          program call               : xtb /rds/general/user/hgt20/home/callum/QDESCP/Hydroquinine_rdkit_conf_8/Hydroquinine_rdkit_conf_8.xyz --acc 1 --gfn 2 --chrg 0 --uhf 0 --etemp 300 --input /rds/general/user/hgt20/home/callum/QDESCP/Hydroquinine_rdkit_conf_8/Hydroquinine_rdkit_conf_8_xtb.inp -P 1
          hostname                   : login-c
          coordinate file            : /rds/general/user/hgt20/home/callum/QDESCP/Hydroquinine_rdkit_conf_8/Hydroquinine_rdkit_conf_8.xyz
          omp threads                :                     1


           -------------------------------------------------
          |                 G F N 2 - x T B                 |
           -------------------------------------------------

        Reference                      10.1021/acs.jctc.8b01176
      * Hamiltonian:
        H0-scaling (s, p, d)           1.850000    2.230000    2.230000
        zeta-weighting                 0.500000
      * Dispersion:
        s8                             2.700000
        a1                             0.520000
        a2                             5.000000
        s9                             5.000000
      * Repulsion:
        kExp                           1.500000    1.000000
        rExp                           1.000000
      * Coulomb:
        alpha                          2.000000
        third order                    shell-resolved
        anisotropic                    true
        a3                             3.000000
        a5                             4.000000
        cn-shift                       1.200000
        cn-exp                         4.000000
        max-rad                        5.000000

q/qsh data taken from xtbrestart
CAMM data taken from xtbrestart

          ...................................................
          :                      SETUP                      :
          :.................................................:
          :  # basis functions                 122          :
          :  # atomic orbitals                 122          :
          :  # shells                           74          :
          :  # electrons                       128          :
          :  max. iterations                   250          :
          :  Hamiltonian                  GFN2-xTB          :
          :  restarted?                       true          :
          :  GBSA solvation                  false          :
          :  PC potential                    false          :
          :  electronic temp.          300.0000000     K    :
          :  accuracy                    1.0000000          :
          :  -> integral cutoff          0.2500000E+02      :
          :  -> integral neglect         0.1000000E-07      :
          :  -> SCF convergence          0.1000000E-05 Eh   :
          :  -> wf. convergence          0.1000000E-03 e    :
          :  Broyden damping             0.4000000          :
          :  net charge                          0          :
          :  unpaired electrons                  0          :
          ...................................................

 iter      E             dE          RMSdq      gap      omega  full diag
   1    -71.0729124 -0.710729E+02  0.184E-05    2.45       0.0  T
   2    -71.0729124 -0.625278E-11  0.113E-05    2.45    1255.2  T
   3    -71.0729124 -0.353850E-11  0.577E-06    2.45    2451.3  T

   *** convergence criteria satisfied after 3 iterations ***

         #    Occupation            Energy/Eh            Energy/eV
      -------------------------------------------------------------
         1        2.0000           -0.7156966             -19.4751
       ...           ...                  ...                  ...
        58        2.0000           -0.4194247             -11.4131
        59        2.0000           -0.4161443             -11.3239
        60        2.0000           -0.3998792             -10.8813
        61        2.0000           -0.3958989             -10.7730
        62        2.0000           -0.3719780             -10.1220
        63        2.0000           -0.3603837              -9.8065
        64        2.0000           -0.3578632              -9.7380 (HOMO)
        65                         -0.2678696              -7.2891 (LUMO)
        66                         -0.2266649              -6.1679
        67                         -0.1951390              -5.3100
        68                         -0.1470882              -4.0025
        69                         -0.0629182              -1.7121
       ...                                ...                  ...
       122                          0.6861156              18.6702
      -------------------------------------------------------------
                  HL-Gap            0.0899936 Eh            2.4489 eV
             Fermi-level           -0.3128664 Eh           -8.5135 eV

 SCC (total)                   0 d,  0 h,  0 min,  0.077 sec
 SCC setup                      ...        0 min,  0.000 sec (  0.576%)
 Dispersion                     ...        0 min,  0.001 sec (  0.802%)
 classical contributions        ...        0 min,  0.000 sec (  0.254%)
 integral evaluation            ...        0 min,  0.009 sec ( 12.247%)
 iterations                     ...        0 min,  0.009 sec ( 11.464%)
 molecular gradient             ...        0 min,  0.058 sec ( 74.349%)
 printout                       ...        0 min,  0.000 sec (  0.299%)

         :::::::::::::::::::::::::::::::::::::::::::::::::::::
         ::                     SUMMARY                     ::
         :::::::::::::::::::::::::::::::::::::::::::::::::::::
         :: total energy             -70.101009581993 Eh    ::
         :: gradient norm              0.000392663445 Eh/a0 ::
         :: HOMO-LUMO gap              2.448851241040 eV    ::
         ::.................................................::
         :: SCC energy               -71.072056985488 Eh    ::
         :: -> isotropic ES            0.055242577032 Eh    ::
         :: -> anisotropic ES          0.008669020264 Eh    ::
         :: -> anisotropic XC          0.034805109901 Eh    ::
         :: -> dispersion             -0.055490294557 Eh    ::
         :: repulsion energy           0.971047403495 Eh    ::
         :: add. restraining           0.000000000000 Eh    ::
         :: total charge               0.000000000000 e     ::
         :::::::::::::::::::::::::::::::::::::::::::::::::::::

           -------------------------------------------------
          |                Property Printout                |
           -------------------------------------------------

    * Orbital Energies and Occupations

         #    Occupation            Energy/Eh            Energy/eV
      -------------------------------------------------------------
         1        2.0000           -0.7156966             -19.4751
       ...           ...                  ...                  ...
        52        2.0000           -0.4396759             -11.9642
        53        2.0000           -0.4388488             -11.9417
        54        2.0000           -0.4375337             -11.9059
        55        2.0000           -0.4351643             -11.8414
        56        2.0000           -0.4308820             -11.7249
        57        2.0000           -0.4249277             -11.5629
        58        2.0000           -0.4194247             -11.4131
        59        2.0000           -0.4161443             -11.3239
        60        2.0000           -0.3998792             -10.8813
        61        2.0000           -0.3958989             -10.7730
        62        2.0000           -0.3719780             -10.1220
        63        2.0000           -0.3603837              -9.8065
        64        2.0000           -0.3578632              -9.7380 (HOMO)
        65                         -0.2678696              -7.2891 (LUMO)
        66                         -0.2266649              -6.1679
        67                         -0.1951390              -5.3100
        68                         -0.1470882              -4.0025
        69                         -0.0629182              -1.7121
        70                          0.0152244               0.4143
        71                          0.0239185               0.6509
[...]
   * V. Asgeirsson, C. Bauer and S. Grimme, Chem. Sci., 2017, 8, 4879.
     DOI: 10.1039/c7sc00601b
   * J. Koopman and S. Grimme, ACS Omega 2019, 4, 12, 15120-15133.
     DOI: 10.1021/acsomega.9b02011
   
   for metadynamics refer to:
   * S. Grimme, J. Chem. Theory Comput., 2019, 155, 2847-2862
     DOI: 10.1021/acs.jctc.9b00143
   
   for SPH calculations refer to:
   * S. Spicher and S. Grimme, J. Chem. Theory Comput., 2021, 17, 1701-1714
     DOI: 10.1021/acs.jctc.0c01306
   
   for ONIOM refer to:
   * C. Plett, A. Katbashev, S. Ehlert, S. Grimme, M. Bursch,
     Phys. Chem. Chem. Phys., 2023, 25, 17860-17868. DOI: 10.1039/D3CP02178E
   
   for DIPRO refer to:
   * J. Kohn, N. Gildemeister, S. Grimme, D. Fazzi, A. Hansen,
     J. Chem. Phys., 2023, just accepted.
   
   for PTB refer to:
   * S. Grimme, M. Mueller, A. Hansen, J. Chem. Phys., 2023, 158, 124111.
     DOI: 10.1063/5.0137838
   
   with help from (in alphabetical order)
   P. Atkinson, C. Bannwarth, F. Bohle, G. Brandenburg, E. Caldeweyher
   M. Checinski, S. Dohm, S. Ehlert, S. Ehrlich, I. Gerasimov, C. Hölzer
   A. Katbashev, J. Kohn, J. Koopman, C. Lavigne, S. Lehtola, F. März, M. Müller,
   F. Musil, H. Neugebauer, J. Pisarek, C. Plett, P. Pracht, F. Pultar,
   J. Seibert, P. Shushkov, S. Spicher, M. Stahn, M. Steiner, T. Strunk,
   J. Stückrath, T. Rose, and J. Unsleber
   
 * started run on 2025/05/15 at 16:17:43.409     
   ID    Z sym.   atoms
    1    8 O      1, 21
    2    6 C      2, 3, 5-15, 17-20, 22-24
    3    7 N      4, 16
    4    1 H      25-50

           -------------------------------------------------
          |                Calculation Setup                |
           -------------------------------------------------

          program call               : xtb /rds/general/user/hgt20/home/callum/QDESCP/Hydroquinine_rdkit_conf_8/Hydroquinine_rdkit_conf_8.xyz --acc 1 --gfn 2 --chrg 0 --uhf 2 --etemp 300 --input /rds/general/user/hgt20/home/callum/QDESCP/Hydroquinine_rdkit_conf_8/Hydroquinine_rdkit_conf_8_xtb.inp -P 1
          hostname                   : login-c
          coordinate file            : /rds/general/user/hgt20/home/callum/QDESCP/Hydroquinine_rdkit_conf_8/Hydroquinine_rdkit_conf_8.xyz
          omp threads                :                     1


           -------------------------------------------------
          |                 G F N 2 - x T B                 |
           -------------------------------------------------

        Reference                      10.1021/acs.jctc.8b01176
      * Hamiltonian:
        H0-scaling (s, p, d)           1.850000    2.230000    2.230000
        zeta-weighting                 0.500000
      * Dispersion:
        s8                             2.700000
        a1                             0.520000
        a2                             5.000000
        s9                             5.000000
      * Repulsion:
        kExp                           1.500000    1.000000
        rExp                           1.000000
      * Coulomb:
        alpha                          2.000000
        third order                    shell-resolved
        anisotropic                    true
        a3                             3.000000
        a5                             4.000000
        cn-shift                       1.200000
        cn-exp                         4.000000
        max-rad                        5.000000


          ...................................................
          :                      SETUP                      :
          :.................................................:
          :  # basis functions                 122          :
          :  # atomic orbitals                 122          :
          :  # shells                           74          :
          :  # electrons                       128          :
          :  max. iterations                   250          :
          :  Hamiltonian                  GFN2-xTB          :
          :  restarted?                      false          :
          :  GBSA solvation                  false          :
          :  PC potential                    false          :
          :  electronic temp.          300.0000000     K    :
          :  accuracy                    1.0000000          :
          :  -> integral cutoff          0.2500000E+02      :
          :  -> integral neglect         0.1000000E-07      :
          :  -> SCF convergence          0.1000000E-05 Eh   :
          :  -> wf. convergence          0.1000000E-03 e    :
          :  Broyden damping             0.4000000          :
          :  net charge                          0          :
          :  unpaired electrons                  2          :
          ...................................................

 iter      E             dE          RMSdq      gap      omega  full diag
   1    -70.6805258 -0.706805E+02  0.331E+00    1.02       0.0  T
   2    -70.8301371 -0.149611E+00  0.246E+00    1.05       1.0  T
   3    -70.8198331  0.103040E-01  0.202E+00    1.17       1.0  T
   4    -70.8426656 -0.228325E-01  0.140E+00    1.04       1.0  T
   5    -70.7491541  0.935115E-01  0.145E+00    1.07       1.0  T
   6    -70.9247413 -0.175587E+00  0.858E-01    1.07       1.0  T
   7    -70.9680728 -0.433316E-01  0.274E-01    1.03       1.0  T
   8    -70.9692647 -0.119183E-02  0.199E-01    1.04       1.0  T
   9    -70.9670330  0.223163E-02  0.273E-01    1.04       1.0  T
  10    -70.9706435 -0.361041E-02  0.105E-01    1.04       1.0  T
  11    -70.9712927 -0.649247E-03  0.624E-02    1.03       1.0  T
  12    -70.9716082 -0.315457E-03  0.111E-02    1.03       1.3  T
  13    -70.9715707  0.374173E-04  0.205E-02    1.03       1.0  T
  14    -70.9715184  0.523757E-04  0.292E-02    1.03       1.0  T
  15    -70.9716007 -0.822840E-04  0.969E-03    1.03       1.5  T
  16    -70.9716107 -0.100809E-04  0.270E-03    1.03       5.2  T
  17    -70.9716112 -0.419572E-06  0.104E-03    1.03      13.6  T
  18    -70.9716112 -0.483723E-07  0.768E-04    1.03      18.4  T
  19    -70.9716113 -0.602586E-07  0.342E-04    1.03      41.4  T

   *** convergence criteria satisfied after 19 iterations ***

         #    Occupation            Energy/Eh            Energy/eV
      -------------------------------------------------------------
         1        2.0000           -0.7162774             -19.4909
       ...           ...                  ...                  ...
        59        2.0000           -0.4146184             -11.2823
        60        2.0000           -0.3975951             -10.8191
        61        2.0000           -0.3849986             -10.4763
        62        1.9918           -0.3686801             -10.0323
        63        1.7005           -0.3649279              -9.9302
        64        1.3077           -0.3633504              -9.8873
        65        1.0000           -0.2552975              -6.9470 (HOMO)
        66                         -0.2172969              -5.9129 (LUMO)
        67                         -0.1854628              -5.0467
        68                         -0.1351554              -3.6778
        69                         -0.0545940              -1.4856
        70                          0.0115390               0.3140
       ...                                ...                  ...
       122                          0.6943471              18.8941
      -------------------------------------------------------------
                  HL-Gap            0.0380006 Eh            1.0340 eV
             Fermi-level           -0.3002090 Eh           -8.1691 eV

 transition dipole moment (au) for excitation:          64          65
     X       Y       Z   
  -0.8666  -0.3147   0.4226  total (au/Debye):    1.014   2.578
 dE (eV)             :    2.940
 oscillator strength :  0.10479E+00

 SCC (total)                   0 d,  0 h,  0 min,  0.191 sec
 SCC setup                      ...        0 min,  0.000 sec (  0.243%)
 Dispersion                     ...        0 min,  0.001 sec (  0.341%)
 classical contributions        ...        0 min,  0.000 sec (  0.104%)
 integral evaluation            ...        0 min,  0.010 sec (  4.988%)
 iterations                     ...        0 min,  0.094 sec ( 49.004%)
 molecular gradient             ...        0 min,  0.078 sec ( 41.072%)
 printout                       ...        0 min,  0.008 sec (  4.245%)

         :::::::::::::::::::::::::::::::::::::::::::::::::::::
         ::                     SUMMARY                     ::
         :::::::::::::::::::::::::::::::::::::::::::::::::::::
         :: total energy             -69.999708477045 Eh    ::
         :: gradient norm              0.104079962555 Eh/a0 ::
         :: HOMO-LUMO gap              1.034049970735 eV    ::
         ::.................................................::
         :: SCC energy               -70.970755880540 Eh    ::
         :: -> isotropic ES            0.052439832593 Eh    ::
         :: -> anisotropic ES          0.009602683026 Eh    ::
         :: -> anisotropic XC          0.028776203912 Eh    ::
         :: -> dispersion             -0.055415023801 Eh    ::
         :: repulsion energy           0.971047403495 Eh    ::
         :: add. restraining           0.000000000000 Eh    ::
         :: total charge               0.000000000000 e     ::
         :::::::::::::::::::::::::::::::::::::::::::::::::::::

           -------------------------------------------------
          |                Property Printout                |
           -------------------------------------------------

    * Orbital Energies and Occupations

         #    Occupation            Energy/Eh            Energy/eV
      -------------------------------------------------------------
         1        2.0000           -0.7162774             -19.4909
       ...           ...                  ...                  ...
        53        2.0000           -0.4358402             -11.8598
        54        2.0000           -0.4313177             -11.7368
        55        2.0000           -0.4299862             -11.7005
        56        2.0000           -0.4245304             -11.5521
        57        2.0000           -0.4231750             -11.5152
        58        2.0000           -0.4190449             -11.4028
        59        2.0000           -0.4146184             -11.2823
        60        2.0000           -0.3975951             -10.8191
        61        2.0000           -0.3849986             -10.4763
        62        1.9918           -0.3686801             -10.0323
        63        1.7005           -0.3649279              -9.9302
        64        1.3077           -0.3633504              -9.8873
        65        1.0000           -0.2552975              -6.9470 (HOMO)
        66                         -0.2172969              -5.9129 (LUMO)
        67                         -0.1854628              -5.0467
        68                         -0.1351554              -3.6778
        69                         -0.0545940              -1.4856
        70                          0.0115390               0.3140
        71                          0.0206569               0.5621
        72                          0.0312146               0.8494
        73                          0.0353604               0.9622
        74                          0.0532082               1.4479
        75                          0.0636281               1.7314
        76                          0.0663618               1.8058
       ...                                ...                  ...
       122                          0.6943471              18.8941
      -------------------------------------------------------------
                  HL-Gap            0.0380006 Eh            1.0340 eV
             Fermi-level           -0.3002090 Eh           -8.1691 eV

     #   Z          covCN         q      C6AA      α(0)
     1   8 O        1.655    -0.438    21.608     6.275
     2   6 C        3.732     0.116    18.777     6.185
     3   6 C        3.827     0.029    20.073     6.375
     4   7 N        2.729    -0.182    24.936     7.417
     5   6 C        3.783     0.008    20.463     6.444
     6   6 C        3.809    -0.065    21.736     6.637
     7   6 C        3.775     0.003    20.553     6.460
     8   6 C        3.857    -0.028    21.036     6.523
     9   6 C        3.801    -0.056    21.578     6.614
    10   6 C        3.751    -0.102    22.517     6.767
    11   6 C        3.865    -0.011    20.729     6.474
    12   6 C        3.808    -0.064    21.730     6.636
    13   6 C        2.972    -0.029    28.712     8.789
    14   6 C        2.916    -0.059    29.460     8.901
    15   6 C        2.904     0.038    27.143     8.543
    16   7 N        1.842    -0.193    26.005     7.557
    17   6 C        2.978     0.084    26.124     8.384
    18   6 C        2.983     0.013    27.728     8.638
    19   6 C        2.917    -0.069    29.718     8.939
    20   6 C        2.861     0.140    24.935     8.185
    21   8 O        1.706    -0.254    18.211     5.762
    22   6 C        3.643     0.036    20.315     6.480
    23   6 C        2.913    -0.080    30.006     8.982
    24   6 C        2.923    -0.058    29.446     8.899
    25   1 H        0.804     0.302     0.714     1.328
    26   1 H        0.923     0.017     2.775     2.605
    27   1 H        0.924     0.043     2.414     2.430
    28   1 H        0.924     0.036     2.510     2.477
    29   1 H        0.924     0.036     2.506     2.476
    30   1 H        0.924     0.030     2.579     2.512
    31   1 H        0.924     0.032     2.555     2.500
    32   1 H        0.924     0.032     2.555     2.500
    33   1 H        0.924     0.040     2.451     2.448
    34   1 H        0.924     0.030     2.591     2.517
    35   1 H        0.924     0.031     2.569     2.506
    36   1 H        0.924     0.031     2.568     2.506
    37   1 H        0.925     0.037     2.492     2.469
    38   1 H        0.925     0.035     2.517     2.481
    39   1 H        0.925     0.034     2.525     2.485
    40   1 H        0.924     0.030     2.592     2.518
    41   1 H        0.924     0.031     2.567     2.506
    42   1 H        0.924     0.035     2.511     2.478
    43   1 H        0.926     0.023     2.683     2.561
    44   1 H        0.925     0.035     2.512     2.479
    45   1 H        0.926     0.072     2.066     2.248
    46   1 H        0.924     0.047     2.356     2.400
    47   1 H        0.925     0.063     2.168     2.303
    48   1 H        0.924     0.045     2.380     2.413
    49   1 H        0.926     0.029     2.596     2.519
    50   1 H        0.926     0.045     2.388     2.417

 Mol. C6AA /au·bohr⁶  :      24647.725668
 Mol. C8AA /au·bohr⁸  :     567148.771131
 Mol. α(0) /au        :        239.944387


Wiberg/Mayer (AO) data.
largest (>0.10) Wiberg bond orders for each atom

 ---------------------------------------------------------------------------
     #   Z sym  total        # sym  WBO       # sym  WBO       # sym  WBO
 ---------------------------------------------------------------------------
     1   8 O    1.971 --     2 C    0.993    25 H    0.875
     2   6 C    3.941 --     1 O    0.993    13 C    0.978     3 C    0.949
                            26 H    0.944
     3   6 C    3.969 --     4 N    0.986    12 C    0.981    27 H    0.960
                             2 C    0.949
     4   7 N    3.131 --     7 C    1.003     5 C    1.000     3 C    0.986
     5   6 C    3.981 --     4 N    1.000     6 C    0.986    28 H    0.976
                            29 H    0.974
     6   6 C    3.990 --    11 C    0.997     5 C    0.986    31 H    0.980
                            30 H    0.979
     7   6 C    3.980 --     4 N    1.003    32 H    0.974     8 C    0.973
                            33 H    0.968
     8   6 C    3.986 --     9 C    0.999    11 C    0.986     7 C    0.973
                            34 H    0.969
     9   6 C    3.997 --    10 C    1.018     8 C    0.999    35 H    0.976
                            36 H    0.973
    10   6 C    3.996 --     9 C    1.018    39 H    0.987    37 H    0.987
                            38 H    0.985
    11   6 C    3.995 --    12 C    0.998     6 C    0.997     8 C    0.986
                            40 H    0.964
    12   6 C    3.991 --    11 C    0.998     3 C    0.981    41 H    0.977
                            42 H    0.969
    13   6 C    3.860 --    14 C    1.344    18 C    1.230     2 C    0.978
    14   6 C    3.926 --    15 C    1.416    13 C    1.344    43 H    0.963
    15   6 C    3.916 --    14 C    1.416    16 N    1.359    44 H    0.953
    16   7 N    2.963 --    15 C    1.359    17 C    1.284
    17   6 C    3.923 --    16 N    1.284    24 C    1.273    18 C    1.185
    18   6 C    3.947 --    19 C    1.331    13 C    1.230    17 C    1.185
    19   6 C    3.826 --    18 C    1.331    20 C    1.264    45 H    0.946
    20   6 C    3.858 --    23 C    1.354    19 C    1.264    21 O    1.073
    21   8 O    2.208 --    20 C    1.073    22 C    0.988
    22   6 C    3.943 --    21 O    0.988    47 H    0.979    46 H    0.973
                            48 H    0.972
    23   6 C    3.970 --    24 C    1.416    20 C    1.354    49 H    0.964
    24   6 C    3.881 --    23 C    1.416    17 C    1.273    50 H    0.964
    25   1 H    0.907 --     1 O    0.875
    26   1 H    0.995 --     2 C    0.944
    27   1 H    0.998 --     3 C    0.960
    28   1 H    0.998 --     5 C    0.976
    29   1 H    0.998 --     5 C    0.974
    30   1 H    0.998 --     6 C    0.979
    31   1 H    0.998 --     6 C    0.980
    32   1 H    0.997 --     7 C    0.974
    33   1 H    0.998 --     7 C    0.968
    34   1 H    0.999 --     8 C    0.969
    35   1 H    0.999 --     9 C    0.976
    36   1 H    0.999 --     9 C    0.973
    37   1 H    0.998 --    10 C    0.987
    38   1 H    0.999 --    10 C    0.985
    39   1 H    0.999 --    10 C    0.987
    40   1 H    0.996 --    11 C    0.964
    41   1 H    0.998 --    12 C    0.977
    42   1 H    0.999 --    12 C    0.969
    43   1 H    0.993 --    14 C    0.963
    44   1 H    0.987 --    15 C    0.953
    45   1 H    0.987 --    19 C    0.946
    46   1 H    0.993 --    22 C    0.973
    47   1 H    0.996 --    22 C    0.979
    48   1 H    0.992 --    22 C    0.972
    49   1 H    0.996 --    23 C    0.964
    50   1 H    0.993 --    24 C    0.964
 ---------------------------------------------------------------------------

Topologies differ in total number of bonds
Writing topology from bond orders to xtbtopo.mol

molecular dipole:
                 x           y           z       tot (Debye)
 q only:       -0.853       0.989       0.565
   full:       -1.218       1.236       0.512       4.598
molecular quadrupole (traceless):
                xx          xy          yy          xz          yz          zz
 q only:        9.435      10.888      -4.836       6.619       3.213      -4.598
  q+dip:       12.724      15.085      -5.595       5.397       5.243      -7.129
   full:       12.056      13.429      -4.115       7.162       4.096      -7.940


           -------------------------------------------------
          | TOTAL ENERGY              -69.999708477045 Eh   |
          | GRADIENT NORM               0.104079962555 Eh/α |
          | HOMO-LUMO GAP               1.034049970735 eV   |
           -------------------------------------------------

------------------------------------------------------------------------
 * finished run on 2025/05/15 at 16:17:43.615     
------------------------------------------------------------------------
 total:
 * wall-time:     0 d,  0 h,  0 min,  0.206 sec
 *  cpu-time:     0 d,  0 h,  0 min,  0.114 sec
 * ratio c/w:     0.554 speedup
 SCF:
 * wall-time:     0 d,  0 h,  0 min,  0.191 sec
 *  cpu-time:     0 d,  0 h,  0 min,  0.100 sec
 * ratio c/w:     0.526 speedup


