50
 energy: -70.101009581963 gnorm: 0.000392833856 xtb: 6.7.1 (edcfbbe)
O            0.64658941223485       -1.72294305275945        1.69226274830924
C            0.15258526102548       -1.40215395279647        0.41497210393730
C           -0.52532011800079       -0.01355288476994        0.44003265385378
N           -1.41575563001020        0.07569432847460        1.59928541537546
C           -1.72528664161780        1.48043340284613        1.82972631068009
C           -2.27206227276263        2.13391276545145        0.54256668706730
C           -2.65851956784603       -0.65094436723854        1.37207910342536
C           -3.51755214357034        0.00867842014078        0.26863193649173
C           -4.15862316587863       -1.04240491194309       -0.64105600828199
C           -5.17826294196536       -0.45801525410771       -1.61208182298275
C           -2.59789795198665        1.00962686929048       -0.44956163449183
C           -1.28679395043964        0.32539443315470       -0.85164088529294
C            1.23956956131785       -1.40874620441826       -0.63096380613067
C            1.01840552853322       -2.05718831973809       -1.82114304176821
C            1.97875590303501       -1.99485333458684       -2.84356925036331
N            3.09972883211428       -1.34174326529019       -2.74152760760519
C            3.36446965172627       -0.71026884479536       -1.58108419504785
C            2.46968334846969       -0.71296289790822       -0.46995214255009
C            2.85362282184542       -0.03995507459403        0.70000991338260
C            4.05854041603858        0.62593091680861        0.78044854036714
O            4.32154731314451        1.24280750799606        1.96743523968423
C            5.56264457202369        1.88165807729413        2.14159498587913
C            4.92884181440017        0.64132365449057       -0.32691670531763
C            4.58514917034095       -0.01671967973915       -1.47406302876517
H            0.03815194289046       -1.31851443728794        2.32898974705288
H           -0.59479150707243       -2.16068153358815        0.12126543275013
H            0.26726226731466        0.72277796183998        0.60857259463212
H           -2.45795098962053        1.52872828605375        2.63816859429058
H           -0.81543934200590        1.98070636008823        2.17068239487143
H           -3.16757796680014        2.71874732961499        0.75683521239740
H           -1.53117755954863        2.80353976542541        0.10257574956550
H           -3.20024594026609       -0.68431808237471        2.32138306604864
H           -2.41243220054343       -1.67813441913391        1.09899971031585
H           -4.32974734682473        0.57947549459274        0.73308060795065
H           -4.66095110946285       -1.77558475400728       -0.00413053944268
H           -3.38783626783830       -1.57301983236924       -1.20372108791207
H           -5.65958620290775       -1.25483220105340       -2.17441872944362
H           -4.70488077797794        0.21614384087940       -2.32149320226368
H           -5.94644076016866        0.09296386456033       -1.07345216366945
H           -3.09197896622124        1.42328214500306       -1.33119241538166
H           -0.69110978273713        0.98671978134538       -1.48254414241313
H           -1.49376486813018       -0.57673633447299       -1.42846497399885
H            0.10772550120985       -2.61482057544014       -1.98522729494398
H            1.80563407895841       -2.50024734294355       -3.78543692927435
H            2.22620697266605       -0.06663022461295        1.57474573096381
H            6.39726311717509        1.18614095992825        2.00811989628341
H            5.56238510627844        2.24708343677651        3.16737177627396
H            5.68145295821810        2.72940756224566        1.45855004244325
H            5.87198411677430        1.16276219392373       -0.27603628014968
H            5.24358630446235       -0.02756757624837       -2.32850830679586
