39
 energy: -51.133812417895 gnorm: 0.000210398337 xtb: 6.7.1 (edcfbbe)
C            1.72854127919796        1.51731355691129        2.30509013032654
C            2.41315713046235        0.78207565483223        1.19794370751051
C            3.79388344015619        0.86013911628189        1.06367029903877
C            4.45042070621887        0.24007122744276        0.01884703388349
C            3.72577659049513       -0.46876892470083       -0.92232507805111
C            2.34979440453178       -0.58372766508593       -0.81273830775340
C            1.56603000700873       -1.36301892984164       -1.82736641765008
C            1.69582133893048        0.03063290653787        0.26244898492165
N            0.29498344647048       -0.09679730835111        0.33757605689388
C           -0.46138042765962       -0.48558459285548        1.38292947981141
C           -1.95314533303159       -0.55560803532999        1.03639730235428
N           -2.26539195163987       -0.08106086277154       -0.30384298055329
C           -3.07677890081200       -1.02679750663765       -1.05934057212176
C           -2.25423062579780       -2.22417941225215       -1.52334247550378
C           -2.82622996073931        1.26289584320780       -0.29917594429173
C           -1.82872483483819        2.30680761188600        0.18834366734680
O           -0.05732977395251       -0.78523215637596        2.48739536844883
H            0.90535172059728        2.11456595024517        1.91395188057433
H            2.42771009569705        2.17252834685175        2.81829243248351
H            1.31120058078262        0.81176945549386        3.02283369416114
H            4.35789559216472        1.42881427902549        1.78867707475157
H            5.52397602005824        0.31554945764232       -0.06886506868934
H            4.23383557138935       -0.94618870565908       -1.74780078372514
H            0.90733892876623       -0.70455234215542       -2.39643015945958
H            2.23615871476416       -1.85654279674273       -2.52647855281189
H            0.95385961113375       -2.12000045894312       -1.33915471198203
H           -0.23470072530580       -0.02750930703994       -0.52781343445851
H           -2.49926445044477        0.00259113595633        1.80870128562589
H           -2.24559377785290       -1.60295496244623        1.15311587494397
H           -3.94327471421630       -1.37508015551660       -0.47295320188613
H           -3.46349406224924       -0.51076580721498       -1.94171962630468
H           -1.81031733877970       -2.75137351273601       -0.68276233652924
H           -2.89204435009698       -2.91863411918934       -2.06428816040465
H           -1.45781652319365       -1.89755622168714       -2.18638478864281
H           -3.11118404028589        1.50681675877062       -1.32630711259450
H           -3.73754265952951        1.31317277646741        0.32272400263657
H           -1.52166202213062        2.10959320600670        1.21175697727402
H           -0.94486429882232        2.31626052298410       -0.44430191811229
H           -2.29056440744751        3.29063597698513        0.15279637853800
