31
 energy: -58.962020874736 gnorm: 0.000380697655 xtb: 6.7.1 (edcfbbe)
N           -5.01871181672564       -0.98417480108855        0.86489938638984
C           -3.98239924125946       -0.20490326831427        0.53137531218513
N           -4.14764734760960        1.12082644142182        0.55338518224518
C           -3.13403828711860        1.89927014526657        0.22673213285686
Cl          -3.45471356502020        3.57249988460520        0.29126623460772
N           -1.91340663172897        1.56882622506231       -0.13790773667735
C           -1.74213338465998        0.24491026479815       -0.16524743253623
C           -2.72329248014506       -0.70855719273429        0.15513892899273
N           -2.19696727666657       -1.96788915351773        0.02224473440887
C           -0.97113958520875       -1.78151917332188       -0.35856658862250
N           -0.62556915378228       -0.46372268063241       -0.48921814276702
C            0.63166037134033        0.10928495065219       -0.88829268849657
C            1.16035662255638        1.12582465113270        0.13000256061300
C            2.67102526375638        1.06986027880066       -0.12200920088341
C            2.88697783948587       -0.33817865332968       -0.71835705355974
O            1.59929064326781       -0.90382615041026       -0.95600081909265
C            3.64796108373512       -1.28469229042830        0.21614442812337
O            2.98518522727214       -1.43322305678373        1.44286991837526
O            3.11022170974087        2.00428543515056       -1.07586967991210
H           -4.90474316077021       -1.98135444862779        0.86309467604428
H           -5.88510201191159       -0.55447992695826        1.13596057247085
H           -0.27098296317202       -2.56538801846756       -0.56476460696287
H            0.50442868543916        0.58798224253094       -1.87573609568827
H            0.73078688174386        2.11216887772437       -0.02501555398715
H            0.93133262595828        0.78397468435580        1.13991896713793
H            3.23419057024779        1.18142153970089        0.81353728034138
H            3.42335346041776       -0.23153486142098       -1.66963266869563
H            4.63547699221295       -0.87690168964221        0.43650408361558
H            3.76280454161096       -2.25451594637182       -0.28597248781634
H            2.09081253368618       -1.74193904058042        1.24869842692429
H            2.96498185330723        2.89556473142836       -0.73888206963469
