57
 energy: -90.578887264781 gnorm: 0.000314013455 xtb: 6.7.1 (edcfbbe)
C            3.59854315652924        2.14652077581781        0.40404025429223
N            3.85800024776269        0.77892188434826        0.00513488237602
C            5.05287851633428        0.49342501388262       -0.55843255645981
N            5.99643865546727        1.40553942164231       -0.53204074186453
C            7.18766929839459        1.09362380122834       -1.07263294196884
C            7.49578428106096       -0.10518400529650       -1.63277169356272
C            6.49434029168728       -1.12678269305028       -1.69332586139768
N            5.26804613972857       -0.72315717033805       -1.12953227801790
O            6.57647396316736       -2.24512637956650       -2.16152213999538
C            2.76083360899177       -0.17430263394472        0.04489568306157
C            1.85794230062735        0.02887335785627        1.26428906815838
C            0.76586543476736       -1.04806150960228        1.26366264045191
C            1.90285733692584       -0.11083974065237       -1.22533573516253
C            0.77879705600627       -1.14440499815798       -1.14122462947892
N           -0.04029922468311       -0.99689132711961        0.05125362977736
C           -0.95035368807367        0.05016131024278       -0.00380863028967
N           -0.85299140222019        1.12283022894320       -0.73792159990882
C           -2.00417334435961        1.83555037758861       -0.50771599067636
C           -2.81137374976550        1.13542835354571        0.41693627882843
N           -2.10992311802341       -0.00852449761058        0.72991932767988
C           -2.61869120506043       -1.12830061254115        1.47892093654329
C           -3.90971843772754       -1.63239360184325        0.87997368963970
C           -5.03203501485042       -1.84513088905369        1.66794065146881
C           -6.21220747862245       -2.29971877631559        1.10678907264920
C           -6.25306429291997       -2.53165742862945       -0.25541926040863
F           -7.40040797657785       -2.97046906652506       -0.81003967707363
C           -5.14967295658037       -2.32740886609640       -1.06473392276990
C           -3.97796096603159       -1.87879610396080       -0.48645271791624
C           -4.03529777276799        1.62704776238698        0.83563721018421
C           -4.43713809196377        2.83927688097608        0.30820611867920
C           -3.64490455035689        3.53964404728361       -0.60133411833655
C           -2.42376839457446        3.05464371983450       -1.02311117134812
H            4.43696364471583        2.75216596864861        0.07095455436891
H            3.51631107855974        2.22561277384091        1.48891199336673
H            2.67896676455480        2.50649923740896       -0.05771516920896
H            7.91370194493952        1.89447663304244       -1.02170438287784
H            8.46554154004297       -0.31792873241413       -2.04788242314863
H            4.53675010619923       -1.41840541068577       -1.19635875598163
H            3.18997581340051       -1.18063685475449        0.14329991242401
H            2.44060466812729       -0.03674536785767        2.18409482456213
H            1.37352411326078        1.00437023546946        1.21835813208513
H            0.11801119432760       -0.91039335217514        2.13137152015939
H            1.21459305022867       -2.04510046501235        1.31903270348367
H            2.51145662417893       -0.29766792419873       -2.11130048845418
H            1.44800398713643        0.87600884379343       -1.31562058261364
H            1.19457503242326       -2.15753154416056       -1.11709246052957
H            0.12660858575677       -1.05262511872905       -2.01016384382645
H           -1.86508368687013       -1.92063747622859        1.43757957245457
H           -2.77569221835231       -0.83778492808475        2.52435562583550
H           -4.98766636459197       -1.65642528927568        2.73081722903398
H           -7.09186258656992       -2.46905019536610        1.70713489261229
H           -5.21740149494854       -2.51911743358438       -2.12363493452890
H           -3.10575098952335       -1.71314443708282       -1.10151319381816
H           -4.65333408002180        1.08644370627848        1.53614725732384
H           -5.38808126721194        3.25486267086460        0.60637236083973
H           -4.00108251214771        4.48466972080625       -0.98380383782867
H           -1.81002156992235        3.59384810428510       -1.72668428290123
