26
 energy: -46.983756586084 gnorm: 0.000749068648 xtb: 6.7.1 (edcfbbe)
N            4.82988428002954        0.20900587572640        0.15194347126026
C            3.49459805482445        0.07002530494094        0.20279171038664
N            3.02137290709383       -0.83230490574326        1.03116417595099
C            1.71206067763043       -1.06236781211047        1.16228506326375
N            0.83049337096178       -0.23408313913671        0.37080020811746
C           -0.57776913140862       -0.48198298687181        0.52239919000718
C           -1.03725007915180       -1.67624649422391       -0.33236988196800
S           -2.81382203125657       -1.40932487348797       -0.54210009884586
C           -2.66928925634177        0.32464138843868        0.13315155485675
O           -1.31968381974127        0.63933031826793        0.11633524240411
C           -3.45805748994835        1.31124089544819       -0.72612296994816
O           -4.83338860826874        1.08564665371075       -0.66295682747100
C            1.31200936965037        0.67699486223342       -0.49445925627318
C            2.64741103610682        0.87178893424675       -0.62004816759127
O            1.20927665672870       -1.89902441088518        1.87428528999532
H            5.26521777394387        0.88207045439079       -0.45093743989106
H            5.38736776750714       -0.37321450621395        0.75148159376434
H           -0.75851213511650       -0.71321197817203        1.58602087387425
H           -0.85070425276901       -2.62169253714292        0.16941136043357
H           -0.55494338153145       -1.66172293785743       -1.31120138673278
H           -3.07196940986887        0.28808175494199        1.15559830036791
H           -3.08322896325919        1.25462600036408       -1.75780460100562
H           -3.28932083972053        2.32203620234048       -0.34558179601773
H           -5.02046633354739        0.19080471484489       -0.97481154668887
H            0.57839075699373        1.23862275480565       -1.05463673169725
H            3.05012308045929        1.60026046714458       -1.30153733055190
