----- Optimization -----
      -----------------------------------------------------------      
     |                   =====================                   |     
     |                           x T B                           |     
     |                   =====================                   |     
     |                         S. Grimme                         |     
     |          Mulliken Center for Theoretical Chemistry        |     
     |                    University of Bonn                     |     
      -----------------------------------------------------------      

   * xtb version 6.7.1 (edcfbbe) compiled by 'conda@3ef47c1a292c' on 2024-11-25

   xtb is free software: you can redistribute it and/or modify it under
   the terms of the GNU Lesser General Public License as published by
   the Free Software Foundation, either version 3 of the License, or
   (at your option) any later version.
   
   xtb is distributed in the hope that it will be useful,
   but WITHOUT ANY WARRANTY; without even the implied warranty of
   MERCHANTABILITY or FITNESS FOR A PARTICULAR PURPOSE.  See the
   GNU Lesser General Public License for more details.
   
   Cite this work as:
   * C. Bannwarth, E. Caldeweyher, S. Ehlert, A. Hansen, P. Pracht,
     J. Seibert, S. Spicher, S. Grimme, WIREs Comput. Mol. Sci., 2020, 11,
     e01493. DOI: 10.1002/wcms.1493
   
   for GFN2-xTB:
   * C. Bannwarth, S. Ehlert and S. Grimme., J. Chem. Theory Comput., 2019,
     15, 1652-1671. DOI: 10.1021/acs.jctc.8b01176
   for GFN1-xTB:
   * S. Grimme, C. Bannwarth, P. Shushkov, J. Chem. Theory Comput., 2017,
     13, 1989-2009. DOI: 10.1021/acs.jctc.7b00118
   for GFN0-xTB:
   * P. Pracht, E. Caldeweyher, S. Ehlert, S. Grimme, ChemRxiv, 2019, preprint.
     DOI: 10.26434/chemrxiv.8326202.v1
   for GFN-FF:
   * S. Spicher and S. Grimme, Angew. Chem. Int. Ed., 2020, 59, 15665-15673.
     DOI: 10.1002/anie.202004239
   
   for ALPB and GBSA implicit solvation:
   * S. Ehlert, M. Stahn, S. Spicher, S. Grimme, J. Chem. Theory Comput.,
     2021, 17, 4250-4261. DOI: 10.1021/acs.jctc.1c00471
   
   for ddCOSMO and CPCM-X implicit solvation:
   * M. Stahn, S. Ehlert, S. Grimme, J. Phys. Chem. A,
     2023, XX, XXXX-XXXX. DOI: 10.1021/acs.jpca.3c04382
   
   for DFT-D4:
   * E. Caldeweyher, C. Bannwarth and S. Grimme, J. Chem. Phys., 2017,
     147, 034112. DOI: 10.1063/1.4993215
   * E. Caldeweyher, S. Ehlert, A. Hansen, H. Neugebauer, S. Spicher,
     C. Bannwarth and S. Grimme, J. Chem. Phys., 2019, 150, 154122.
     DOI: 10.1063/1.5090222
   * E. Caldeweyher, J.-M. Mewes, S. Ehlert and S. Grimme, Phys. Chem. Chem. Phys.
     2020, 22, 8499-8512. DOI: 10.1039/D0CP00502A
   
   for sTDA-xTB:
   * S. Grimme and C. Bannwarth, J. Chem. Phys., 2016, 145, 054103.
     DOI: 10.1063/1.4959605
   
   in the mass-spec context:
   * V. Asgeirsson, C. Bauer and S. Grimme, Chem. Sci., 2017, 8, 4879.
     DOI: 10.1039/c7sc00601b
   * J. Koopman and S. Grimme, ACS Omega 2019, 4, 12, 15120-15133.
     DOI: 10.1021/acsomega.9b02011
   
   for metadynamics refer to:
   * S. Grimme, J. Chem. Theory Comput., 2019, 155, 2847-2862
     DOI: 10.1021/acs.jctc.9b00143
   
   for SPH calculations refer to:
   * S. Spicher and S. Grimme, J. Chem. Theory Comput., 2021, 17, 1701-1714
     DOI: 10.1021/acs.jctc.0c01306
   
   for ONIOM refer to:
   * C. Plett, A. Katbashev, S. Ehlert, S. Grimme, M. Bursch,
     Phys. Chem. Chem. Phys., 2023, 25, 17860-17868. DOI: 10.1039/D3CP02178E
   
   for DIPRO refer to:
   * J. Kohn, N. Gildemeister, S. Grimme, D. Fazzi, A. Hansen,
     J. Chem. Phys., 2023, just accepted.
   
   for PTB refer to:
   * S. Grimme, M. Mueller, A. Hansen, J. Chem. Phys., 2023, 158, 124111.
     DOI: 10.1063/5.0137838
   
   with help from (in alphabetical order)
   P. Atkinson, C. Bannwarth, F. Bohle, G. Brandenburg, E. Caldeweyher
   M. Checinski, S. Dohm, S. Ehlert, S. Ehrlich, I. Gerasimov, C. Hölzer
   A. Katbashev, J. Kohn, J. Koopman, C. Lavigne, S. Lehtola, F. März, M. Müller,
   F. Musil, H. Neugebauer, J. Pisarek, C. Plett, P. Pracht, F. Pultar,
   J. Seibert, P. Shushkov, S. Spicher, M. Stahn, M. Steiner, T. Strunk,
   J. Stückrath, T. Rose, and J. Unsleber
   
 * started run on 2025/05/15 at 16:11:00.441     
   ID    Z sym.   atoms
    1    7 N      1, 3, 5
    2    6 C      2, 4, 6, 7, 9, 11, 13, 14
    3   16 S      8
    4    8 O      10, 12, 15
    5    1 H      16-26

           -------------------------------------------------
          |                Calculation Setup                |
           -------------------------------------------------

          program call               : xtb /rds/general/user/hgt20/home/callum/QDESCP/Lamivudine_rdkit_conf_2/Lamivudine_rdkit_conf_2.xyz --opt normal --acc 1 --gfn 2 --chrg 0 --uhf 0 -P 1
          hostname                   : login-c
          coordinate file            : /rds/general/user/hgt20/home/callum/QDESCP/Lamivudine_rdkit_conf_2/Lamivudine_rdkit_conf_2.xyz
          omp threads                :                     1


           -------------------------------------------------
          |                 G F N 2 - x T B                 |
           -------------------------------------------------

        Reference                      10.1021/acs.jctc.8b01176
      * Hamiltonian:
        H0-scaling (s, p, d)           1.850000    2.230000    2.230000
        zeta-weighting                 0.500000
      * Dispersion:
        s8                             2.700000
        a1                             0.520000
        a2                             5.000000
        s9                             5.000000
      * Repulsion:
        kExp                           1.500000    1.000000
        rExp                           1.000000
      * Coulomb:
        alpha                          2.000000
        third order                    shell-resolved
        anisotropic                    true
        a3                             3.000000
        a5                             4.000000
        cn-shift                       1.200000
        cn-exp                         4.000000
        max-rad                        5.000000


          ...................................................
          :                      SETUP                      :
          :.................................................:
          :  # basis functions                  77          :
          :  # atomic orbitals                  76          :
          :  # shells                           42          :
          :  # electrons                        82          :
          :  max. iterations                   250          :
          :  Hamiltonian                  GFN2-xTB          :
          :  restarted?                      false          :
          :  GBSA solvation                  false          :
          :  PC potential                    false          :
          :  electronic temp.          300.0000000     K    :
          :  accuracy                    1.0000000          :
          :  -> integral cutoff          0.2500000E+02      :
          :  -> integral neglect         0.1000000E-07      :
          :  -> SCF convergence          0.1000000E-05 Eh   :
          :  -> wf. convergence          0.1000000E-03 e    :
          :  Broyden damping             0.4000000          :
          :  net charge                          0          :
          :  unpaired electrons                  0          :
          ...................................................

 iter      E             dE          RMSdq      gap      omega  full diag
   1    -47.3235335 -0.473235E+02  0.510E+00    3.45       0.0  T
   2    -47.4234456 -0.999121E-01  0.293E+00    3.22       1.0  T
   3    -47.4195535  0.389216E-02  0.137E+00    3.03       1.0  T
   4    -47.4313058 -0.117523E-01  0.560E-01    2.88       1.0  T
   5    -47.4362065 -0.490076E-02  0.182E-01    2.90       1.0  T
   6    -47.4363128 -0.106324E-03  0.733E-02    2.91       1.0  T
   7    -47.4363320 -0.191500E-04  0.275E-02    2.92       1.0  T
   8    -47.4363340 -0.200773E-05  0.138E-02    2.92       1.4  T
   9    -47.4363342 -0.201873E-06  0.413E-03    2.92       4.7  T
  10    -47.4363343 -0.632504E-07  0.185E-03    2.92      10.6  T
  11    -47.4363343 -0.955170E-08  0.788E-04    2.92      24.9  T
  12    -47.4363343 -0.161141E-08  0.337E-04    2.92      58.1  T

   *** convergence criteria satisfied after 12 iterations ***

         #    Occupation            Energy/Eh            Energy/eV
      -------------------------------------------------------------
         1        2.0000           -0.7488107             -20.3762
       ...           ...                  ...                  ...
        35        2.0000           -0.4527119             -12.3189
        36        2.0000           -0.4337716             -11.8035
        37        2.0000           -0.4233501             -11.5199
        38        2.0000           -0.4117273             -11.2037
        39        2.0000           -0.4077907             -11.0966
        40        2.0000           -0.3931556             -10.6983
        41        2.0000           -0.3829977             -10.4219 (HOMO)
        42                         -0.2756426              -7.5006 (LUMO)
        43                         -0.2396205              -6.5204
        44                         -0.2337853              -6.3616
        45                         -0.1606682              -4.3720
        46                         -0.1403557              -3.8193
       ...                                ...                  ...
        76                          0.6382152              17.3667
      -------------------------------------------------------------
                  HL-Gap            0.1073551 Eh            2.9213 eV
             Fermi-level           -0.3293202 Eh           -8.9613 eV

 SCC (total)                   0 d,  0 h,  0 min,  0.029 sec
 SCC setup                      ...        0 min,  0.000 sec (  0.689%)
 Dispersion                     ...        0 min,  0.000 sec (  0.660%)
 classical contributions        ...        0 min,  0.000 sec (  0.212%)
 integral evaluation            ...        0 min,  0.004 sec ( 14.486%)
 iterations                     ...        0 min,  0.013 sec ( 45.524%)
 molecular gradient             ...        0 min,  0.011 sec ( 38.073%)
 printout                       ...        0 min,  0.000 sec (  0.337%)

         :::::::::::::::::::::::::::::::::::::::::::::::::::::
         ::                     SUMMARY                     ::
         :::::::::::::::::::::::::::::::::::::::::::::::::::::
         :: total energy             -46.972269751037 Eh    ::
         :: gradient norm              0.091852145628 Eh/a0 ::
         :: HOMO-LUMO gap              2.921280656465 eV    ::
         ::.................................................::
         :: SCC energy               -47.436352315949 Eh    ::
         :: -> isotropic ES            0.105304380917 Eh    ::
         :: -> anisotropic ES          0.000976768684 Eh    ::
         :: -> anisotropic XC          0.015156926208 Eh    ::
         :: -> dispersion             -0.025383096879 Eh    ::
         :: repulsion energy           0.464082564912 Eh    ::
         :: add. restraining           0.000000000000 Eh    ::
         :: total charge              -0.000000000000 e     ::
         :::::::::::::::::::::::::::::::::::::::::::::::::::::

      ----------------------------------------------------------- 
     |                   =====================                   |
     |                        A N C O P T                        |
     |                   =====================                   |
     |               Approximate Normal Coordinate               |
     |                Rational Function Optimizer                |
      ----------------------------------------------------------- 
      ----------------------------------------------------------- 
     |                   =====================                   |
     |                        A N C O P T                        |
     |                   =====================                   |
     |               Approximate Normal Coordinate               |
     |                Rational Function Optimizer                |
      ----------------------------------------------------------- 

          ...................................................
          :                      SETUP                      :
          :.................................................:
          :   optimization level            normal          :
          :   max. optcycles                   200          :
          :   ANC micro-cycles                  20          :
          :   degrees of freedom                72          :
          :.................................................:
          :   RF solver                   davidson          :
          :   write xtbopt.log                true          :
          :   linear?                        false          :
          :   energy convergence         0.5000000E-05 Eh   :
          :   grad. convergence          0.1000000E-02 Eh/α :
          :   maxmium RF displ.          1.0000000          :
          :   Hlow (freq-cutoff)         0.1000000E-01      :
          :   Hmax (freq-cutoff)         5.0000000          :
          :   S6 in model hess.         20.0000000          :
          ...................................................

generating ANC from exact Hessian ...
Using Lindh-Hessian (1995)
 Shifting diagonal of input Hessian by    8.8822047349611556E-003
 Lowest  eigenvalues of input Hessian
    0.000000    0.000000    0.000000    0.000000    0.000000    0.000000
    0.010000    0.010368    0.011187    0.013053    0.014560    0.018022
    0.019238    0.023392    0.025109    0.029008    0.029699    0.034914
 Highest eigenvalues
    1.662661    1.834404    1.971343    2.047281    2.140768    2.394168


........................................................................
.............................. CYCLE    1 ..............................
........................................................................

 iter      E             dE          RMSdq      gap      omega  full diag
   1    -47.4363343 -0.474363E+02  0.945E-05    2.92       0.0  T
   2    -47.4363343 -0.236753E-10  0.510E-05    2.92     384.4  T
   3    -47.4363343 -0.227374E-11  0.307E-05    2.92     639.2  T
     SCC iter.                  ...        0 min,  0.004 sec
     gradient                   ...        0 min,  0.011 sec
 * total energy  :   -46.9722698 Eh     change       -0.6167227E-09 Eh
   gradient norm :     0.0918514 Eh/α   predicted     0.0000000E+00 (-100.00%)
   displ. norm   :     0.2301292 α      lambda       -0.9645965E-02
   maximum displ.:     0.0909515 α      in ANC's #19, #27, #12, ...

........................................................................
.............................. CYCLE    2 ..............................
........................................................................

 iter      E             dE          RMSdq      gap      omega  full diag
   1    -47.4550052 -0.474550E+02  0.197E-01    2.92       0.0  T
   2    -47.4551499 -0.144723E-03  0.114E-01    2.92       1.0  T
   3    -47.4551518 -0.191348E-05  0.685E-02    2.92       1.0  T
   4    -47.4551821 -0.302630E-04  0.205E-02    2.92       1.0  T
   5    -47.4551897 -0.754366E-05  0.536E-03    2.92       3.7  T
   6    -47.4551898 -0.181007E-06  0.255E-03    2.92       7.7  T
   7    -47.4551899 -0.200276E-07  0.109E-03    2.92      18.0  T
   8    -47.4551899 -0.352488E-08  0.399E-04    2.92      49.1  T
   9    -47.4551899 -0.397712E-09  0.179E-04    2.92     109.8  T
     SCC iter.                  ...        0 min,  0.009 sec
     gradient                   ...        0 min,  0.011 sec
 * total energy  :   -46.9791764 Eh     change       -0.6906646E-02 Eh
   gradient norm :     0.0515169 Eh/α   predicted    -0.5080039E-02 ( -26.45%)
   displ. norm   :     0.2224025 α      lambda       -0.5190493E-02
   maximum displ.:     0.0958681 α      in ANC's #11, #25, #4, ...

........................................................................
.............................. CYCLE    3 ..............................
........................................................................

 iter      E             dE          RMSdq      gap      omega  full diag
   1    -47.4694169 -0.474694E+02  0.192E-01    2.91       0.0  T
   2    -47.4695598 -0.142946E-03  0.105E-01    2.89       1.0  T
   3    -47.4695703 -0.104260E-04  0.667E-02    2.89       1.0  T
   4    -47.4695922 -0.219545E-04  0.201E-02    2.88       1.0  T
   5    -47.4695988 -0.659269E-05  0.568E-03    2.88       3.5  T
   6    -47.4695992 -0.352548E-06  0.244E-03    2.88       8.0  T
   7    -47.4695992 -0.218928E-07  0.116E-03    2.88      16.9  T
   8    -47.4695992 -0.428695E-08  0.367E-04    2.88      53.4  T
   9    -47.4695992 -0.310223E-09  0.176E-04    2.88     111.5  T
     SCC iter.                  ...        0 min,  0.009 sec
     gradient                   ...        0 min,  0.011 sec
 * total energy  :   -46.9821240 Eh     change       -0.2947621E-02 Eh
   gradient norm :     0.0210243 Eh/α   predicted    -0.2725222E-02 (  -7.55%)
   displ. norm   :     0.1205591 α      lambda       -0.8948985E-03
   maximum displ.:     0.0505493 α      in ANC's #4, #11, #2, ...

........................................................................
.............................. CYCLE    4 ..............................
........................................................................

 iter      E             dE          RMSdq      gap      omega  full diag
   1    -47.4698251 -0.474698E+02  0.809E-02    2.89       0.0  T
   2    -47.4698484 -0.232442E-04  0.446E-02    2.87       1.0  T
   3    -47.4698494 -0.102825E-05  0.215E-02    2.87       1.0  T
   4    -47.4698509 -0.148612E-05  0.511E-03    2.87       3.8  T
   5    -47.4698511 -0.182308E-06  0.191E-03    2.87      10.3  T
   6    -47.4698511 -0.143521E-07  0.714E-04    2.87      27.5  T
   7    -47.4698511 -0.299885E-09  0.339E-04    2.87      57.8  T
     SCC iter.                  ...        0 min,  0.007 sec
     gradient                   ...        0 min,  0.025 sec
 * total energy  :   -46.9827432 Eh     change       -0.6191854E-03 Eh
   gradient norm :     0.0135487 Eh/α   predicted    -0.4540409E-03 ( -26.67%)
   displ. norm   :     0.1456459 α      lambda       -0.6285936E-03
   maximum displ.:     0.0785481 α      in ANC's #4, #2, #5, ...

........................................................................
.............................. CYCLE    5 ..............................
........................................................................

 iter      E             dE          RMSdq      gap      omega  full diag
   1    -47.4690860 -0.474691E+02  0.870E-02    2.87       0.0  T
   2    -47.4691178 -0.318738E-04  0.497E-02    2.86       1.0  T
   3    -47.4691188 -0.989023E-06  0.224E-02    2.86       1.0  T
   4    -47.4691209 -0.207293E-05  0.845E-03    2.86       2.3  T
   5    -47.4691220 -0.113582E-05  0.316E-03    2.86       6.2  T
   6    -47.4691221 -0.738565E-07  0.130E-03    2.86      15.1  T
   7    -47.4691221 -0.128016E-07  0.378E-04    2.86      51.9  T
   8    -47.4691221 -0.383778E-09  0.164E-04    2.86     119.7  T
     SCC iter.                  ...        0 min,  0.008 sec
     gradient                   ...        0 min,  0.011 sec
 * total energy  :   -46.9831484 Eh     change       -0.4051681E-03 Eh
   gradient norm :     0.0092988 Eh/α   predicted    -0.3210198E-03 ( -20.77%)
   displ. norm   :     0.1098306 α      lambda       -0.2321774E-03
   maximum displ.:     0.0633443 α      in ANC's #4, #5, #2, ...

........................................................................
.............................. CYCLE    6 ..............................
........................................................................

 iter      E             dE          RMSdq      gap      omega  full diag
   1    -47.4691805 -0.474692E+02  0.598E-02    2.86       0.0  T
   2    -47.4691919 -0.113445E-04  0.334E-02    2.86       1.0  T
   3    -47.4691917  0.185193E-06  0.135E-02    2.86       1.5  T
   4    -47.4691931 -0.138591E-05  0.584E-03    2.86       3.4  T
   5    -47.4691937 -0.583407E-06  0.212E-03    2.86       9.2  T
   6    -47.4691937 -0.922564E-08  0.641E-04    2.86      30.6  T
   7    -47.4691937 -0.492928E-08  0.212E-04    2.86      92.7  T
     SCC iter.                  ...        0 min,  0.007 sec
     gradient                   ...        0 min,  0.011 sec
 * total energy  :   -46.9833181 Eh     change       -0.1697585E-03 Eh
   gradient norm :     0.0076595 Eh/α   predicted    -0.1174963E-03 ( -30.79%)
   displ. norm   :     0.1345955 α      lambda       -0.1983054E-03
   maximum displ.:     0.0799427 α      in ANC's #4, #5, #2, ...

........................................................................
.............................. CYCLE    7 ..............................
........................................................................

 iter      E             dE          RMSdq      gap      omega  full diag
   1    -47.4697981 -0.474698E+02  0.730E-02    2.87       0.0  T
   2    -47.4698071 -0.900444E-05  0.383E-02    2.88       1.0  T
   3    -47.4698067  0.372669E-06  0.124E-02    2.87       1.6  T
   4    -47.4698082 -0.146089E-05  0.517E-03    2.87       3.8  T
   5    -47.4698085 -0.288071E-06  0.246E-03    2.87       8.0  T
   6    -47.4698085 -0.433090E-07  0.621E-04    2.87      31.6  T
   7    -47.4698085 -0.436940E-08  0.239E-04    2.87      82.0  T
     SCC iter.                  ...        0 min,  0.007 sec
     gradient                   ...        0 min,  0.011 sec
 * total energy  :   -46.9834578 Eh     change       -0.1397051E-03 Eh
   gradient norm :     0.0069211 Eh/α   predicted    -0.1009510E-03 ( -27.74%)
   displ. norm   :     0.1133521 α      lambda       -0.1297407E-03
   maximum displ.:     0.0690091 α      in ANC's #4, #5, #2, ...

........................................................................
.............................. CYCLE    8 ..............................
........................................................................

 iter      E             dE          RMSdq      gap      omega  full diag
   1    -47.4708910 -0.474709E+02  0.667E-02    2.89       0.0  T
   2    -47.4708946 -0.361282E-05  0.338E-02    2.89       1.0  T
   3    -47.4708948 -0.215501E-06  0.795E-03    2.89       2.5  T
   4    -47.4708952 -0.422381E-06  0.354E-03    2.89       5.5  T
   5    -47.4708952 -0.173689E-07  0.125E-03    2.89      15.7  T
   6    -47.4708953 -0.215518E-07  0.449E-04    2.89      43.6  T
   7    -47.4708953 -0.207017E-08  0.221E-04    2.89      88.9  T
     SCC iter.                  ...        0 min,  0.007 sec
     gradient                   ...        0 min,  0.011 sec
 * total energy  :   -46.9835508 Eh     change       -0.9298550E-04 Eh
   gradient norm :     0.0057478 Eh/α   predicted    -0.6570586E-04 ( -29.34%)
   displ. norm   :     0.1187082 α      lambda       -0.9966146E-04
   maximum displ.:     0.0725540 α      in ANC's #4, #5, #10, ...

........................................................................
.............................. CYCLE    9 ..............................
........................................................................

 iter      E             dE          RMSdq      gap      omega  full diag
   1    -47.4713887 -0.474714E+02  0.736E-02    2.90       0.0  T
   2    -47.4713926 -0.390042E-05  0.368E-02    2.91       1.0  T
   3    -47.4713929 -0.319960E-06  0.822E-03    2.91       2.4  T
   4    -47.4713934 -0.463442E-06  0.380E-03    2.91       5.2  T
   5    -47.4713934 -0.218259E-07  0.114E-03    2.91      17.2  T
   6    -47.4713934 -0.815116E-08  0.338E-04    2.91      58.0  T
   7    -47.4713934 -0.147423E-09  0.145E-04    2.91     135.5  T
     SCC iter.                  ...        0 min,  0.007 sec
     gradient                   ...        0 min,  0.011 sec
 * total energy  :   -46.9836174 Eh     change       -0.6657046E-04 Eh
   gradient norm :     0.0059354 Eh/α   predicted    -0.5053658E-04 ( -24.09%)
   displ. norm   :     0.0964973 α      lambda       -0.9422086E-04
   maximum displ.:     0.0575156 α      in ANC's #4, #5, #10, ...

........................................................................
.............................. CYCLE   10 ..............................
........................................................................

 iter      E             dE          RMSdq      gap      omega  full diag
   1    -47.4727008 -0.474727E+02  0.708E-02    2.92       0.0  T
   2    -47.4727054 -0.465675E-05  0.357E-02    2.92       1.0  T
   3    -47.4727058 -0.418457E-06  0.730E-03    2.92       2.7  T
   4    -47.4727061 -0.244327E-06  0.363E-03    2.92       5.4  T
   5    -47.4727061 -0.185259E-07  0.128E-03    2.92      15.3  T
   6    -47.4727061 -0.924358E-08  0.356E-04    2.92      55.0  T
   7    -47.4727061 -0.184002E-09  0.191E-04    2.92     102.8  T
     SCC iter.                  ...        0 min,  0.007 sec
     gradient                   ...        0 min,  0.011 sec
 * total energy  :   -46.9836598 Eh     change       -0.4243332E-04 Eh
   gradient norm :     0.0049283 Eh/α   predicted    -0.4755252E-04 (  12.06%)
   displ. norm   :     0.0738314 α      lambda       -0.4705313E-04
   maximum displ.:     0.0424424 α      in ANC's #4, #3, #10, ...

........................................................................
.............................. CYCLE   11 ..............................
........................................................................

 iter      E             dE          RMSdq      gap      omega  full diag
   1    -47.4721152 -0.474721E+02  0.492E-02    2.93       0.0  T
   2    -47.4721172 -0.201483E-05  0.246E-02    2.92       1.0  T
   3    -47.4721170  0.257606E-06  0.694E-03    2.93       2.8  T
   4    -47.4721176 -0.656392E-06  0.291E-03    2.92       6.7  T
   5    -47.4721177 -0.463083E-07  0.147E-03    2.92      13.4  T
   6    -47.4721177 -0.184590E-07  0.352E-04    2.92      55.8  T
   7    -47.4721177 -0.111763E-08  0.134E-04    2.92     146.2  T
     SCC iter.                  ...        0 min,  0.007 sec
     gradient                   ...        0 min,  0.032 sec
 * total energy  :   -46.9836854 Eh     change       -0.2555501E-04 Eh
   gradient norm :     0.0031703 Eh/α   predicted    -0.2365671E-04 (  -7.43%)
   displ. norm   :     0.0224233 α      lambda       -0.1755330E-04
   maximum displ.:     0.0145551 α      in ANC's #3, #2, #8, ...

........................................................................
.............................. CYCLE   12 ..............................
........................................................................

 iter      E             dE          RMSdq      gap      omega  full diag
   1    -47.4721511 -0.474722E+02  0.146E-02    2.92       0.0  T
   2    -47.4721513 -0.239641E-06  0.787E-03    2.92       2.5  T
   3    -47.4721511  0.172180E-06  0.402E-03    2.92       4.9  T
   4    -47.4721514 -0.257445E-06  0.113E-03    2.92      17.4  T
   5    -47.4721514 -0.938260E-08  0.361E-04    2.92      54.3  T
   6    -47.4721514 -0.826830E-09  0.117E-04    2.92     167.1  T
     SCC iter.                  ...        0 min,  0.006 sec
     gradient                   ...        0 min,  0.011 sec
 * total energy  :   -46.9836986 Eh     change       -0.1321108E-04 Eh
   gradient norm :     0.0019707 Eh/α   predicted    -0.8781847E-05 ( -33.53%)
   displ. norm   :     0.0585571 α      lambda       -0.1480421E-04
   maximum displ.:     0.0446705 α      in ANC's #3, #2, #1, ...

........................................................................
.............................. CYCLE   13 ..............................
........................................................................

 iter      E             dE          RMSdq      gap      omega  full diag
   1    -47.4720008 -0.474720E+02  0.368E-02    2.92       0.0  T
   2    -47.4720016 -0.774122E-06  0.195E-02    2.92       1.0  T
   3    -47.4720006  0.100503E-05  0.851E-03    2.92       2.3  T
   4    -47.4720019 -0.139296E-05  0.250E-03    2.92       7.8  T
   5    -47.4720020 -0.219580E-07  0.735E-04    2.92      26.7  T
   6    -47.4720020 -0.416708E-08  0.213E-04    2.92      92.0  T
     SCC iter.                  ...        0 min,  0.006 sec
     gradient                   ...        0 min,  0.011 sec
 * total energy  :   -46.9837089 Eh     change       -0.1033925E-04 Eh
   gradient norm :     0.0018764 Eh/α   predicted    -0.7423370E-05 ( -28.20%)
   displ. norm   :     0.0238799 α      lambda       -0.4689138E-05
   maximum displ.:     0.0193535 α      in ANC's #3, #1, #2, ...

........................................................................
.............................. CYCLE   14 ..............................
........................................................................

 iter      E             dE          RMSdq      gap      omega  full diag
   1    -47.4722045 -0.474722E+02  0.122E-02    2.92       0.0  T
   2    -47.4722045 -0.684840E-07  0.659E-03    2.92       3.0  T
   3    -47.4722045 -0.180853E-08  0.128E-03    2.92      15.3  T
   4    -47.4722045 -0.701434E-08  0.709E-04    2.92      27.7  T
   5    -47.4722046 -0.531629E-08  0.235E-04    2.92      83.4  T
     SCC iter.                  ...        0 min,  0.005 sec
     gradient                   ...        0 min,  0.044 sec
 * total energy  :   -46.9837149 Eh     change       -0.6006235E-05 Eh
   gradient norm :     0.0013968 Eh/α   predicted    -0.2346969E-05 ( -60.92%)
   displ. norm   :     0.0946682 α      lambda       -0.1289154E-04
   maximum displ.:     0.0786075 α      in ANC's #3, #2, #1, ...

........................................................................
.............................. CYCLE   15 ..............................
........................................................................

 iter      E             dE          RMSdq      gap      omega  full diag
   1    -47.4723220 -0.474723E+02  0.467E-02    2.92       0.0  T
   2    -47.4723228 -0.789762E-06  0.252E-02    2.92       1.0  T
   3    -47.4723230 -0.144136E-06  0.451E-03    2.92       4.3  T
   4    -47.4723230 -0.399107E-07  0.208E-03    2.92       9.4  T
   5    -47.4723230 -0.105302E-07  0.419E-04    2.92      46.8  T
   6    -47.4723230 -0.164401E-08  0.192E-04    2.92     102.4  T
     SCC iter.                  ...        0 min,  0.006 sec
     gradient                   ...        0 min,  0.011 sec
 * total energy  :   -46.9837270 Eh     change       -0.1209354E-04 Eh
   gradient norm :     0.0013102 Eh/α   predicted    -0.6475008E-05 ( -46.46%)
   displ. norm   :     0.0722826 α      lambda       -0.6298181E-05
   maximum displ.:     0.0570519 α      in ANC's #3, #2, #1, ...

........................................................................
.............................. CYCLE   16 ..............................
........................................................................

 iter      E             dE          RMSdq      gap      omega  full diag
   1    -47.4727183 -0.474727E+02  0.310E-02    2.92       0.0  T
   2    -47.4727187 -0.304455E-06  0.170E-02    2.92       1.2  T
   3    -47.4727187 -0.462016E-07  0.308E-03    2.92       6.4  T
   4    -47.4727187 -0.122993E-07  0.137E-03    2.92      14.3  T
   5    -47.4727187 -0.829613E-08  0.394E-04    2.92      49.7  T
   6    -47.4727187 -0.255044E-08  0.163E-04    2.92     120.7  T
     SCC iter.                  ...        0 min,  0.006 sec
     gradient                   ...        0 min,  0.011 sec
 * total energy  :   -46.9837336 Eh     change       -0.6544786E-05 Eh
   gradient norm :     0.0017227 Eh/α   predicted    -0.3158742E-05 ( -51.74%)
   displ. norm   :     0.1329062 α      lambda       -0.9383485E-05
   maximum displ.:     0.1100287 α      in ANC's #3, #1, #2, ...

........................................................................
.............................. CYCLE   17 ..............................
........................................................................

 iter      E             dE          RMSdq      gap      omega  full diag
   1    -47.4724279 -0.474724E+02  0.610E-02    2.92       0.0  T
   2    -47.4724292 -0.133408E-05  0.331E-02    2.92       1.0  T
   3    -47.4724289  0.273046E-06  0.779E-03    2.92       2.5  T
   4    -47.4724295 -0.527207E-06  0.389E-03    2.92       5.0  T
   5    -47.4724296 -0.129538E-06  0.133E-03    2.92      14.8  T
   6    -47.4724296 -0.238421E-07  0.331E-04    2.92      59.2  T
   7    -47.4724296 -0.183334E-09  0.167E-04    2.92     117.2  T
     SCC iter.                  ...        0 min,  0.008 sec
     gradient                   ...        0 min,  0.011 sec
 * total energy  :   -46.9837426 Eh     change       -0.8985622E-05 Eh
   gradient norm :     0.0021511 Eh/α   predicted    -0.4732080E-05 ( -47.34%)
   displ. norm   :     0.0888957 α      lambda       -0.1085728E-04
   maximum displ.:     0.0651438 α      in ANC's #3, #5, #1, ...

........................................................................
.............................. CYCLE   18 ..............................
........................................................................

 iter      E             dE          RMSdq      gap      omega  full diag
   1    -47.4724929 -0.474725E+02  0.373E-02    2.92       0.0  T
   2    -47.4724933 -0.470221E-06  0.205E-02    2.92       1.0  T
   3    -47.4724933  0.656423E-07  0.452E-03    2.92       4.3  T
   4    -47.4724934 -0.112737E-06  0.239E-03    2.92       8.2  T
   5    -47.4724934 -0.635627E-07  0.720E-04    2.92      27.2  T
   6    -47.4724934 -0.745001E-08  0.209E-04    2.92      93.6  T
     SCC iter.                  ...        0 min,  0.006 sec
     gradient                   ...        0 min,  0.011 sec
 * total energy  :   -46.9837489 Eh     change       -0.6359682E-05 Eh
   gradient norm :     0.0009882 Eh/α   predicted    -0.5474976E-05 ( -13.91%)
   displ. norm   :     0.0845450 α      lambda       -0.5161375E-05
   maximum displ.:     0.0666983 α      in ANC's #3, #1, #5, ...

........................................................................
.............................. CYCLE   19 ..............................
........................................................................

 iter      E             dE          RMSdq      gap      omega  full diag
   1    -47.4723915 -0.474724E+02  0.377E-02    2.92       0.0  T
   2    -47.4723920 -0.470188E-06  0.206E-02    2.92       1.0  T
   3    -47.4723918  0.165342E-06  0.512E-03    2.92       3.8  T
   4    -47.4723921 -0.263712E-06  0.243E-03    2.92       8.1  T
   5    -47.4723922 -0.502187E-07  0.771E-04    2.92      25.4  T
   6    -47.4723922 -0.839775E-08  0.213E-04    2.92      92.0  T
     SCC iter.                  ...        0 min,  0.006 sec
     gradient                   ...        0 min,  0.011 sec
 * total energy  :   -46.9837535 Eh     change       -0.4607233E-05 Eh
   gradient norm :     0.0010408 Eh/α   predicted    -0.2602112E-05 ( -43.52%)
   displ. norm   :     0.0271749 α      lambda       -0.2823348E-05
   maximum displ.:     0.0144249 α      in ANC's #2, #3, #7, ...

........................................................................
.............................. CYCLE   20 ..............................
........................................................................

 iter      E             dE          RMSdq      gap      omega  full diag
   1    -47.4725529 -0.474726E+02  0.107E-02    2.92       0.0  T
   2    -47.4725530 -0.376440E-07  0.608E-03    2.92       3.2  T
   3    -47.4725530  0.124934E-07  0.132E-03    2.92      14.9  T
   4    -47.4725530 -0.214434E-07  0.576E-04    2.92      34.0  T
   5    -47.4725530 -0.288829E-08  0.224E-04    2.92      87.4  T
     SCC iter.                  ...        0 min,  0.005 sec
     gradient                   ...        0 min,  0.011 sec
 * total energy  :   -46.9837566 Eh     change       -0.3058355E-05 Eh
   gradient norm :     0.0007485 Eh/α   predicted    -0.1416133E-05 ( -53.70%)
   displ. norm   :     0.0598335 α      lambda       -0.2975315E-05
   maximum displ.:     0.0416616 α      in ANC's #3, #1, #5, ...

   *** GEOMETRY OPTIMIZATION CONVERGED AFTER 20 ITERATIONS ***

------------------------------------------------------------------------
 total energy gain   :        -0.0114868 Eh       -7.2081 kcal/mol
 total RMSD          :         0.2446138 a0        0.1294 Å
 total power (kW/mol):        -1.5079340 (step)  -53.1917 (real)
------------------------------------------------------------------------

 ANCopt (total)                0 d,  0 h,  0 min,  0.567 sec
 optimizer setup                ...        0 min,  0.000 sec (  0.015%)
 model hessian                  ...        0 min,  0.005 sec (  0.947%)
 ANC generation                 ...        0 min,  0.001 sec (  0.113%)
 coordinate transformation      ...        0 min,  0.000 sec (  0.013%)
 single point calculation       ...        0 min,  0.555 sec ( 97.879%)
 optimization log               ...        0 min,  0.003 sec (  0.595%)
 hessian update                 ...        0 min,  0.000 sec (  0.027%)
 rational function              ...        0 min,  0.001 sec (  0.225%)

================
 final structure:
================
26
 xtb: 6.7.1 (edcfbbe)
N            4.82988428002954        0.20900587572640        0.15194347126026
C            3.49459805482445        0.07002530494094        0.20279171038664
N            3.02137290709383       -0.83230490574326        1.03116417595099
C            1.71206067763043       -1.06236781211047        1.16228506326375
N            0.83049337096178       -0.23408313913671        0.37080020811746
C           -0.57776913140862       -0.48198298687181        0.52239919000718
C           -1.03725007915180       -1.67624649422391       -0.33236988196800
S           -2.81382203125657       -1.40932487348797       -0.54210009884586
C           -2.66928925634177        0.32464138843868        0.13315155485675
O           -1.31968381974127        0.63933031826793        0.11633524240411
C           -3.45805748994835        1.31124089544819       -0.72612296994816
O           -4.83338860826874        1.08564665371075       -0.66295682747100
C            1.31200936965037        0.67699486223342       -0.49445925627318
C            2.64741103610682        0.87178893424675       -0.62004816759127
O            1.20927665672870       -1.89902441088518        1.87428528999532
H            5.26521777394387        0.88207045439079       -0.45093743989106
H            5.38736776750714       -0.37321450621395        0.75148159376434
H           -0.75851213511650       -0.71321197817203        1.58602087387425
H           -0.85070425276901       -2.62169253714292        0.16941136043357
H           -0.55494338153145       -1.66172293785743       -1.31120138673278
H           -3.07196940986887        0.28808175494199        1.15559830036791
H           -3.08322896325919        1.25462600036408       -1.75780460100562
H           -3.28932083972053        2.32203620234048       -0.34558179601773
H           -5.02046633354739        0.19080471484489       -0.97481154668887
H            0.57839075699373        1.23862275480565       -1.05463673169725
H            3.05012308045929        1.60026046714458       -1.30153733055190

 Bond Distances (Angstroems)
 ---------------------------
N1-C2=1.3435         N1-H16=1.0030        N1-H17=1.0046        C2-N1=1.3435         C2-N3=1.3131         C2-C14=1.4275        
N3-C2=1.3131         N3-C4=1.3358         C4-N3=1.3358         C4-N5=1.4456         C4-O15=1.2082        N5-C4=1.4456         
N5-C6=1.4379         N5-C13=1.3456        C6-N5=1.4379         C6-C7=1.5388         C6-O10=1.4045        C6-H18=1.1034        
C7-C6=1.5388         C7-S8=1.8087         C7-H19=1.0865        C7-H20=1.0913        S8-C7=1.8087         S8-C9=1.8664         
C9-S8=1.8664         C9-O10=1.3859        C9-C11=1.5277        C9-H21=1.0995        O10-C6=1.4045        O10-C9=1.3859        
C11-C9=1.5277        C11-O12=1.3951       C11-H22=1.0991       C11-H23=1.0932       O12-C11=1.3951       O12-H24=0.9659       
C13-N5=1.3456        C13-C14=1.3554       C13-H25=1.0805       C14-C2=1.4275        C14-C13=1.3554       C14-H26=1.0758       
O15-C4=1.2082        H16-N1=1.0030        H17-N1=1.0046        H18-C6=1.1034        H19-C7=1.0865        H20-C7=1.0913        
H21-C9=1.0995        H22-C11=1.0991       H23-C11=1.0932       H24-O12=0.9659       H25-C13=1.0805       H26-C14=1.0758       
 C  H  Rav=1.0911 sigma=0.0091  Rmin=1.0758  Rmax=1.1034     8
 C  C  Rav=1.4623 sigma=0.0755  Rmin=1.3554  Rmax=1.5388     4
 N  H  Rav=1.0038 sigma=0.0008  Rmin=1.0030  Rmax=1.0046     2
 N  C  Rav=1.3703 sigma=0.0517  Rmin=1.3131  Rmax=1.4456     6
 O  H  Rav=0.9659 sigma=0.0000  Rmin=0.9659  Rmax=0.9659     1
 O  C  Rav=1.3484 sigma=0.0812  Rmin=1.2082  Rmax=1.4045     4
 S  C  Rav=1.8376 sigma=0.0288  Rmin=1.8087  Rmax=1.8664     2

 selected bond angles (degree)
 --------------------
H16-N1-C2=121.57               H17-N1-C2=117.97               H17-N1-H16=120.45              N3-C2-N1=116.95                
C14-C2-N1=120.66               C14-C2-N3=122.39               C4-N3-C2=122.24                N5-C4-N3=116.44                
O15-C4-N3=125.80               O15-C4-N5=117.75               C6-N5-C4=116.15                C13-N5-C4=121.45               
C13-N5-C6=122.34               C7-C6-N5=111.57                O10-C6-N5=110.44               O10-C6-C7=107.53               
H18-C6-N5=107.35               H18-C6-C7=108.90               H18-C6-O10=111.07              S8-C7-C6=104.07                
H19-C7-C6=111.56               H19-C7-S8=110.53               H20-C7-C6=110.85               H20-C7-S8=109.16               
H20-C7-H19=110.48              C9-S8-C7= 91.09                O10-C9-S8=106.38               C11-C9-S8=110.89               
C11-C9-O10=110.45              H21-C9-S8=106.09               H21-C9-O10=112.05              H21-C9-C11=110.82              
C9-O10-C6=109.25               

 selected dihedral angles (degree)
 ---------------------------------
N3-C2-N1-H16=180.49           N3-C2-N1-H17=359.41           C14-C2-N1-H16=  0.82          C14-C2-N1-H17=179.74          
C4-N3-C2-N1=180.29            C4-N3-C2-C14=359.95           N5-C4-N3-C2=358.16            O15-C4-N3-C2=177.81           
C6-N5-C4-N3=180.34            C6-N5-C4-O15=  0.65           C13-N5-C4-N3=  2.88           C13-N5-C4-O15=183.20          
C7-C6-N5-C4=278.30            C7-C6-N5-C13= 95.73           O10-C6-N5-C4=158.76           O10-C6-N5-C13=336.19          
H18-C6-N5-C4= 37.54           H18-C6-N5-C13=214.97          S8-C7-C6-N5=202.25            S8-C7-C6-O10=323.49           
S8-C7-C6-H18= 83.94           H19-C7-C6-N5= 83.06           H19-C7-C6-O10=204.30          H19-C7-C6-H18=324.74          
H20-C7-C6-N5=319.47           H20-C7-C6-O10= 80.72          H20-C7-C6-H18=201.16          C9-S8-C7-C6= 11.68            
C9-S8-C7-H19=131.57           C9-S8-C7-H20=253.28           O10-C9-S8-C7= 14.91           C11-C9-S8-C7=135.03           
H21-C9-S8-C7=255.43           C9-O10-C6-N5=173.52           C9-O10-C6-C7= 51.57           C9-O10-C6-H18=292.51          
C6-O10-C9-S8=319.54           C6-O10-C9-C11=199.13          C6-O10-C9-H21= 75.05          
           -------------------------------------------------
          |                Final Singlepoint                |
           -------------------------------------------------

          ...................................................
          :                      SETUP                      :
          :.................................................:
          :  # basis functions                  77          :
          :  # atomic orbitals                  76          :
          :  # shells                           42          :
          :  # electrons                        82          :
          :  max. iterations                   250          :
          :  Hamiltonian                  GFN2-xTB          :
          :  restarted?                      false          :
          :  GBSA solvation                  false          :
          :  PC potential                    false          :
          :  electronic temp.          300.0000000     K    :
          :  accuracy                    1.0000000          :
          :  -> integral cutoff          0.2500000E+02      :
          :  -> integral neglect         0.1000000E-07      :
          :  -> SCF convergence          0.1000000E-05 Eh   :
          :  -> wf. convergence          0.1000000E-03 e    :
          :  Broyden damping             0.4000000          :
          :  net charge                          0          :
          :  unpaired electrons                  0          :
          ...................................................

 iter      E             dE          RMSdq      gap      omega  full diag
   1    -47.4725530 -0.474726E+02  0.814E-05    2.92       0.0  T
   2    -47.4725530 -0.673595E-11  0.524E-05    2.92     373.9  T
   3    -47.4725530  0.369482E-11  0.251E-05    2.92     781.1  T

   *** convergence criteria satisfied after 3 iterations ***

         #    Occupation            Energy/Eh            Energy/eV
      -------------------------------------------------------------
         1        2.0000           -0.7538195             -20.5125
       ...           ...                  ...                  ...
        35        2.0000           -0.4470100             -12.1638
        36        2.0000           -0.4319466             -11.7539
        37        2.0000           -0.4156545             -11.3105
        38        2.0000           -0.4115623             -11.1992
        39        2.0000           -0.4009289             -10.9098
        40        2.0000           -0.3862623             -10.5107
        41        2.0000           -0.3777107             -10.2780 (HOMO)
        42                         -0.2703097              -7.3555 (LUMO)
        43                         -0.2358162              -6.4169
        44                         -0.2218743              -6.0375
        45                         -0.1604650              -4.3665
        46                         -0.1242305              -3.3805
       ...                                ...                  ...
        76                          0.6748194              18.3628
      -------------------------------------------------------------
                  HL-Gap            0.1074010 Eh            2.9225 eV
             Fermi-level           -0.3240102 Eh           -8.8168 eV

 SCC (total)                   0 d,  0 h,  0 min,  0.019 sec
 SCC setup                      ...        0 min,  0.000 sec (  0.815%)
 Dispersion                     ...        0 min,  0.000 sec (  0.615%)
 classical contributions        ...        0 min,  0.000 sec (  0.293%)
 integral evaluation            ...        0 min,  0.004 sec ( 21.103%)
 iterations                     ...        0 min,  0.003 sec ( 18.044%)
 molecular gradient             ...        0 min,  0.011 sec ( 58.664%)
 printout                       ...        0 min,  0.000 sec (  0.433%)

         :::::::::::::::::::::::::::::::::::::::::::::::::::::
         ::                     SUMMARY                     ::
         :::::::::::::::::::::::::::::::::::::::::::::::::::::
         :: total energy             -46.983756586084 Eh    ::
         :: gradient norm              0.000749068648 Eh/a0 ::
         :: HOMO-LUMO gap              2.922531069218 eV    ::
         ::.................................................::
         :: SCC energy               -47.472569370981 Eh    ::
         :: -> isotropic ES            0.103062224120 Eh    ::
         :: -> anisotropic ES          0.000093560983 Eh    ::
         :: -> anisotropic XC          0.013506043499 Eh    ::
         :: -> dispersion             -0.025607464977 Eh    ::
         :: repulsion energy           0.488812784897 Eh    ::
         :: add. restraining           0.000000000000 Eh    ::
         :: total charge              -0.000000000000 e     ::
         :::::::::::::::::::::::::::::::::::::::::::::::::::::

           -------------------------------------------------
          |                Property Printout                |
           -------------------------------------------------

    * Orbital Energies and Occupations

         #    Occupation            Energy/Eh            Energy/eV
      -------------------------------------------------------------
         1        2.0000           -0.7538195             -20.5125
       ...           ...                  ...                  ...
        29        2.0000           -0.5050831             -13.7440
        30        2.0000           -0.4985460             -13.5661
        31        2.0000           -0.4924923             -13.4014
        32        2.0000           -0.4882453             -13.2858
        33        2.0000           -0.4809166             -13.0864
        34        2.0000           -0.4601669             -12.5218
        35        2.0000           -0.4470100             -12.1638
        36        2.0000           -0.4319466             -11.7539
        37        2.0000           -0.4156545             -11.3105
        38        2.0000           -0.4115623             -11.1992
        39        2.0000           -0.4009289             -10.9098
        40        2.0000           -0.3862623             -10.5107
        41        2.0000           -0.3777107             -10.2780 (HOMO)
        42                         -0.2703097              -7.3555 (LUMO)
        43                         -0.2358162              -6.4169
        44                         -0.2218743              -6.0375
        45                         -0.1604650              -4.3665
        46                         -0.1242305              -3.3805
        47                         -0.0478466              -1.3020
        48                         -0.0377467              -1.0271
        49                         -0.0125970              -0.3428
        50                         -0.0097722              -0.2659
        51                         -0.0047315              -0.1288
        52                          0.0257483               0.7006
       ...                                ...                  ...
        76                          0.6748194              18.3628
      -------------------------------------------------------------
                  HL-Gap            0.1074010 Eh            2.9225 eV
             Fermi-level           -0.3240102 Eh           -8.8168 eV

     #   Z          covCN         q      C6AA      α(0)
     1   7 N        2.655    -0.235    26.153     7.595
     2   6 C        2.869     0.186    24.020     8.034
     3   7 N        1.851    -0.310    28.877     7.964
     4   6 C        2.736     0.336    21.293     7.555
     5   7 N        2.748    -0.102    23.233     7.159
     6   6 C        3.842     0.199    17.432     5.939
     7   6 C        3.797    -0.016    20.859     6.503
     8  16 S        2.073    -0.213   150.154    20.624
     9   6 C        3.785     0.149    18.205     6.077
    10   8 O        1.723    -0.311    19.181     5.913
    11   6 C        3.697     0.076    19.468     6.311
    12   8 O        1.656    -0.421    21.268     6.226
    13   6 C        2.861     0.052    26.837     8.491
    14   6 C        2.911    -0.098    30.471     9.052
    15   8 O        0.859    -0.445    22.593     6.373
    16   1 H        0.861     0.187     1.177     1.700
    17   1 H        0.860     0.205     1.082     1.629
    18   1 H        0.923     0.058     2.219     2.330
    19   1 H        0.925     0.075     2.028     2.227
    20   1 H        0.924     0.052     2.296     2.369
    21   1 H        0.923     0.040     2.447     2.446
    22   1 H        0.923     0.043     2.413     2.429
    23   1 H        0.924     0.070     2.086     2.258
    24   1 H        0.805     0.304     0.708     1.322
    25   1 H        0.926     0.069     2.095     2.264
    26   1 H        0.926     0.049     2.330     2.387

 Mol. C6AA /au·bohr⁶  :       8759.243347
 Mol. C8AA /au·bohr⁸  :     223036.836613
 Mol. α(0) /au        :        143.178258


Wiberg/Mayer (AO) data.
largest (>0.10) Wiberg bond orders for each atom

 ---------------------------------------------------------------------------
     #   Z sym  total        # sym  WBO       # sym  WBO       # sym  WBO
 ---------------------------------------------------------------------------
     1   7 N    3.390 --     2 C    1.273    16 H    0.947    17 H    0.939
                             3 N    0.105
     2   6 C    3.966 --     3 N    1.415     1 N    1.273    14 C    1.174
     3   7 N    3.052 --     2 C    1.415     4 C    1.246    15 O    0.121
                             1 N    0.105
     4   6 C    3.949 --    15 O    1.654     3 N    1.246     5 N    0.960
     5   7 N    3.571 --    13 C    1.264     6 C    0.984     4 C    0.960
                            15 O    0.123
     6   6 C    3.934 --     5 N    0.984    10 O    0.969     7 C    0.963
                            18 H    0.945
     7   6 C    3.977 --     8 S    1.003    20 H    0.977    19 H    0.973
                             6 C    0.963
     8  16 S    2.056 --     7 C    1.003     9 C    0.917
     9   6 C    3.929 --    10 O    1.008    11 C    0.982    21 H    0.958
                             8 S    0.917
    10   8 O    2.129 --     9 C    1.008     6 C    0.969
    11   6 C    3.960 --    12 O    1.020     9 C    0.982    22 H    0.966
                            23 H    0.961
    12   8 O    1.975 --    11 C    1.020    24 H    0.890
    13   6 C    3.965 --    14 C    1.598     5 N    1.264    25 H    0.956
    14   6 C    3.972 --    13 C    1.598     2 C    1.174    26 H    0.967
    15   8 O    2.007 --     4 C    1.654     5 N    0.123     3 N    0.121
    16   1 H    0.964 --     1 N    0.947
    17   1 H    0.957 --     1 N    0.939
    18   1 H    0.996 --     6 C    0.945
    19   1 H    0.994 --     7 C    0.973
    20   1 H    0.997 --     7 C    0.977
    21   1 H    0.998 --     9 C    0.958
    22   1 H    0.998 --    11 C    0.966
    23   1 H    0.995 --    11 C    0.961
    24   1 H    0.907 --    12 O    0.890
    25   1 H    0.995 --    13 C    0.956
    26   1 H    0.997 --    14 C    0.967
 ---------------------------------------------------------------------------

Topologies differ in total number of bonds
Writing topology from bond orders to xtbtopo.mol

molecular dipole:
                 x           y           z       tot (Debye)
 q only:        1.425       1.168      -1.341
   full:        1.804       1.462      -1.507       7.036
molecular quadrupole (traceless):
                xx          xy          yy          xz          yz          zz
 q only:       18.620      10.618      -9.986      -5.570       5.150      -8.634
  q+dip:       11.470      13.510      -8.842     -10.393       5.507      -2.628
   full:       12.253      13.416      -8.104     -10.038       7.421      -4.149

           -------------------------------------------------
          |                Geometry Summary                 |
           -------------------------------------------------

      molecular mass/u    :      229.2563472
   center of mass at/Å    :       -0.1438850      -0.2492764       0.0882526
  moments of inertia/u·Å² :        0.3548925E+03   0.1900022E+04   0.2115239E+04
rotational constants/cm⁻¹ :        0.4750068E-01   0.8872338E-02   0.7969612E-02

 * 24 selected distances

     #   Z          #   Z                                           value/Å
     1   7 N        2   6 C                                       1.3434622
     2   6 C        3   7 N                                       1.3131425
     3   7 N        4   6 C                                       1.3358220
     5   7 N        6   6 C                                       1.4379292
     6   6 C        7   6 C                                       1.5388368 (max)
     6   6 C       10   8 O                                       1.4045174
     9   6 C       10   8 O                                       1.3859102
     9   6 C       11   6 C                                       1.5277065
    11   6 C       12   8 O                                       1.3951411
     5   7 N       13   6 C                                       1.3455835
     2   6 C       14   6 C                                       1.4274511
    13   6 C       14   6 C                                       1.3553654
     4   6 C       15   8 O                                       1.2081931
     1   7 N       16   1 H                                       1.0029939
     1   7 N       17   1 H                                       1.0045967
     6   6 C       18   1 H                                       1.1033704
     7   6 C       19   1 H                                       1.0864862
     7   6 C       20   1 H                                       1.0913029
     9   6 C       21   1 H                                       1.0994933
    11   6 C       22   1 H                                       1.0991219
    11   6 C       23   1 H                                       1.0931564
    12   8 O       24   1 H                                       0.9659160 (min)
    13   6 C       25   1 H                                       1.0804727
    14   6 C       26   1 H                                       1.0757674

 * 6 distinct bonds (by element types)

   Z      Z             #   av. dist./Å        max./Å        min./Å
   1 H    6 C           8     1.0911464     1.1033704     1.0757674
   6 C    6 C           4     1.4623399     1.5388368     1.3553654
   1 H    7 N           2     1.0037953     1.0045967     1.0029939
   6 C    7 N           5     1.3551879     1.4379292     1.3131425
   1 H    8 O           1     0.9659160     0.9659160     0.9659160
   6 C    8 O           4     1.3484405     1.4045174     1.2081931


optimized geometry written to: xtbopt.xyz


           -------------------------------------------------
          | TOTAL ENERGY              -46.983756586084 Eh   |
          | GRADIENT NORM               0.000749068648 Eh/α |
          | HOMO-LUMO GAP               2.922531069218 eV   |
           -------------------------------------------------

------------------------------------------------------------------------
 * finished run on 2025/05/15 at 16:11:01.086     
------------------------------------------------------------------------
 total:
 * wall-time:     0 d,  0 h,  0 min,  0.644 sec
 *  cpu-time:     0 d,  0 h,  0 min,  0.506 sec
 * ratio c/w:     0.786 speedup
 SCF:
 * wall-time:     0 d,  0 h,  0 min,  0.029 sec
 *  cpu-time:     0 d,  0 h,  0 min,  0.029 sec
 * ratio c/w:     0.994 speedup
 ANC optimizer:
 * wall-time:     0 d,  0 h,  0 min,  0.606 sec
 *  cpu-time:     0 d,  0 h,  0 min,  0.469 sec
 * ratio c/w:     0.775 speedup



----- Single-point -----
      -----------------------------------------------------------      
     |                   =====================                   |     
     |                           x T B                           |     
     |                   =====================                   |     
     |                         S. Grimme                         |     
     |          Mulliken Center for Theoretical Chemistry        |     
     |                    University of Bonn                     |     
      -----------------------------------------------------------      

   * xtb version 6.7.1 (edcfbbe) compiled by 'conda@3ef47c1a292c' on 2024-11-25

   xtb is free software: you can redistribute it and/or modify it under
   the terms of the GNU Lesser General Public License as published by
   the Free Software Foundation, either version 3 of the License, or
   (at your option) any later version.
   
   xtb is distributed in the hope that it will be useful,
   but WITHOUT ANY WARRANTY; without even the implied warranty of
   MERCHANTABILITY or FITNESS FOR A PARTICULAR PURPOSE.  See the
   GNU Lesser General Public License for more details.
   
   Cite this work as:
   * C. Bannwarth, E. Caldeweyher, S. Ehlert, A. Hansen, P. Pracht,
     J. Seibert, S. Spicher, S. Grimme, WIREs Comput. Mol. Sci., 2020, 11,
     e01493. DOI: 10.1002/wcms.1493
   
   for GFN2-xTB:
   * C. Bannwarth, S. Ehlert and S. Grimme., J. Chem. Theory Comput., 2019,
     15, 1652-1671. DOI: 10.1021/acs.jctc.8b01176
   for GFN1-xTB:
   * S. Grimme, C. Bannwarth, P. Shushkov, J. Chem. Theory Comput., 2017,
     13, 1989-2009. DOI: 10.1021/acs.jctc.7b00118
   for GFN0-xTB:
   * P. Pracht, E. Caldeweyher, S. Ehlert, S. Grimme, ChemRxiv, 2019, preprint.
     DOI: 10.26434/chemrxiv.8326202.v1
   for GFN-FF:
   * S. Spicher and S. Grimme, Angew. Chem. Int. Ed., 2020, 59, 15665-15673.
     DOI: 10.1002/anie.202004239
   
   for ALPB and GBSA implicit solvation:
   * S. Ehlert, M. Stahn, S. Spicher, S. Grimme, J. Chem. Theory Comput.,
     2021, 17, 4250-4261. DOI: 10.1021/acs.jctc.1c00471
   
   for ddCOSMO and CPCM-X implicit solvation:
   * M. Stahn, S. Ehlert, S. Grimme, J. Phys. Chem. A,
     2023, XX, XXXX-XXXX. DOI: 10.1021/acs.jpca.3c04382
   
   for DFT-D4:
   * E. Caldeweyher, C. Bannwarth and S. Grimme, J. Chem. Phys., 2017,
     147, 034112. DOI: 10.1063/1.4993215
   * E. Caldeweyher, S. Ehlert, A. Hansen, H. Neugebauer, S. Spicher,
     C. Bannwarth and S. Grimme, J. Chem. Phys., 2019, 150, 154122.
     DOI: 10.1063/1.5090222
   * E. Caldeweyher, J.-M. Mewes, S. Ehlert and S. Grimme, Phys. Chem. Chem. Phys.
     2020, 22, 8499-8512. DOI: 10.1039/D0CP00502A
   
   for sTDA-xTB:
   * S. Grimme and C. Bannwarth, J. Chem. Phys., 2016, 145, 054103.
     DOI: 10.1063/1.4959605
   
   in the mass-spec context:
   * V. Asgeirsson, C. Bauer and S. Grimme, Chem. Sci., 2017, 8, 4879.
     DOI: 10.1039/c7sc00601b
   * J. Koopman and S. Grimme, ACS Omega 2019, 4, 12, 15120-15133.
     DOI: 10.1021/acsomega.9b02011
   
   for metadynamics refer to:
   * S. Grimme, J. Chem. Theory Comput., 2019, 155, 2847-2862
     DOI: 10.1021/acs.jctc.9b00143
   
   for SPH calculations refer to:
   * S. Spicher and S. Grimme, J. Chem. Theory Comput., 2021, 17, 1701-1714
     DOI: 10.1021/acs.jctc.0c01306
   
   for ONIOM refer to:
   * C. Plett, A. Katbashev, S. Ehlert, S. Grimme, M. Bursch,
     Phys. Chem. Chem. Phys., 2023, 25, 17860-17868. DOI: 10.1039/D3CP02178E
   
   for DIPRO refer to:
   * J. Kohn, N. Gildemeister, S. Grimme, D. Fazzi, A. Hansen,
     J. Chem. Phys., 2023, just accepted.
   
   for PTB refer to:
   * S. Grimme, M. Mueller, A. Hansen, J. Chem. Phys., 2023, 158, 124111.
     DOI: 10.1063/5.0137838
   
   with help from (in alphabetical order)
   P. Atkinson, C. Bannwarth, F. Bohle, G. Brandenburg, E. Caldeweyher
   M. Checinski, S. Dohm, S. Ehlert, S. Ehrlich, I. Gerasimov, C. Hölzer
   A. Katbashev, J. Kohn, J. Koopman, C. Lavigne, S. Lehtola, F. März, M. Müller,
   F. Musil, H. Neugebauer, J. Pisarek, C. Plett, P. Pracht, F. Pultar,
   J. Seibert, P. Shushkov, S. Spicher, M. Stahn, M. Steiner, T. Strunk,
   J. Stückrath, T. Rose, and J. Unsleber
   
 * started run on 2025/05/15 at 16:11:01.116     
   ID    Z sym.   atoms
    1    7 N      1, 3, 5
    2    6 C      2, 4, 6, 7, 9, 11, 13, 14
    3   16 S      8
    4    8 O      10, 12, 15
    5    1 H      16-26

           -------------------------------------------------
          |                Calculation Setup                |
           -------------------------------------------------

          program call               : xtb /rds/general/user/hgt20/home/callum/QDESCP/Lamivudine_rdkit_conf_2/Lamivudine_rdkit_conf_2.xyz --acc 1 --gfn 2 --chrg 0 --uhf 0 --etemp 300 --input /rds/general/user/hgt20/home/callum/QDESCP/Lamivudine_rdkit_conf_2/Lamivudine_rdkit_conf_2_xtb.inp -P 1
          hostname                   : login-c
          coordinate file            : /rds/general/user/hgt20/home/callum/QDESCP/Lamivudine_rdkit_conf_2/Lamivudine_rdkit_conf_2.xyz
          omp threads                :                     1


           -------------------------------------------------
          |                 G F N 2 - x T B                 |
           -------------------------------------------------

        Reference                      10.1021/acs.jctc.8b01176
      * Hamiltonian:
        H0-scaling (s, p, d)           1.850000    2.230000    2.230000
        zeta-weighting                 0.500000
      * Dispersion:
        s8                             2.700000
        a1                             0.520000
        a2                             5.000000
        s9                             5.000000
      * Repulsion:
        kExp                           1.500000    1.000000
        rExp                           1.000000
      * Coulomb:
        alpha                          2.000000
        third order                    shell-resolved
        anisotropic                    true
        a3                             3.000000
        a5                             4.000000
        cn-shift                       1.200000
        cn-exp                         4.000000
        max-rad                        5.000000

q/qsh data taken from xtbrestart
CAMM data taken from xtbrestart

          ...................................................
          :                      SETUP                      :
          :.................................................:
          :  # basis functions                  77          :
          :  # atomic orbitals                  76          :
          :  # shells                           42          :
          :  # electrons                        82          :
          :  max. iterations                   250          :
          :  Hamiltonian                  GFN2-xTB          :
          :  restarted?                       true          :
          :  GBSA solvation                  false          :
          :  PC potential                    false          :
          :  electronic temp.          300.0000000     K    :
          :  accuracy                    1.0000000          :
          :  -> integral cutoff          0.2500000E+02      :
          :  -> integral neglect         0.1000000E-07      :
          :  -> SCF convergence          0.1000000E-05 Eh   :
          :  -> wf. convergence          0.1000000E-03 e    :
          :  Broyden damping             0.4000000          :
          :  net charge                          0          :
          :  unpaired electrons                  0          :
          ...................................................

 iter      E             dE          RMSdq      gap      omega  full diag
   1    -47.4725530 -0.474726E+02  0.804E-06    2.92       0.0  T
   2    -47.4725530 -0.781597E-13  0.522E-06    2.92    3755.7  T
   3    -47.4725530 -0.341061E-12  0.346E-06    2.92    5673.3  T

   *** convergence criteria satisfied after 3 iterations ***

         #    Occupation            Energy/Eh            Energy/eV
      -------------------------------------------------------------
         1        2.0000           -0.7538195             -20.5125
       ...           ...                  ...                  ...
        35        2.0000           -0.4470100             -12.1638
        36        2.0000           -0.4319465             -11.7539
        37        2.0000           -0.4156545             -11.3105
        38        2.0000           -0.4115622             -11.1992
        39        2.0000           -0.4009289             -10.9098
        40        2.0000           -0.3862623             -10.5107
        41        2.0000           -0.3777107             -10.2780 (HOMO)
        42                         -0.2703098              -7.3555 (LUMO)
        43                         -0.2358162              -6.4169
        44                         -0.2218744              -6.0375
        45                         -0.1604649              -4.3665
        46                         -0.1242306              -3.3805
       ...                                ...                  ...
        76                          0.6748193              18.3628
      -------------------------------------------------------------
                  HL-Gap            0.1074009 Eh            2.9225 eV
             Fermi-level           -0.3240103 Eh           -8.8168 eV

 SCC (total)                   0 d,  0 h,  0 min,  0.019 sec
 SCC setup                      ...        0 min,  0.000 sec (  0.977%)
 Dispersion                     ...        0 min,  0.000 sec (  0.961%)
 classical contributions        ...        0 min,  0.000 sec (  0.387%)
 integral evaluation            ...        0 min,  0.004 sec ( 21.617%)
 iterations                     ...        0 min,  0.004 sec ( 21.293%)
 molecular gradient             ...        0 min,  0.010 sec ( 53.983%)
 printout                       ...        0 min,  0.000 sec (  0.750%)

         :::::::::::::::::::::::::::::::::::::::::::::::::::::
         ::                     SUMMARY                     ::
         :::::::::::::::::::::::::::::::::::::::::::::::::::::
         :: total energy             -46.983756586091 Eh    ::
         :: gradient norm              0.000749112057 Eh/a0 ::
         :: HOMO-LUMO gap              2.922527555616 eV    ::
         ::.................................................::
         :: SCC energy               -47.472569370988 Eh    ::
         :: -> isotropic ES            0.103061954167 Eh    ::
         :: -> anisotropic ES          0.000093504268 Eh    ::
         :: -> anisotropic XC          0.013506029478 Eh    ::
         :: -> dispersion             -0.025607465758 Eh    ::
         :: repulsion energy           0.488812784897 Eh    ::
         :: add. restraining           0.000000000000 Eh    ::
         :: total charge              -0.000000000000 e     ::
         :::::::::::::::::::::::::::::::::::::::::::::::::::::

           -------------------------------------------------
          |                Property Printout                |
           -------------------------------------------------

    * Orbital Energies and Occupations

         #    Occupation            Energy/Eh            Energy/eV
      -------------------------------------------------------------
         1        2.0000           -0.7538195             -20.5125
       ...           ...                  ...                  ...
        29        2.0000           -0.5050831             -13.7440
        30        2.0000           -0.4985460             -13.5661
        31        2.0000           -0.4924923             -13.4014
        32        2.0000           -0.4882454             -13.2858
        33        2.0000           -0.4809166             -13.0864
        34        2.0000           -0.4601669             -12.5218
        35        2.0000           -0.4470100             -12.1638
        36        2.0000           -0.4319465             -11.7539
        37        2.0000           -0.4156545             -11.3105
        38        2.0000           -0.4115622             -11.1992
        39        2.0000           -0.4009289             -10.9098
        40        2.0000           -0.3862623             -10.5107
        41        2.0000           -0.3777107             -10.2780 (HOMO)
        42                         -0.2703098              -7.3555 (LUMO)
        43                         -0.2358162              -6.4169
        44                         -0.2218744              -6.0375
        45                         -0.1604649              -4.3665
        46                         -0.1242306              -3.3805
        47                         -0.0478466              -1.3020
        48                         -0.0377468              -1.0271
        49                         -0.0125970              -0.3428
        50                         -0.0097722              -0.2659
        51                         -0.0047315              -0.1287
        52                          0.0257483               0.7006
       ...                                ...                  ...
        76                          0.6748193              18.3628
      -------------------------------------------------------------
                  HL-Gap            0.1074009 Eh            2.9225 eV
             Fermi-level           -0.3240103 Eh           -8.8168 eV

     #   Z          covCN         q      C6AA      α(0)
     1   7 N        2.655    -0.235    26.153     7.595
     2   6 C        2.869     0.186    24.020     8.034
     3   7 N        1.851    -0.310    28.877     7.964
     4   6 C        2.736     0.336    21.293     7.555
     5   7 N        2.748    -0.102    23.233     7.159
     6   6 C        3.842     0.199    17.432     5.939
     7   6 C        3.797    -0.016    20.859     6.503
     8  16 S        2.073    -0.213   150.154    20.624
     9   6 C        3.785     0.149    18.205     6.077
    10   8 O        1.723    -0.311    19.181     5.913
    11   6 C        3.697     0.076    19.468     6.311
    12   8 O        1.656    -0.421    21.268     6.226
    13   6 C        2.861     0.052    26.837     8.491
    14   6 C        2.911    -0.098    30.471     9.052
    15   8 O        0.859    -0.445    22.593     6.373
    16   1 H        0.861     0.187     1.177     1.700
    17   1 H        0.860     0.205     1.082     1.629
    18   1 H        0.923     0.058     2.219     2.330
    19   1 H        0.925     0.075     2.028     2.227
    20   1 H        0.924     0.052     2.296     2.369
    21   1 H        0.923     0.040     2.447     2.446
    22   1 H        0.923     0.043     2.413     2.429
    23   1 H        0.924     0.070     2.086     2.258
    24   1 H        0.805     0.304     0.708     1.322
    25   1 H        0.926     0.069     2.095     2.264
    26   1 H        0.926     0.049     2.330     2.387

 Mol. C6AA /au·bohr⁶  :       8759.243390
 Mol. C8AA /au·bohr⁸  :     223036.836497
 Mol. α(0) /au        :        143.178258


Wiberg/Mayer (AO) data.
largest (>0.10) Wiberg bond orders for each atom

 ---------------------------------------------------------------------------
     #   Z sym  total        # sym  WBO       # sym  WBO       # sym  WBO
 ---------------------------------------------------------------------------
     1   7 N    3.390 --     2 C    1.273    16 H    0.947    17 H    0.939
                             3 N    0.105
     2   6 C    3.966 --     3 N    1.415     1 N    1.273    14 C    1.174
     3   7 N    3.052 --     2 C    1.415     4 C    1.246    15 O    0.121
                             1 N    0.105
     4   6 C    3.949 --    15 O    1.654     3 N    1.246     5 N    0.960
     5   7 N    3.571 --    13 C    1.264     6 C    0.984     4 C    0.960
                            15 O    0.123
     6   6 C    3.934 --     5 N    0.984    10 O    0.969     7 C    0.963
                            18 H    0.945
     7   6 C    3.977 --     8 S    1.003    20 H    0.977    19 H    0.973
                             6 C    0.963
     8  16 S    2.056 --     7 C    1.003     9 C    0.917
     9   6 C    3.929 --    10 O    1.008    11 C    0.982    21 H    0.958
                             8 S    0.917
    10   8 O    2.129 --     9 C    1.008     6 C    0.969
    11   6 C    3.960 --    12 O    1.020     9 C    0.982    22 H    0.966
                            23 H    0.961
    12   8 O    1.975 --    11 C    1.020    24 H    0.890
    13   6 C    3.965 --    14 C    1.598     5 N    1.264    25 H    0.956
    14   6 C    3.972 --    13 C    1.598     2 C    1.174    26 H    0.967
    15   8 O    2.007 --     4 C    1.654     5 N    0.123     3 N    0.121
    16   1 H    0.964 --     1 N    0.947
    17   1 H    0.957 --     1 N    0.939
    18   1 H    0.996 --     6 C    0.945
    19   1 H    0.994 --     7 C    0.973
    20   1 H    0.997 --     7 C    0.977
    21   1 H    0.998 --     9 C    0.958
    22   1 H    0.998 --    11 C    0.966
    23   1 H    0.995 --    11 C    0.961
    24   1 H    0.907 --    12 O    0.890
    25   1 H    0.995 --    13 C    0.956
    26   1 H    0.997 --    14 C    0.967
 ---------------------------------------------------------------------------

Topologies differ in total number of bonds
Writing topology from bond orders to xtbtopo.mol

molecular dipole:
                 x           y           z       tot (Debye)
 q only:        1.425       1.168      -1.341
   full:        1.804       1.462      -1.507       7.036
molecular quadrupole (traceless):
                xx          xy          yy          xz          yz          zz
 q only:       18.620      10.618      -9.986      -5.570       5.150      -8.634
  q+dip:       11.470      13.510      -8.842     -10.393       5.507      -2.628
   full:       12.253      13.416      -8.104     -10.038       7.421      -4.149


           -------------------------------------------------
          | TOTAL ENERGY              -46.983756586091 Eh   |
          | GRADIENT NORM               0.000749112057 Eh/α |
          | HOMO-LUMO GAP               2.922527555616 eV   |
           -------------------------------------------------

------------------------------------------------------------------------
 * finished run on 2025/05/15 at 16:11:01.145     
------------------------------------------------------------------------
 total:
 * wall-time:     0 d,  0 h,  0 min,  0.029 sec
 *  cpu-time:     0 d,  0 h,  0 min,  0.028 sec
 * ratio c/w:     0.964 speedup
 SCF:
 * wall-time:     0 d,  0 h,  0 min,  0.020 sec
 *  cpu-time:     0 d,  0 h,  0 min,  0.019 sec
 * ratio c/w:     0.995 speedup



----- FOD -----
      -----------------------------------------------------------      
     |                   =====================                   |     
     |                           x T B                           |     
     |                   =====================                   |     
     |                         S. Grimme                         |     
     |          Mulliken Center for Theoretical Chemistry        |     
     |                    University of Bonn                     |     
      -----------------------------------------------------------      

   * xtb version 6.7.1 (edcfbbe) compiled by 'conda@3ef47c1a292c' on 2024-11-25

   xtb is free software: you can redistribute it and/or modify it under
   the terms of the GNU Lesser General Public License as published by
   the Free Software Foundation, either version 3 of the License, or
   (at your option) any later version.
   
   xtb is distributed in the hope that it will be useful,
   but WITHOUT ANY WARRANTY; without even the implied warranty of
   MERCHANTABILITY or FITNESS FOR A PARTICULAR PURPOSE.  See the
   GNU Lesser General Public License for more details.
   
   Cite this work as:
   * C. Bannwarth, E. Caldeweyher, S. Ehlert, A. Hansen, P. Pracht,
     J. Seibert, S. Spicher, S. Grimme, WIREs Comput. Mol. Sci., 2020, 11,
     e01493. DOI: 10.1002/wcms.1493
   
   for GFN2-xTB:
   * C. Bannwarth, S. Ehlert and S. Grimme., J. Chem. Theory Comput., 2019,
     15, 1652-1671. DOI: 10.1021/acs.jctc.8b01176
   for GFN1-xTB:
   * S. Grimme, C. Bannwarth, P. Shushkov, J. Chem. Theory Comput., 2017,
[...]
     |                   =====================                   |     
     |                           x T B                           |     
     |                   =====================                   |     
     |                         S. Grimme                         |     
     |          Mulliken Center for Theoretical Chemistry        |     
     |                    University of Bonn                     |     
      -----------------------------------------------------------      

   * xtb version 6.7.1 (edcfbbe) compiled by 'conda@3ef47c1a292c' on 2024-11-25

   xtb is free software: you can redistribute it and/or modify it under
   the terms of the GNU Lesser General Public License as published by
   the Free Software Foundation, either version 3 of the License, or
   (at your option) any later version.
   
   xtb is distributed in the hope that it will be useful,
   but WITHOUT ANY WARRANTY; without even the implied warranty of
   MERCHANTABILITY or FITNESS FOR A PARTICULAR PURPOSE.  See the
   GNU Lesser General Public License for more details.
   
   Cite this work as:
   * C. Bannwarth, E. Caldeweyher, S. Ehlert, A. Hansen, P. Pracht,
     J. Seibert, S. Spicher, S. Grimme, WIREs Comput. Mol. Sci., 2020, 11,
     e01493. DOI: 10.1002/wcms.1493
   
   for GFN2-xTB:
   * C. Bannwarth, S. Ehlert and S. Grimme., J. Chem. Theory Comput., 2019,
     15, 1652-1671. DOI: 10.1021/acs.jctc.8b01176
   for GFN1-xTB:
   * S. Grimme, C. Bannwarth, P. Shushkov, J. Chem. Theory Comput., 2017,
     13, 1989-2009. DOI: 10.1021/acs.jctc.7b00118
   for GFN0-xTB:
   * P. Pracht, E. Caldeweyher, S. Ehlert, S. Grimme, ChemRxiv, 2019, preprint.
     DOI: 10.26434/chemrxiv.8326202.v1
   for GFN-FF:
   * S. Spicher and S. Grimme, Angew. Chem. Int. Ed., 2020, 59, 15665-15673.
     DOI: 10.1002/anie.202004239
   
   for ALPB and GBSA implicit solvation:
   * S. Ehlert, M. Stahn, S. Spicher, S. Grimme, J. Chem. Theory Comput.,
     2021, 17, 4250-4261. DOI: 10.1021/acs.jctc.1c00471
   
   for ddCOSMO and CPCM-X implicit solvation:
   * M. Stahn, S. Ehlert, S. Grimme, J. Phys. Chem. A,
     2023, XX, XXXX-XXXX. DOI: 10.1021/acs.jpca.3c04382
   
   for DFT-D4:
   * E. Caldeweyher, C. Bannwarth and S. Grimme, J. Chem. Phys., 2017,
     147, 034112. DOI: 10.1063/1.4993215
   * E. Caldeweyher, S. Ehlert, A. Hansen, H. Neugebauer, S. Spicher,
     C. Bannwarth and S. Grimme, J. Chem. Phys., 2019, 150, 154122.
     DOI: 10.1063/1.5090222
   * E. Caldeweyher, J.-M. Mewes, S. Ehlert and S. Grimme, Phys. Chem. Chem. Phys.
     2020, 22, 8499-8512. DOI: 10.1039/D0CP00502A
   
   for sTDA-xTB:
   * S. Grimme and C. Bannwarth, J. Chem. Phys., 2016, 145, 054103.
     DOI: 10.1063/1.4959605
   
   in the mass-spec context:
   * V. Asgeirsson, C. Bauer and S. Grimme, Chem. Sci., 2017, 8, 4879.
     DOI: 10.1039/c7sc00601b
   * J. Koopman and S. Grimme, ACS Omega 2019, 4, 12, 15120-15133.
     DOI: 10.1021/acsomega.9b02011
   
   for metadynamics refer to:
   * S. Grimme, J. Chem. Theory Comput., 2019, 155, 2847-2862
     DOI: 10.1021/acs.jctc.9b00143
   
   for SPH calculations refer to:
   * S. Spicher and S. Grimme, J. Chem. Theory Comput., 2021, 17, 1701-1714
     DOI: 10.1021/acs.jctc.0c01306
   
   for ONIOM refer to:
   * C. Plett, A. Katbashev, S. Ehlert, S. Grimme, M. Bursch,
     Phys. Chem. Chem. Phys., 2023, 25, 17860-17868. DOI: 10.1039/D3CP02178E
   
   for DIPRO refer to:
   * J. Kohn, N. Gildemeister, S. Grimme, D. Fazzi, A. Hansen,
     J. Chem. Phys., 2023, just accepted.
   
   for PTB refer to:
   * S. Grimme, M. Mueller, A. Hansen, J. Chem. Phys., 2023, 158, 124111.
     DOI: 10.1063/5.0137838
   
   with help from (in alphabetical order)
   P. Atkinson, C. Bannwarth, F. Bohle, G. Brandenburg, E. Caldeweyher
   M. Checinski, S. Dohm, S. Ehlert, S. Ehrlich, I. Gerasimov, C. Hölzer
   A. Katbashev, J. Kohn, J. Koopman, C. Lavigne, S. Lehtola, F. März, M. Müller,
   F. Musil, H. Neugebauer, J. Pisarek, C. Plett, P. Pracht, F. Pultar,
   J. Seibert, P. Shushkov, S. Spicher, M. Stahn, M. Steiner, T. Strunk,
   J. Stückrath, T. Rose, and J. Unsleber
   
 * started run on 2025/05/15 at 16:11:02.298     
   ID    Z sym.   atoms
    1    7 N      1, 3, 5
    2    6 C      2, 4, 6, 7, 9, 11, 13, 14
    3   16 S      8
    4    8 O      10, 12, 15
    5    1 H      16-26

           -------------------------------------------------
          |                Calculation Setup                |
           -------------------------------------------------

          program call               : xtb /rds/general/user/hgt20/home/callum/QDESCP/Lamivudine_rdkit_conf_2/Lamivudine_rdkit_conf_2.xyz --acc 1 --gfn 2 --chrg 0 --uhf 2 --etemp 300 --input /rds/general/user/hgt20/home/callum/QDESCP/Lamivudine_rdkit_conf_2/Lamivudine_rdkit_conf_2_xtb.inp -P 1
          hostname                   : login-c
          coordinate file            : /rds/general/user/hgt20/home/callum/QDESCP/Lamivudine_rdkit_conf_2/Lamivudine_rdkit_conf_2.xyz
          omp threads                :                     1


           -------------------------------------------------
          |                 G F N 2 - x T B                 |
           -------------------------------------------------

        Reference                      10.1021/acs.jctc.8b01176
      * Hamiltonian:
        H0-scaling (s, p, d)           1.850000    2.230000    2.230000
        zeta-weighting                 0.500000
      * Dispersion:
        s8                             2.700000
        a1                             0.520000
        a2                             5.000000
        s9                             5.000000
      * Repulsion:
        kExp                           1.500000    1.000000
        rExp                           1.000000
      * Coulomb:
        alpha                          2.000000
        third order                    shell-resolved
        anisotropic                    true
        a3                             3.000000
        a5                             4.000000
        cn-shift                       1.200000
        cn-exp                         4.000000
        max-rad                        5.000000


          ...................................................
          :                      SETUP                      :
          :.................................................:
          :  # basis functions                  77          :
          :  # atomic orbitals                  76          :
          :  # shells                           42          :
          :  # electrons                        82          :
          :  max. iterations                   250          :
          :  Hamiltonian                  GFN2-xTB          :
          :  restarted?                      false          :
          :  GBSA solvation                  false          :
          :  PC potential                    false          :
          :  electronic temp.          300.0000000     K    :
          :  accuracy                    1.0000000          :
          :  -> integral cutoff          0.2500000E+02      :
          :  -> integral neglect         0.1000000E-07      :
          :  -> SCF convergence          0.1000000E-05 Eh   :
          :  -> wf. convergence          0.1000000E-03 e    :
          :  Broyden damping             0.4000000          :
          :  net charge                          0          :
          :  unpaired electrons                  2          :
          ...................................................

 iter      E             dE          RMSdq      gap      omega  full diag
   1    -47.1068869 -0.471069E+02  0.514E+00    0.40       0.0  T
   2    -47.1435046 -0.366176E-01  0.378E+00    1.30       1.0  T
   3    -47.0014112  0.142093E+00  0.356E+00    1.25       1.0  T
   4    -47.2363009 -0.234890E+00  0.191E+00    0.90       1.0  T
   5    -47.1349979  0.101303E+00  0.240E+00    0.52       1.0  T
   6    -47.2735117 -0.138514E+00  0.216E+00    0.49       1.0  T
   7    -47.2971215 -0.236098E-01  0.174E+00    0.47       1.0  T
   8    -47.3224748 -0.253533E-01  0.870E-01    0.55       1.0  T
   9    -47.3360639 -0.135891E-01  0.384E-01    0.49       1.0  T
  10    -47.3306076  0.545630E-02  0.954E-01    0.43       1.0  T
  11    -47.2639447  0.666629E-01  0.200E+00    0.49       1.0  T
  12    -47.2798577 -0.159130E-01  0.181E+00    0.47       1.0  T
  13    -47.3403522 -0.604945E-01  0.356E-01    0.41       1.0  T
  14    -47.3411189 -0.766720E-03  0.289E-01    0.41       1.0  T
  15    -47.3408231  0.295800E-03  0.313E-01    0.41       1.0  T
  16    -47.3419317 -0.110853E-02  0.137E-01    0.42       1.0  T
  17    -47.3423323 -0.400670E-03  0.750E-02    0.42       1.0  T
  18    -47.3424128 -0.804747E-04  0.233E-02    0.42       1.0  T
  19    -47.3424141 -0.133499E-05  0.189E-02    0.42       1.0  T
  20    -47.3424207 -0.652580E-05  0.248E-03    0.42       7.9  T
  21    -47.3424207 -0.644579E-07  0.850E-04    0.42      23.1  T
  22    -47.3424207 -0.750381E-08  0.869E-04    0.42      22.6  T

   *** convergence criteria satisfied after 22 iterations ***

         #    Occupation            Energy/Eh            Energy/eV
      -------------------------------------------------------------
         1        2.0000           -0.7538562             -20.5135
       ...           ...                  ...                  ...
        36        2.0000           -0.4348525             -11.8329
        37        2.0000           -0.4213468             -11.4654
        38        2.0000           -0.4092792             -11.1371
        39        1.8230           -0.3966005             -10.7920
        40        1.6201           -0.3956058             -10.7650
        41        1.5569           -0.3953572             -10.7582
        42        0.9997           -0.2540191              -6.9122 (HOMO)
        43        0.0003           -0.2387172              -6.4958 (LUMO)
        44                         -0.2178533              -5.9281
        45                         -0.1727755              -4.7015
        46                         -0.1160675              -3.1584
        47                         -0.0504404              -1.3726
       ...                                ...                  ...
        76                          0.6733719              18.3234
      -------------------------------------------------------------
                  HL-Gap            0.0153019 Eh            0.4164 eV
             Fermi-level           -0.3207542 Eh           -8.7282 eV

 transition dipole moment (au) for excitation:          41          42
     X       Y       Z   
  -0.9322   0.0111  -0.1071  total (au/Debye):    0.938   2.385
 dE (eV)             :    3.846
 oscillator strength :  0.11733E+00

 SCC (total)                   0 d,  0 h,  0 min,  0.082 sec
 SCC setup                      ...        0 min,  0.000 sec (  0.229%)
 Dispersion                     ...        0 min,  0.000 sec (  0.222%)
 classical contributions        ...        0 min,  0.000 sec (  0.074%)
 integral evaluation            ...        0 min,  0.004 sec (  5.143%)
 iterations                     ...        0 min,  0.023 sec ( 28.395%)
 molecular gradient             ...        0 min,  0.050 sec ( 60.473%)
 printout                       ...        0 min,  0.004 sec (  5.456%)

         :::::::::::::::::::::::::::::::::::::::::::::::::::::
         ::                     SUMMARY                     ::
         :::::::::::::::::::::::::::::::::::::::::::::::::::::
         :: total energy             -46.853624330140 Eh    ::
         :: gradient norm              0.101885116110 Eh/a0 ::
         :: HOMO-LUMO gap              0.416386291851 eV    ::
         ::.................................................::
         :: SCC energy               -47.342437115037 Eh    ::
         :: -> isotropic ES            0.093478379082 Eh    ::
         :: -> anisotropic ES         -0.000039030907 Eh    ::
         :: -> anisotropic XC          0.006904050805 Eh    ::
         :: -> dispersion             -0.025621959717 Eh    ::
         :: repulsion energy           0.488812784897 Eh    ::
         :: add. restraining           0.000000000000 Eh    ::
         :: total charge               0.000000000035 e     ::
         :::::::::::::::::::::::::::::::::::::::::::::::::::::

           -------------------------------------------------
          |                Property Printout                |
           -------------------------------------------------

    * Orbital Energies and Occupations

         #    Occupation            Energy/Eh            Energy/eV
      -------------------------------------------------------------
         1        2.0000           -0.7538562             -20.5135
       ...           ...                  ...                  ...
        30        2.0000           -0.4938326             -13.4379
        31        2.0000           -0.4860109             -13.2250
        32        2.0000           -0.4849334             -13.1957
        33        2.0000           -0.4772638             -12.9870
        34        2.0000           -0.4616636             -12.5625
        35        2.0000           -0.4487155             -12.2102
        36        2.0000           -0.4348525             -11.8329
        37        2.0000           -0.4213468             -11.4654
        38        2.0000           -0.4092792             -11.1371
        39        1.8230           -0.3966005             -10.7920
        40        1.6201           -0.3956058             -10.7650
        41        1.5569           -0.3953572             -10.7582
        42        0.9997           -0.2540191              -6.9122 (HOMO)
        43        0.0003           -0.2387172              -6.4958 (LUMO)
        44                         -0.2178533              -5.9281
        45                         -0.1727755              -4.7015
        46                         -0.1160675              -3.1584
        47                         -0.0504404              -1.3726
        48                         -0.0413484              -1.1251
        49                         -0.0218364              -0.5942
        50                         -0.0199069              -0.5417
        51                          0.0050394               0.1371
        52                          0.0283904               0.7725
        53                          0.0589976               1.6054
       ...                                ...                  ...
        76                          0.6733719              18.3234
      -------------------------------------------------------------
                  HL-Gap            0.0153019 Eh            0.4164 eV
             Fermi-level           -0.3207542 Eh           -8.7282 eV

     #   Z          covCN         q      C6AA      α(0)
     1   7 N        2.655    -0.246    26.407     7.632
     2   6 C        2.869     0.140    24.949     8.188
     3   7 N        1.851    -0.259    27.595     7.786
     4   6 C        2.736     0.331    21.375     7.570
     5   7 N        2.748    -0.098    23.152     7.146
     6   6 C        3.842     0.199    17.433     5.940
     7   6 C        3.797    -0.031    21.125     6.545
     8  16 S        2.073    -0.148   147.299    20.427
     9   6 C        3.785     0.136    18.403     6.110
    10   8 O        1.723    -0.309    19.139     5.907
    11   6 C        3.697     0.077    19.457     6.309
    12   8 O        1.656    -0.420    21.246     6.222
    13   6 C        2.861    -0.008    28.204     8.705
    14   6 C        2.911    -0.075    29.864     8.961
    15   8 O        0.859    -0.426    22.212     6.319
    16   1 H        0.861     0.178     1.225     1.734
    17   1 H        0.860     0.193     1.143     1.675
    18   1 H        0.923     0.054     2.270     2.356
    19   1 H        0.925     0.078     2.003     2.213
    20   1 H        0.924     0.062     2.181     2.309
    21   1 H        0.923     0.043     2.407     2.426
    22   1 H        0.923     0.043     2.412     2.429
    23   1 H        0.924     0.073     2.056     2.242
    24   1 H        0.805     0.304     0.708     1.321
    25   1 H        0.926     0.058     2.220     2.330
    26   1 H        0.926     0.051     2.308     2.376

 Mol. C6AA /au·bohr⁶  :       8758.005933
 Mol. C8AA /au·bohr⁸  :     222873.526850
 Mol. α(0) /au        :        143.178151


Wiberg/Mayer (AO) data.
largest (>0.10) Wiberg bond orders for each atom

 ---------------------------------------------------------------------------
     #   Z sym  total        # sym  WBO       # sym  WBO       # sym  WBO
 ---------------------------------------------------------------------------
     1   7 N    3.262 --     2 C    1.202    16 H    0.951    17 H    0.944
     2   6 C    3.837 --     3 N    1.267    14 C    1.219     1 N    1.202
     3   7 N    2.910 --     4 C    1.290     2 C    1.267    15 O    0.161
     4   6 C    3.940 --    15 O    1.615     3 N    1.290     5 N    0.936
     5   7 N    3.386 --    13 C    1.180     6 C    0.998     4 C    0.936
     6   6 C    3.929 --     5 N    0.998    10 O    0.964     7 C    0.951
                            18 H    0.944
     7   6 C    3.955 --    19 H    0.969    20 H    0.968     8 S    0.961
                             6 C    0.951
     8  16 S    2.069 --     7 C    0.961     9 C    0.863
     9   6 C    3.899 --    10 O    1.011    11 C    0.977    21 H    0.951
                             8 S    0.863
    10   8 O    2.128 --     9 C    1.011     6 C    0.964
    11   6 C    3.953 --    12 O    1.021     9 C    0.977    22 H    0.965
                            23 H    0.961
    12   8 O    1.974 --    11 C    1.021    24 H    0.889
    13   6 C    3.821 --    14 C    1.405     5 N    1.180    25 H    0.945
    14   6 C    3.754 --    13 C    1.405     2 C    1.219    26 H    0.962
    15   8 O    1.950 --     4 C    1.615     3 N    0.161
    16   1 H    0.967 --     1 N    0.951
    17   1 H    0.960 --     1 N    0.944
    18   1 H    0.992 --     6 C    0.944
    19   1 H    0.988 --     7 C    0.969
    20   1 H    0.986 --     7 C    0.968
    21   1 H    0.989 --     9 C    0.951
    22   1 H    0.997 --    11 C    0.965
    23   1 H    0.993 --    11 C    0.961
    24   1 H    0.907 --    12 O    0.889
    25   1 H    0.980 --    13 C    0.945
    26   1 H    0.991 --    14 C    0.962
 ---------------------------------------------------------------------------

Topologies differ in total number of bonds
Writing topology from bond orders to xtbtopo.mol

molecular dipole:
                 x           y           z       tot (Debye)
 q only:        0.788       0.808      -1.265
   full:        1.310       1.049      -1.311       5.413
molecular quadrupole (traceless):
                xx          xy          yy          xz          yz          zz
 q only:       16.812      10.747      -8.826      -4.338       5.062      -7.986
  q+dip:        9.593      11.809      -7.849      -8.575       4.926      -1.744
   full:       10.514      11.896      -7.391      -8.218       6.248      -3.123


           -------------------------------------------------
          | TOTAL ENERGY              -46.853624330140 Eh   |
          | GRADIENT NORM               0.101885116110 Eh/α |
          | HOMO-LUMO GAP               0.416386291851 eV   |
           -------------------------------------------------

------------------------------------------------------------------------
 * finished run on 2025/05/15 at 16:11:02.389     
------------------------------------------------------------------------
 total:
 * wall-time:     0 d,  0 h,  0 min,  0.091 sec
 *  cpu-time:     0 d,  0 h,  0 min,  0.051 sec
 * ratio c/w:     0.558 speedup
 SCF:
 * wall-time:     0 d,  0 h,  0 min,  0.082 sec
 *  cpu-time:     0 d,  0 h,  0 min,  0.043 sec
 * ratio c/w:     0.521 speedup


