26
 energy: -46.983601988230 gnorm: 0.000616735972 xtb: 6.7.1 (edcfbbe)
N            4.29055892633092       -1.14451718600315        0.83074202782823
C            3.11259255931087       -0.67259516492767        0.39342643071477
N            2.07766751135451       -0.81039456920247        1.18612448163795
C            0.85848749920847       -0.36684830144908        0.86332280446827
N            0.71747720048952        0.30022854729401       -0.40393661427161
C           -0.58693034696359        0.75169054762582       -0.83947452338408
C           -1.22007908687640        1.79879319459859        0.07804655244824
S           -2.95008660245876        1.75011821507885       -0.45113115078880
C           -2.80201156608424       -0.05866631691103       -0.71485127965253
O           -1.44373294485182       -0.35603917755647       -0.93848344215865
C           -3.36603790976979       -0.85741031309416        0.47229038442744
O           -2.90874178679841       -0.42924079670483        1.71146619498813
C            1.77788644717014        0.41409976045277       -1.23032860272796
C            3.00416018883559       -0.04021707644903       -0.88244624488422
O           -0.11058803047311       -0.48552704478055        1.57950919470227
H            5.10883009728903       -1.13087922864588        0.25029234065096
H            4.30774610914655       -1.61536621770421        1.71845695707570
H           -0.45704813179008        1.19642296996116       -1.84438646947086
H           -0.81250655349929        2.79202769874538       -0.08924137476850
H           -1.15062094096798        1.51588527447815        1.12709183890300
H           -3.37143298943534       -0.29874651315403       -1.62206072469823
H           -4.45265103450539       -0.73205187968486        0.47848310282230
H           -3.12732444175342       -1.91661951132221        0.28966033105412
H           -1.94305469735162       -0.55626935009062        1.75940752246524
H            1.59659348493032        0.89386252261451       -2.18346117748765
H            3.85084703951315        0.05825991683089       -1.53861855989348
