----- Optimization -----
      -----------------------------------------------------------      
     |                   =====================                   |     
     |                           x T B                           |     
     |                   =====================                   |     
     |                         S. Grimme                         |     
     |          Mulliken Center for Theoretical Chemistry        |     
     |                    University of Bonn                     |     
      -----------------------------------------------------------      

   * xtb version 6.7.1 (edcfbbe) compiled by 'conda@3ef47c1a292c' on 2024-11-25

   xtb is free software: you can redistribute it and/or modify it under
   the terms of the GNU Lesser General Public License as published by
   the Free Software Foundation, either version 3 of the License, or
   (at your option) any later version.
   
   xtb is distributed in the hope that it will be useful,
   but WITHOUT ANY WARRANTY; without even the implied warranty of
   MERCHANTABILITY or FITNESS FOR A PARTICULAR PURPOSE.  See the
   GNU Lesser General Public License for more details.
   
   Cite this work as:
   * C. Bannwarth, E. Caldeweyher, S. Ehlert, A. Hansen, P. Pracht,
     J. Seibert, S. Spicher, S. Grimme, WIREs Comput. Mol. Sci., 2020, 11,
     e01493. DOI: 10.1002/wcms.1493
   
   for GFN2-xTB:
   * C. Bannwarth, S. Ehlert and S. Grimme., J. Chem. Theory Comput., 2019,
     15, 1652-1671. DOI: 10.1021/acs.jctc.8b01176
   for GFN1-xTB:
   * S. Grimme, C. Bannwarth, P. Shushkov, J. Chem. Theory Comput., 2017,
     13, 1989-2009. DOI: 10.1021/acs.jctc.7b00118
   for GFN0-xTB:
   * P. Pracht, E. Caldeweyher, S. Ehlert, S. Grimme, ChemRxiv, 2019, preprint.
     DOI: 10.26434/chemrxiv.8326202.v1
   for GFN-FF:
   * S. Spicher and S. Grimme, Angew. Chem. Int. Ed., 2020, 59, 15665-15673.
     DOI: 10.1002/anie.202004239
   
   for ALPB and GBSA implicit solvation:
   * S. Ehlert, M. Stahn, S. Spicher, S. Grimme, J. Chem. Theory Comput.,
     2021, 17, 4250-4261. DOI: 10.1021/acs.jctc.1c00471
   
   for ddCOSMO and CPCM-X implicit solvation:
   * M. Stahn, S. Ehlert, S. Grimme, J. Phys. Chem. A,
     2023, XX, XXXX-XXXX. DOI: 10.1021/acs.jpca.3c04382
   
   for DFT-D4:
   * E. Caldeweyher, C. Bannwarth and S. Grimme, J. Chem. Phys., 2017,
     147, 034112. DOI: 10.1063/1.4993215
   * E. Caldeweyher, S. Ehlert, A. Hansen, H. Neugebauer, S. Spicher,
     C. Bannwarth and S. Grimme, J. Chem. Phys., 2019, 150, 154122.
     DOI: 10.1063/1.5090222
   * E. Caldeweyher, J.-M. Mewes, S. Ehlert and S. Grimme, Phys. Chem. Chem. Phys.
     2020, 22, 8499-8512. DOI: 10.1039/D0CP00502A
   
   for sTDA-xTB:
   * S. Grimme and C. Bannwarth, J. Chem. Phys., 2016, 145, 054103.
     DOI: 10.1063/1.4959605
   
   in the mass-spec context:
   * V. Asgeirsson, C. Bauer and S. Grimme, Chem. Sci., 2017, 8, 4879.
     DOI: 10.1039/c7sc00601b
   * J. Koopman and S. Grimme, ACS Omega 2019, 4, 12, 15120-15133.
     DOI: 10.1021/acsomega.9b02011
   
   for metadynamics refer to:
   * S. Grimme, J. Chem. Theory Comput., 2019, 155, 2847-2862
     DOI: 10.1021/acs.jctc.9b00143
   
   for SPH calculations refer to:
   * S. Spicher and S. Grimme, J. Chem. Theory Comput., 2021, 17, 1701-1714
     DOI: 10.1021/acs.jctc.0c01306
   
   for ONIOM refer to:
   * C. Plett, A. Katbashev, S. Ehlert, S. Grimme, M. Bursch,
     Phys. Chem. Chem. Phys., 2023, 25, 17860-17868. DOI: 10.1039/D3CP02178E
   
   for DIPRO refer to:
   * J. Kohn, N. Gildemeister, S. Grimme, D. Fazzi, A. Hansen,
     J. Chem. Phys., 2023, just accepted.
   
   for PTB refer to:
   * S. Grimme, M. Mueller, A. Hansen, J. Chem. Phys., 2023, 158, 124111.
     DOI: 10.1063/5.0137838
   
   with help from (in alphabetical order)
   P. Atkinson, C. Bannwarth, F. Bohle, G. Brandenburg, E. Caldeweyher
   M. Checinski, S. Dohm, S. Ehlert, S. Ehrlich, I. Gerasimov, C. Hölzer
   A. Katbashev, J. Kohn, J. Koopman, C. Lavigne, S. Lehtola, F. März, M. Müller,
   F. Musil, H. Neugebauer, J. Pisarek, C. Plett, P. Pracht, F. Pultar,
   J. Seibert, P. Shushkov, S. Spicher, M. Stahn, M. Steiner, T. Strunk,
   J. Stückrath, T. Rose, and J. Unsleber
   
 * started run on 2025/05/15 at 16:34:26.649     
   ID    Z sym.   atoms
    1    6 C      1-4, 6-8, 11-16, 20, 21, 23-26, 28, 30, 31, 33
    2    7 N      5, 9, 10, 19, 22, 32
    3   16 S      17
    4    8 O      18, 27, 29, 34
    5    1 H      35-66

           -------------------------------------------------
          |                Calculation Setup                |
           -------------------------------------------------

          program call               : xtb /rds/general/user/hgt20/home/callum/QDESCP/Vardenafil_rdkit_conf_7/Vardenafil_rdkit_conf_7.xyz --opt normal --acc 1 --gfn 2 --chrg 0 --uhf 0 -P 1
          hostname                   : login-c
          coordinate file            : /rds/general/user/hgt20/home/callum/QDESCP/Vardenafil_rdkit_conf_7/Vardenafil_rdkit_conf_7.xyz
          omp threads                :                     1


           -------------------------------------------------
          |                 G F N 2 - x T B                 |
           -------------------------------------------------

        Reference                      10.1021/acs.jctc.8b01176
      * Hamiltonian:
        H0-scaling (s, p, d)           1.850000    2.230000    2.230000
        zeta-weighting                 0.500000
      * Dispersion:
        s8                             2.700000
        a1                             0.520000
        a2                             5.000000
        s9                             5.000000
      * Repulsion:
        kExp                           1.500000    1.000000
        rExp                           1.000000
      * Coulomb:
        alpha                          2.000000
        third order                    shell-resolved
        anisotropic                    true
        a3                             3.000000
        a5                             4.000000
        cn-shift                       1.200000
        cn-exp                         4.000000
        max-rad                        5.000000


          ...................................................
          :                      SETUP                      :
          :.................................................:
          :  # basis functions                 174          :
          :  # atomic orbitals                 173          :
          :  # shells                          101          :
          :  # electrons                       184          :
          :  max. iterations                   250          :
          :  Hamiltonian                  GFN2-xTB          :
          :  restarted?                      false          :
          :  GBSA solvation                  false          :
          :  PC potential                    false          :
          :  electronic temp.          300.0000000     K    :
          :  accuracy                    1.0000000          :
          :  -> integral cutoff          0.2500000E+02      :
          :  -> integral neglect         0.1000000E-07      :
          :  -> SCF convergence          0.1000000E-05 Eh   :
          :  -> wf. convergence          0.1000000E-03 e    :
          :  Broyden damping             0.4000000          :
          :  net charge                          0          :
          :  unpaired electrons                  0          :
          ...................................................

 iter      E             dE          RMSdq      gap      omega  full diag
   1   -103.6103877 -0.103610E+03  0.410E+00    2.36       0.0  T
   2   -103.8368241 -0.226436E+00  0.263E+00    1.63       1.0  T
   3   -103.8603303 -0.235062E-01  0.137E+00    1.74       1.0  T
   4   -103.8718720 -0.115417E-01  0.486E-01    1.14       1.0  T
   5   -103.8815858 -0.971383E-02  0.176E-01    1.21       1.0  T
   6   -103.8819342 -0.348423E-03  0.949E-02    1.21       1.0  T
   7   -103.8820370 -0.102755E-03  0.569E-02    1.25       1.0  T
   8   -103.8821199 -0.829219E-04  0.266E-02    1.25       1.0  T
   9   -103.8821276 -0.769447E-05  0.103E-02    1.25       1.2  T
  10   -103.8821305 -0.284839E-05  0.480E-03    1.25       2.6  T
  11   -103.8821307 -0.289061E-06  0.206E-03    1.25       6.0  T
  12   -103.8821308 -0.761277E-07  0.609E-04    1.25      20.2  T
  13   -103.8821308 -0.100853E-07  0.306E-04    1.25      40.3  T

   *** convergence criteria satisfied after 13 iterations ***

         #    Occupation            Energy/Eh            Energy/eV
      -------------------------------------------------------------
         1        2.0000           -0.7723740             -21.0174
       ...           ...                  ...                  ...
        86        2.0000           -0.4127016             -11.2302
        87        2.0000           -0.4092497             -11.1363
        88        2.0000           -0.3935139             -10.7081
        89        2.0000           -0.3829695             -10.4211
        90        2.0000           -0.3797249             -10.3328
        91        2.0000           -0.3727911             -10.1442
        92        2.0000           -0.3490986              -9.4995 (HOMO)
        93                         -0.3030496              -8.2464 (LUMO)
        94                         -0.2723135              -7.4100
        95                         -0.2546915              -6.9305
        96                         -0.2317819              -6.3071
        97                         -0.1924546              -5.2370
       ...                                ...                  ...
       173                          1.1563864              31.4669
      -------------------------------------------------------------
                  HL-Gap            0.0460490 Eh            1.2531 eV
             Fermi-level           -0.3260741 Eh           -8.8729 eV

 SCC (total)                   0 d,  0 h,  0 min,  0.158 sec
 SCC setup                      ...        0 min,  0.001 sec (  0.477%)
 Dispersion                     ...        0 min,  0.001 sec (  0.670%)
 classical contributions        ...        0 min,  0.000 sec (  0.215%)
 integral evaluation            ...        0 min,  0.015 sec (  9.689%)
 iterations                     ...        0 min,  0.066 sec ( 41.905%)
 molecular gradient             ...        0 min,  0.074 sec ( 46.773%)
 printout                       ...        0 min,  0.000 sec (  0.266%)

         :::::::::::::::::::::::::::::::::::::::::::::::::::::
         ::                     SUMMARY                     ::
         :::::::::::::::::::::::::::::::::::::::::::::::::::::
         :: total energy            -102.653251192670 Eh    ::
         :: gradient norm              0.104171169174 Eh/a0 ::
         :: HOMO-LUMO gap              1.253056886259 eV    ::
         ::.................................................::
         :: SCC energy              -103.881590357144 Eh    ::
         :: -> isotropic ES            0.146831485491 Eh    ::
         :: -> anisotropic ES          0.005512611367 Eh    ::
         :: -> anisotropic XC          0.050713637567 Eh    ::
         :: -> dispersion             -0.076160519905 Eh    ::
         :: repulsion energy           1.228339164474 Eh    ::
         :: add. restraining           0.000000000000 Eh    ::
         :: total charge               0.000000000000 e     ::
         :::::::::::::::::::::::::::::::::::::::::::::::::::::

      ----------------------------------------------------------- 
     |                   =====================                   |
     |                        A N C O P T                        |
     |                   =====================                   |
     |               Approximate Normal Coordinate               |
     |                Rational Function Optimizer                |
      ----------------------------------------------------------- 
      ----------------------------------------------------------- 
     |                   =====================                   |
     |                        A N C O P T                        |
     |                   =====================                   |
     |               Approximate Normal Coordinate               |
     |                Rational Function Optimizer                |
      ----------------------------------------------------------- 

          ...................................................
          :                      SETUP                      :
          :.................................................:
          :   optimization level            normal          :
          :   max. optcycles                   200          :
          :   ANC micro-cycles                  20          :
          :   degrees of freedom               192          :
          :.................................................:
          :   RF solver                   davidson          :
          :   write xtbopt.log                true          :
          :   linear?                        false          :
          :   energy convergence         0.5000000E-05 Eh   :
          :   grad. convergence          0.1000000E-02 Eh/α :
          :   maxmium RF displ.          1.0000000          :
          :   Hlow (freq-cutoff)         0.1000000E-01      :
          :   Hmax (freq-cutoff)         5.0000000          :
          :   S6 in model hess.         20.0000000          :
          ...................................................

generating ANC from exact Hessian ...
Using Lindh-Hessian (1995)
 Shifting diagonal of input Hessian by    9.8737387243246020E-003
 Lowest  eigenvalues of input Hessian
    0.000000    0.000000    0.000000    0.000000    0.000000    0.000000
    0.010000    0.010018    0.010106    0.010297    0.010572    0.010799
    0.010936    0.011360    0.011788    0.011902    0.012395    0.012539
 Highest eigenvalues
    2.084371    2.102934    2.316763    2.431518    2.533775    3.430339


........................................................................
.............................. CYCLE    1 ..............................
........................................................................

 iter      E             dE          RMSdq      gap      omega  full diag
   1   -103.8821308 -0.103882E+03  0.128E-04    1.25       0.0  T
   2   -103.8821308 -0.147438E-09  0.840E-05    1.25     146.5  T
   3   -103.8821308 -0.824372E-10  0.560E-05    1.25     219.7  T
     SCC iter.                  ...        0 min,  0.032 sec
     gradient                   ...        0 min,  0.060 sec
 * total energy  :  -102.6532512 Eh     change       -0.1577888E-08 Eh
   gradient norm :     0.1041689 Eh/α   predicted     0.0000000E+00 (-100.00%)
   displ. norm   :     0.3407884 α      lambda       -0.1973903E-01
   maximum displ.:     0.1525530 α      in ANC's #64, #67, #65, ...

........................................................................
.............................. CYCLE    2 ..............................
........................................................................

 iter      E             dE          RMSdq      gap      omega  full diag
   1   -103.9319428 -0.103932E+03  0.197E-01    1.32       0.0  T
   2   -103.9321680 -0.225207E-03  0.123E-01    1.36       1.0  T
   3   -103.9321395  0.284162E-04  0.633E-02    1.36       1.0  T
   4   -103.9322410 -0.101440E-03  0.200E-02    1.37       1.0  T
   5   -103.9322570 -0.159774E-04  0.602E-03    1.37       2.0  T
   6   -103.9322570 -0.144564E-07  0.176E-03    1.37       7.0  T
   7   -103.9322571 -0.106078E-06  0.785E-04    1.37      15.7  T
   8   -103.9322571 -0.142778E-07  0.396E-04    1.37      31.1  T
     SCC iter.                  ...        0 min,  0.039 sec
     gradient                   ...        0 min,  0.058 sec
 * total energy  :  -102.6670816 Eh     change       -0.1383043E-01 Eh
   gradient norm :     0.0456275 Eh/α   predicted    -0.1102180E-01 ( -20.31%)
   displ. norm   :     0.3106194 α      lambda       -0.6647663E-02
   maximum displ.:     0.1460258 α      in ANC's #17, #64, #19, ...

........................................................................
.............................. CYCLE    3 ..............................
........................................................................

 iter      E             dE          RMSdq      gap      omega  full diag
   1   -103.9599593 -0.103960E+03  0.144E-01    1.37       0.0  T
   2   -103.9600850 -0.125757E-03  0.861E-02    1.40       1.0  T
   3   -103.9600812  0.384926E-05  0.439E-02    1.41       1.0  T
   4   -103.9601311 -0.498990E-04  0.164E-02    1.41       1.0  T
   5   -103.9601398 -0.869486E-05  0.559E-03    1.41       2.2  T
   6   -103.9601398 -0.200347E-07  0.163E-03    1.41       7.6  T
   7   -103.9601399 -0.111406E-06  0.574E-04    1.41      21.5  T
   8   -103.9601399 -0.360301E-08  0.285E-04    1.41      43.2  T
     SCC iter.                  ...        0 min,  0.039 sec
     gradient                   ...        0 min,  0.082 sec
 * total energy  :  -102.6710399 Eh     change       -0.3958284E-02 Eh
   gradient norm :     0.0162351 Eh/α   predicted    -0.3646344E-02 (  -7.88%)
   displ. norm   :     0.2360878 α      lambda       -0.1267293E-02
   maximum displ.:     0.1434988 α      in ANC's #17, #19, #12, ...

........................................................................
.............................. CYCLE    4 ..............................
........................................................................

 iter      E             dE          RMSdq      gap      omega  full diag
   1   -103.9633568 -0.103963E+03  0.684E-02    1.41       0.0  T
   2   -103.9633776 -0.208406E-04  0.355E-02    1.42       1.0  T
   3   -103.9633734  0.423012E-05  0.173E-02    1.42       1.0  T
   4   -103.9633850 -0.115866E-04  0.620E-03    1.42       2.0  T
   5   -103.9633859 -0.919238E-06  0.261E-03    1.43       4.7  T
   6   -103.9633860 -0.102623E-06  0.900E-04    1.43      13.7  T
   7   -103.9633860 -0.223842E-07  0.284E-04    1.43      43.3  T
     SCC iter.                  ...        0 min,  0.056 sec
     gradient                   ...        0 min,  0.061 sec
 * total energy  :  -102.6720265 Eh     change       -0.9865415E-03 Eh
   gradient norm :     0.0144846 Eh/α   predicted    -0.6689775E-03 ( -32.19%)
   displ. norm   :     0.3690830 α      lambda       -0.1366319E-02
   maximum displ.:     0.2177451 α      in ANC's #17, #6, #19, ...

........................................................................
.............................. CYCLE    5 ..............................
........................................................................

 iter      E             dE          RMSdq      gap      omega  full diag
   1   -103.9633474 -0.103963E+03  0.952E-02    1.43       0.0  T
   2   -103.9634023 -0.549759E-04  0.485E-02    1.43       1.0  T
   3   -103.9633999  0.243300E-05  0.242E-02    1.44       1.0  T
   4   -103.9634183 -0.184188E-04  0.813E-03    1.44       1.5  T
   5   -103.9634200 -0.170236E-05  0.391E-03    1.44       3.1  T
   6   -103.9634204 -0.345377E-06  0.122E-03    1.44      10.1  T
   7   -103.9634204 -0.481744E-07  0.423E-04    1.44      29.1  T
   8   -103.9634204 -0.288824E-08  0.203E-04    1.44      60.7  T
     SCC iter.                  ...        0 min,  0.039 sec
     gradient                   ...        0 min,  0.075 sec
 * total energy  :  -102.6729599 Eh     change       -0.9334414E-03 Eh
   gradient norm :     0.0117334 Eh/α   predicted    -0.7762249E-03 ( -16.84%)
   displ. norm   :     0.2708518 α      lambda       -0.5561210E-03
   maximum displ.:     0.1377895 α      in ANC's #17, #6, #8, ...

........................................................................
.............................. CYCLE    6 ..............................
........................................................................

 iter      E             dE          RMSdq      gap      omega  full diag
   1   -103.9636207 -0.103964E+03  0.594E-02    1.45       0.0  T
   2   -103.9636485 -0.278101E-04  0.316E-02    1.44       1.0  T
   3   -103.9636499 -0.140763E-05  0.171E-02    1.45       1.0  T
   4   -103.9636574 -0.748058E-05  0.531E-03    1.44       2.3  T
   5   -103.9636583 -0.916868E-06  0.247E-03    1.45       5.0  T
   6   -103.9636585 -0.111561E-06  0.783E-04    1.45      15.7  T
   7   -103.9636585 -0.227882E-07  0.255E-04    1.45      48.3  T
     SCC iter.                  ...        0 min,  0.035 sec
     gradient                   ...        0 min,  0.072 sec
 * total energy  :  -102.6733587 Eh     change       -0.3987995E-03 Eh
   gradient norm :     0.0090074 Eh/α   predicted    -0.2984691E-03 ( -25.16%)
   displ. norm   :     0.2565217 α      lambda       -0.3742069E-03
   maximum displ.:     0.1508613 α      in ANC's #6, #8, #17, ...

........................................................................
.............................. CYCLE    7 ..............................
........................................................................

 iter      E             dE          RMSdq      gap      omega  full diag
   1   -103.9648252 -0.103965E+03  0.486E-02    1.46       0.0  T
   2   -103.9648424 -0.172576E-04  0.274E-02    1.45       1.0  T
   3   -103.9648429 -0.437126E-06  0.157E-02    1.45       1.0  T
   4   -103.9648490 -0.617767E-05  0.402E-03    1.45       3.1  T
   5   -103.9648497 -0.664920E-06  0.172E-03    1.45       7.2  T
   6   -103.9648497 -0.459318E-07  0.605E-04    1.45      20.3  T
   7   -103.9648498 -0.140673E-07  0.187E-04    1.45      65.8  T
     SCC iter.                  ...        0 min,  0.044 sec
     gradient                   ...        0 min,  0.057 sec
 * total energy  :  -102.6736326 Eh     change       -0.2739518E-03 Eh
   gradient norm :     0.0064732 Eh/α   predicted    -0.1994205E-03 ( -27.21%)
   displ. norm   :     0.2439699 α      lambda       -0.2692647E-03
   maximum displ.:     0.1591331 α      in ANC's #6, #8, #5, ...

........................................................................
.............................. CYCLE    8 ..............................
........................................................................

 iter      E             dE          RMSdq      gap      omega  full diag
   1   -103.9661818 -0.103966E+03  0.421E-02    1.46       0.0  T
   2   -103.9661897 -0.796434E-05  0.241E-02    1.45       1.0  T
   3   -103.9661872  0.253730E-05  0.135E-02    1.46       1.0  T
   4   -103.9661932 -0.600689E-05  0.257E-03    1.45       4.8  T
   5   -103.9661935 -0.325121E-06  0.109E-03    1.45      11.3  T
   6   -103.9661936 -0.194097E-07  0.445E-04    1.45      27.6  T
   7   -103.9661936 -0.671061E-08  0.130E-04    1.45      94.8  T
     SCC iter.                  ...        0 min,  0.034 sec
     gradient                   ...        0 min,  0.083 sec
 * total energy  :  -102.6738345 Eh     change       -0.2018539E-03 Eh
   gradient norm :     0.0055113 Eh/α   predicted    -0.1426464E-03 ( -29.33%)
   displ. norm   :     0.2419341 α      lambda       -0.2047263E-03
   maximum displ.:     0.1648960 α      in ANC's #6, #8, #5, ...

........................................................................
.............................. CYCLE    9 ..............................
........................................................................

 iter      E             dE          RMSdq      gap      omega  full diag
   1   -103.9670350 -0.103967E+03  0.383E-02    1.46       0.0  T
   2   -103.9670388 -0.379298E-05  0.217E-02    1.45       1.0  T
   3   -103.9670361  0.266124E-05  0.101E-02    1.45       1.2  T
   4   -103.9670403 -0.412404E-05  0.191E-03    1.45       6.4  T
   5   -103.9670404 -0.140808E-06  0.946E-04    1.45      13.0  T
   6   -103.9670404 -0.195753E-07  0.365E-04    1.45      33.7  T
     SCC iter.                  ...        0 min,  0.030 sec
     gradient                   ...        0 min,  0.075 sec
 * total energy  :  -102.6739900 Eh     change       -0.1554582E-03 Eh
   gradient norm :     0.0053702 Eh/α   predicted    -0.1083558E-03 ( -30.30%)
   displ. norm   :     0.2359064 α      lambda       -0.1574622E-03
   maximum displ.:     0.1641937 α      in ANC's #6, #5, #8, ...

........................................................................
.............................. CYCLE   10 ..............................
........................................................................

 iter      E             dE          RMSdq      gap      omega  full diag
   1   -103.9673294 -0.103967E+03  0.338E-02    1.45       0.0  T
   2   -103.9673317 -0.227698E-05  0.192E-02    1.45       1.0  T
   3   -103.9673302  0.141743E-05  0.719E-03    1.45       1.7  T
   4   -103.9673324 -0.211806E-05  0.177E-03    1.45       6.9  T
   5   -103.9673324 -0.720291E-07  0.843E-04    1.45      14.6  T
   6   -103.9673324 -0.165715E-07  0.294E-04    1.45      41.8  T
     SCC iter.                  ...        0 min,  0.061 sec
     gradient                   ...        0 min,  0.103 sec
 * total energy  :  -102.6741128 Eh     change       -0.1228575E-03 Eh
   gradient norm :     0.0048119 Eh/α   predicted    -0.8311359E-04 ( -32.35%)
   displ. norm   :     0.2320393 α      lambda       -0.1312323E-03
   maximum displ.:     0.1632662 α      in ANC's #6, #5, #8, ...

........................................................................
.............................. CYCLE   11 ..............................
........................................................................

 iter      E             dE          RMSdq      gap      omega  full diag
   1   -103.9673369 -0.103967E+03  0.310E-02    1.45       0.0  T
   2   -103.9673388 -0.183855E-05  0.177E-02    1.45       1.0  T
   3   -103.9673374  0.135116E-05  0.660E-03    1.45       1.9  T
   4   -103.9673393 -0.192043E-05  0.180E-03    1.45       6.8  T
   5   -103.9673394 -0.683012E-07  0.822E-04    1.45      15.0  T
   6   -103.9673394 -0.141684E-07  0.255E-04    1.45      48.3  T
     SCC iter.                  ...        0 min,  0.030 sec
     gradient                   ...        0 min,  0.078 sec
 * total energy  :  -102.6742170 Eh     change       -0.1041753E-03 Eh
   gradient norm :     0.0037946 Eh/α   predicted    -0.6915074E-04 ( -33.62%)
   displ. norm   :     0.2290244 α      lambda       -0.1109956E-03
   maximum displ.:     0.1612463 α      in ANC's #6, #5, #11, ...

........................................................................
.............................. CYCLE   12 ..............................
........................................................................

 iter      E             dE          RMSdq      gap      omega  full diag
   1   -103.9672940 -0.103967E+03  0.307E-02    1.45       0.0  T
   2   -103.9672957 -0.170764E-05  0.175E-02    1.45       1.0  T
   3   -103.9672945  0.115915E-05  0.622E-03    1.45       2.0  T
   4   -103.9672961 -0.161917E-05  0.177E-03    1.45       7.0  T
   5   -103.9672962 -0.838916E-07  0.793E-04    1.45      15.5  T
   6   -103.9672962 -0.131827E-07  0.239E-04    1.45      51.5  T
     SCC iter.                  ...        0 min,  0.054 sec
     gradient                   ...        0 min,  0.099 sec
 * total energy  :  -102.6743055 Eh     change       -0.8854959E-04 Eh
   gradient norm :     0.0030582 Eh/α   predicted    -0.5840971E-04 ( -34.04%)
   displ. norm   :     0.2212715 α      lambda       -0.9148428E-04
   maximum displ.:     0.1542601 α      in ANC's #6, #5, #11, ...

........................................................................
.............................. CYCLE   13 ..............................
........................................................................

 iter      E             dE          RMSdq      gap      omega  full diag
   1   -103.9673863 -0.103967E+03  0.309E-02    1.45       0.0  T
   2   -103.9673878 -0.153718E-05  0.174E-02    1.45       1.0  T
   3   -103.9673872  0.601642E-06  0.527E-03    1.46       2.3  T
   4   -103.9673881 -0.887976E-06  0.171E-03    1.46       7.2  T
   5   -103.9673882 -0.935267E-07  0.739E-04    1.46      16.7  T
   6   -103.9673882 -0.132185E-07  0.220E-04    1.46      55.9  T
     SCC iter.                  ...        0 min,  0.069 sec
     gradient                   ...        0 min,  0.060 sec
 * total energy  :  -102.6743792 Eh     change       -0.7365287E-04 Eh
   gradient norm :     0.0030569 Eh/α   predicted    -0.4798296E-04 ( -34.85%)
   displ. norm   :     0.2180436 α      lambda       -0.7932290E-04
   maximum displ.:     0.1489315 α      in ANC's #6, #5, #11, ...

........................................................................
.............................. CYCLE   14 ..............................
........................................................................

 iter      E             dE          RMSdq      gap      omega  full diag
   1   -103.9676121 -0.103968E+03  0.313E-02    1.46       0.0  T
   2   -103.9676134 -0.128180E-05  0.175E-02    1.46       1.0  T
   3   -103.9676131  0.316411E-06  0.459E-03    1.46       2.7  T
   4   -103.9676136 -0.509552E-06  0.164E-03    1.46       7.5  T
   5   -103.9676137 -0.847624E-07  0.656E-04    1.46      18.8  T
   6   -103.9676137 -0.119719E-07  0.186E-04    1.46      66.0  T
     SCC iter.                  ...        0 min,  0.030 sec
     gradient                   ...        0 min,  0.082 sec
 * total energy  :  -102.6744445 Eh     change       -0.6530250E-04 Eh
   gradient norm :     0.0032966 Eh/α   predicted    -0.4154947E-04 ( -36.37%)
   displ. norm   :     0.2364451 α      lambda       -0.8083249E-04
   maximum displ.:     0.1569637 α      in ANC's #6, #5, #4, ...

........................................................................
.............................. CYCLE   15 ..............................
........................................................................

 iter      E             dE          RMSdq      gap      omega  full diag
   1   -103.9679838 -0.103968E+03  0.334E-02    1.46       0.0  T
   2   -103.9679849 -0.110431E-05  0.187E-02    1.46       1.0  T
   3   -103.9679845  0.342170E-06  0.446E-03    1.47       2.8  T
   4   -103.9679850 -0.481494E-06  0.184E-03    1.47       6.7  T
   5   -103.9679851 -0.116844E-06  0.660E-04    1.47      18.7  T
   6   -103.9679852 -0.115792E-07  0.187E-04    1.47      65.8  T
     SCC iter.                  ...        0 min,  0.030 sec
     gradient                   ...        0 min,  0.084 sec
 * total energy  :  -102.6745122 Eh     change       -0.6769974E-04 Eh
   gradient norm :     0.0036684 Eh/α   predicted    -0.4268099E-04 ( -36.96%)
   displ. norm   :     0.2889764 α      lambda       -0.9541601E-04
   maximum displ.:     0.1871072 α      in ANC's #6, #5, #4, ...

........................................................................
.............................. CYCLE   16 ..............................
........................................................................

 iter      E             dE          RMSdq      gap      omega  full diag
   1   -103.9680656 -0.103968E+03  0.393E-02    1.47       0.0  T
   2   -103.9680669 -0.126914E-05  0.221E-02    1.47       1.0  T
   3   -103.9680663  0.596707E-06  0.521E-03    1.47       2.4  T
   4   -103.9680670 -0.777867E-06  0.217E-03    1.47       5.7  T
   5   -103.9680672 -0.159610E-06  0.727E-04    1.47      16.9  T
   6   -103.9680672 -0.132764E-07  0.209E-04    1.47      58.9  T
     SCC iter.                  ...        0 min,  0.030 sec
     gradient                   ...        0 min,  0.090 sec
 * total energy  :  -102.6745917 Eh     change       -0.7948976E-04 Eh
   gradient norm :     0.0035609 Eh/α   predicted    -0.5169650E-04 ( -34.96%)
   displ. norm   :     0.3590027 α      lambda       -0.1144313E-03
   maximum displ.:     0.2260924 α      in ANC's #6, #5, #3, ...

........................................................................
.............................. CYCLE   17 ..............................
........................................................................

 iter      E             dE          RMSdq      gap      omega  full diag
   1   -103.9683479 -0.103968E+03  0.458E-02    1.47       0.0  T
   2   -103.9683492 -0.135016E-05  0.261E-02    1.47       1.0  T
   3   -103.9683488  0.373417E-06  0.462E-03    1.47       2.7  T
   4   -103.9683494 -0.552337E-06  0.216E-03    1.47       5.7  T
   5   -103.9683496 -0.162696E-06  0.678E-04    1.47      18.2  T
   6   -103.9683496 -0.931944E-08  0.187E-04    1.47      65.9  T
     SCC iter.                  ...        0 min,  0.069 sec
     gradient                   ...        0 min,  0.057 sec
 * total energy  :  -102.6746828 Eh     change       -0.9112752E-04 Eh
   gradient norm :     0.0046574 Eh/α   predicted    -0.6459212E-04 ( -29.12%)
   displ. norm   :     0.4117860 α      lambda       -0.1270138E-03
   maximum displ.:     0.2573311 α      in ANC's #6, #5, #3, ...

........................................................................
.............................. CYCLE   18 ..............................
........................................................................

 iter      E             dE          RMSdq      gap      omega  full diag
   1   -103.9675624 -0.103968E+03  0.503E-02    1.47       0.0  T
   2   -103.9675642 -0.178001E-05  0.287E-02    1.47       1.0  T
   3   -103.9675636  0.573898E-06  0.545E-03    1.47       2.3  T
   4   -103.9675645 -0.902602E-06  0.217E-03    1.47       5.7  T
   5   -103.9675646 -0.124440E-06  0.752E-04    1.47      16.4  T
   6   -103.9675646 -0.150785E-07  0.230E-04    1.47      53.6  T
     SCC iter.                  ...        0 min,  0.030 sec
     gradient                   ...        0 min,  0.074 sec
 * total energy  :  -102.6747756 Eh     change       -0.9280865E-04 Eh
   gradient norm :     0.0040054 Eh/α   predicted    -0.7427631E-04 ( -19.97%)
   displ. norm   :     0.3855959 α      lambda       -0.1147125E-03
   maximum displ.:     0.2324907 α      in ANC's #6, #5, #3, ...

........................................................................
.............................. CYCLE   19 ..............................
........................................................................

 iter      E             dE          RMSdq      gap      omega  full diag
   1   -103.9681356 -0.103968E+03  0.445E-02    1.47       0.0  T
   2   -103.9681369 -0.131425E-05  0.257E-02    1.47       1.0  T
   3   -103.9681366  0.363811E-06  0.366E-03    1.47       3.4  T
   4   -103.9681371 -0.548281E-06  0.186E-03    1.47       6.6  T
   5   -103.9681373 -0.146289E-06  0.590E-04    1.47      20.9  T
   6   -103.9681373 -0.695320E-08  0.189E-04    1.47      65.1  T
     SCC iter.                  ...        0 min,  0.030 sec
     gradient                   ...        0 min,  0.079 sec
 * total energy  :  -102.6748606 Eh     change       -0.8492883E-04 Eh
   gradient norm :     0.0039717 Eh/α   predicted    -0.6588605E-04 ( -22.42%)
   displ. norm   :     0.3348981 α      lambda       -0.9535059E-04
   maximum displ.:     0.1948799 α      in ANC's #6, #5, #3, ...

........................................................................
.............................. CYCLE   20 ..............................
........................................................................

 iter      E             dE          RMSdq      gap      omega  full diag
   1   -103.9684776 -0.103968E+03  0.379E-02    1.46       0.0  T
   2   -103.9684786 -0.103702E-05  0.218E-02    1.46       1.0  T
   3   -103.9684779  0.693365E-06  0.424E-03    1.46       2.9  T
   4   -103.9684788 -0.875122E-06  0.181E-03    1.46       6.8  T
   5   -103.9684789 -0.129897E-06  0.573E-04    1.46      21.5  T
   6   -103.9684789 -0.294219E-08  0.184E-04    1.46      66.9  T
     SCC iter.                  ...        0 min,  0.057 sec
     gradient                   ...        0 min,  0.084 sec
 * total energy  :  -102.6749339 Eh     change       -0.7336177E-04 Eh
   gradient norm :     0.0032489 Eh/α   predicted    -0.5302524E-04 ( -27.72%)
   displ. norm   :     0.3519399 α      lambda       -0.8831240E-04
   maximum displ.:     0.1991790 α      in ANC's #5, #6, #3, ...
 * RMSD in coord.:     0.5447767 α      energy gain  -0.2168272E-01 Eh

generating ANC from exact Hessian ...
Using Lindh-Hessian (1995)
 Shifting diagonal of input Hessian by    9.8767486264192839E-003
 Lowest  eigenvalues of input Hessian
    0.000000    0.000000    0.000000    0.000000    0.000000    0.000000
    0.010000    0.010037    0.010131    0.010334    0.010672    0.010926
    0.011054    0.011301    0.011892    0.011996    0.012396    0.012891
 Highest eigenvalues
    2.100241    2.204045    2.360825    2.436530    2.747361    3.521057


........................................................................
.............................. CYCLE   21 ..............................
........................................................................

 iter      E             dE          RMSdq      gap      omega  full diag
   1   -103.9679866 -0.103968E+03  0.400E-02    1.45       0.0  T
   2   -103.9679877 -0.110071E-05  0.232E-02    1.46       1.0  T
   3   -103.9679865  0.118022E-05  0.511E-03    1.46       2.4  T
   4   -103.9679880 -0.143122E-05  0.194E-03    1.46       6.3  T
   5   -103.9679881 -0.149764E-06  0.617E-04    1.46      20.0  T
   6   -103.9679881 -0.209039E-08  0.174E-04    1.46      70.9  T
     SCC iter.                  ...        0 min,  0.063 sec
     gradient                   ...        0 min,  0.084 sec
 * total energy  :  -102.6750031 Eh     change       -0.6919354E-04 Eh
   gradient norm :     0.0029697 Eh/α   predicted     0.0000000E+00 (-100.00%)
   displ. norm   :     0.0368560 α      lambda       -0.3104052E-04
   maximum displ.:     0.0203304 α      in ANC's #13, #3, #5, ...

........................................................................
.............................. CYCLE   22 ..............................
........................................................................

 iter      E             dE          RMSdq      gap      omega  full diag
   1   -103.9686954 -0.103969E+03  0.671E-03    1.46       0.0  T
   2   -103.9686955 -0.756168E-07  0.388E-03    1.46       3.2  T
   3   -103.9686955  0.257866E-07  0.105E-03    1.46      11.7  T
   4   -103.9686955 -0.371708E-07  0.377E-04    1.46      32.6  T
   5   -103.9686955 -0.477461E-08  0.147E-04    1.46      84.0  T
     SCC iter.                  ...        0 min,  0.025 sec
     gradient                   ...        0 min,  0.080 sec
 * total energy  :  -102.6750309 Eh     change       -0.2779818E-04 Eh
   gradient norm :     0.0018327 Eh/α   predicted    -0.1616476E-04 ( -41.85%)
   displ. norm   :     0.2205376 α      lambda       -0.8806353E-04
   maximum displ.:     0.1229456 α      in ANC's #13, #5, #3, ...

........................................................................
.............................. CYCLE   23 ..............................
........................................................................

 iter      E             dE          RMSdq      gap      omega  full diag
   1   -103.9700314 -0.103970E+03  0.345E-02    1.46       0.0  T
   2   -103.9700329 -0.154006E-05  0.199E-02    1.46       1.0  T
   3   -103.9700324  0.515502E-06  0.495E-03    1.47       2.5  T
   4   -103.9700332 -0.746543E-06  0.185E-03    1.47       6.7  T
   5   -103.9700333 -0.104962E-06  0.672E-04    1.47      18.3  T
   6   -103.9700333 -0.832111E-08  0.232E-04    1.47      53.1  T
     SCC iter.                  ...        0 min,  0.030 sec
     gradient                   ...        0 min,  0.084 sec
 * total energy  :  -102.6750886 Eh     change       -0.5768666E-04 Eh
   gradient norm :     0.0035828 Eh/α   predicted    -0.4498458E-04 ( -22.02%)
   displ. norm   :     0.0293929 α      lambda       -0.1966209E-04
   maximum displ.:     0.0143480 α      in ANC's #3, #5, #13, ...

........................................................................
.............................. CYCLE   24 ..............................
........................................................................

 iter      E             dE          RMSdq      gap      omega  full diag
   1   -103.9696361 -0.103970E+03  0.476E-03    1.46       0.0  T
   2   -103.9696362 -0.414618E-07  0.276E-03    1.46       4.5  T
   3   -103.9696362  0.664245E-08  0.641E-04    1.46      19.2  T
   4   -103.9696362 -0.110122E-07  0.240E-04    1.46      51.4  T
     SCC iter.                  ...        0 min,  0.041 sec
     gradient                   ...        0 min,  0.061 sec
 * total energy  :  -102.6751058 Eh     change       -0.1725773E-04 Eh
   gradient norm :     0.0024148 Eh/α   predicted    -0.9841370E-05 ( -42.97%)
   displ. norm   :     0.1331894 α      lambda       -0.5587361E-04
   maximum displ.:     0.0648369 α      in ANC's #3, #5, #13, ...

........................................................................
.............................. CYCLE   25 ..............................
........................................................................

 iter      E             dE          RMSdq      gap      omega  full diag
   1   -103.9684554 -0.103968E+03  0.182E-02    1.46       0.0  T
   2   -103.9684558 -0.412895E-06  0.105E-02    1.46       1.2  T
   3   -103.9684557  0.728348E-07  0.219E-03    1.46       5.6  T
   4   -103.9684558 -0.117947E-06  0.898E-04    1.46      13.7  T
   5   -103.9684559 -0.215714E-07  0.376E-04    1.46      32.7  T
     SCC iter.                  ...        0 min,  0.025 sec
     gradient                   ...        0 min,  0.090 sec
 * total energy  :  -102.6751411 Eh     change       -0.3526560E-04 Eh
   gradient norm :     0.0016203 Eh/α   predicted    -0.2843965E-04 ( -19.36%)
   displ. norm   :     0.1407650 α      lambda       -0.1709664E-04
   maximum displ.:     0.0719212 α      in ANC's #3, #5, #13, ...

........................................................................
.............................. CYCLE   26 ..............................
........................................................................

 iter      E             dE          RMSdq      gap      omega  full diag
   1   -103.9680295 -0.103968E+03  0.163E-02    1.46       0.0  T
   2   -103.9680297 -0.176759E-06  0.942E-03    1.46       1.3  T
   3   -103.9680297  0.123046E-07  0.155E-03    1.46       7.9  T
   4   -103.9680297 -0.358266E-07  0.674E-04    1.46      18.3  T
   5   -103.9680297 -0.131161E-07  0.233E-04    1.46      52.8  T
     SCC iter.                  ...        0 min,  0.055 sec
     gradient                   ...        0 min,  0.060 sec
 * total energy  :  -102.6751598 Eh     change       -0.1873239E-04 Eh
   gradient norm :     0.0026055 Eh/α   predicted    -0.8624574E-05 ( -53.96%)
   displ. norm   :     0.1053782 α      lambda       -0.2263120E-04
   maximum displ.:     0.0567988 α      in ANC's #3, #5, #19, ...

........................................................................
.............................. CYCLE   27 ..............................
........................................................................

 iter      E             dE          RMSdq      gap      omega  full diag
   1   -103.9683504 -0.103968E+03  0.112E-02    1.46       0.0  T
   2   -103.9683505 -0.669319E-07  0.646E-03    1.46       1.9  T
   3   -103.9683505  0.693689E-08  0.101E-03    1.46      12.2  T
   4   -103.9683505 -0.143017E-07  0.483E-04    1.46      25.5  T
   5   -103.9683505 -0.774648E-08  0.169E-04    1.46      72.6  T
     SCC iter.                  ...        0 min,  0.045 sec
     gradient                   ...        0 min,  0.085 sec
 * total energy  :  -102.6751797 Eh     change       -0.1989671E-04 Eh
   gradient norm :     0.0020701 Eh/α   predicted    -0.1144242E-04 ( -42.49%)
   displ. norm   :     0.2444169 α      lambda       -0.4981497E-04
   maximum displ.:     0.1336937 α      in ANC's #3, #5, #19, ...

........................................................................
.............................. CYCLE   28 ..............................
........................................................................

 iter      E             dE          RMSdq      gap      omega  full diag
   1   -103.9686892 -0.103969E+03  0.255E-02    1.46       0.0  T
   2   -103.9686896 -0.303340E-06  0.148E-02    1.46       1.0  T
   3   -103.9686895  0.556924E-07  0.218E-03    1.46       5.6  T
   4   -103.9686896 -0.930671E-07  0.106E-03    1.46      11.7  T
   5   -103.9686896 -0.353834E-07  0.367E-04    1.46      33.5  T
   6   -103.9686896 -0.504120E-08  0.104E-04    1.46     118.2  T
     SCC iter.                  ...        0 min,  0.030 sec
     gradient                   ...        0 min,  0.085 sec
 * total energy  :  -102.6752183 Eh     change       -0.3854978E-04 Eh
   gradient norm :     0.0016561 Eh/α   predicted    -0.2641681E-04 ( -31.47%)
   displ. norm   :     0.4033440 α      lambda       -0.4530052E-04
   maximum displ.:     0.2278444 α      in ANC's #3, #5, #19, ...

........................................................................
.............................. CYCLE   29 ..............................
........................................................................

 iter      E             dE          RMSdq      gap      omega  full diag
   1   -103.9682467 -0.103968E+03  0.421E-02    1.46       0.0  T
   2   -103.9682474 -0.708982E-06  0.246E-02    1.46       1.0  T
   3   -103.9682473  0.686243E-07  0.299E-03    1.46       4.1  T
   4   -103.9682475 -0.161980E-06  0.153E-03    1.46       8.0  T
   5   -103.9682476 -0.692843E-07  0.532E-04    1.46      23.1  T
   6   -103.9682476 -0.116461E-07  0.161E-04    1.46      76.7  T
     SCC iter.                  ...        0 min,  0.045 sec
     gradient                   ...        0 min,  0.062 sec
 * total energy  :  -102.6752596 Eh     change       -0.4130407E-04 Eh
   gradient norm :     0.0038208 Eh/α   predicted    -0.2428985E-04 ( -41.19%)
   displ. norm   :     0.1365602 α      lambda       -0.4943023E-04
   maximum displ.:     0.0824751 α      in ANC's #3, #5, #19, ...

........................................................................
.............................. CYCLE   30 ..............................
........................................................................

 iter      E             dE          RMSdq      gap      omega  full diag
   1   -103.9693415 -0.103969E+03  0.174E-02    1.46       0.0  T
   2   -103.9693418 -0.269316E-06  0.101E-02    1.46       1.2  T
   3   -103.9693418  0.978160E-08  0.130E-03    1.46       9.5  T
   4   -103.9693418 -0.308516E-07  0.600E-04    1.46      20.5  T
   5   -103.9693418 -0.108774E-07  0.261E-04    1.46      47.2  T
     SCC iter.                  ...        0 min,  0.025 sec
     gradient                   ...        0 min,  0.093 sec
 * total energy  :  -102.6752969 Eh     change       -0.3733607E-04 Eh
   gradient norm :     0.0027997 Eh/α   predicted    -0.2518247E-04 ( -32.55%)
   displ. norm   :     0.3205670 α      lambda       -0.6686694E-04
   maximum displ.:     0.1918651 α      in ANC's #3, #5, #19, ...

........................................................................
.............................. CYCLE   31 ..............................
........................................................................

 iter      E             dE          RMSdq      gap      omega  full diag
   1   -103.9688099 -0.103969E+03  0.358E-02    1.46       0.0  T
   2   -103.9688101 -0.262876E-06  0.211E-02    1.46       1.0  T
   3   -103.9688101  0.168867E-07  0.157E-03    1.46       7.8  T
   4   -103.9688102 -0.700981E-07  0.895E-04    1.46      13.8  T
   5   -103.9688102 -0.232919E-07  0.335E-04    1.46      36.7  T
     SCC iter.                  ...        0 min,  0.051 sec
     gradient                   ...        0 min,  0.061 sec
 * total energy  :  -102.6753518 Eh     change       -0.5481737E-04 Eh
   gradient norm :     0.0027960 Eh/α   predicted    -0.3687281E-04 ( -32.74%)
   displ. norm   :     0.3638786 α      lambda       -0.7527573E-04
   maximum displ.:     0.2226730 α      in ANC's #3, #5, #19, ...

........................................................................
.............................. CYCLE   32 ..............................
........................................................................

 iter      E             dE          RMSdq      gap      omega  full diag
   1   -103.9677226 -0.103968E+03  0.409E-02    1.46       0.0  T
   2   -103.9677230 -0.418224E-06  0.242E-02    1.47       1.0  T
   3   -103.9677230  0.255766E-07  0.187E-03    1.47       6.6  T
   4   -103.9677231 -0.113639E-06  0.926E-04    1.47      13.3  T
   5   -103.9677231 -0.195386E-07  0.414E-04    1.47      29.7  T
     SCC iter.                  ...        0 min,  0.025 sec
     gradient                   ...        0 min,  0.083 sec
 * total energy  :  -102.6754025 Eh     change       -0.5075515E-04 Eh
   gradient norm :     0.0034864 Eh/α   predicted    -0.4262298E-04 ( -16.02%)
   displ. norm   :     0.1712933 α      lambda       -0.6366963E-04
   maximum displ.:     0.0998854 α      in ANC's #3, #13, #19, ...

........................................................................
.............................. CYCLE   33 ..............................
........................................................................

 iter      E             dE          RMSdq      gap      omega  full diag
   1   -103.9689582 -0.103969E+03  0.233E-02    1.47       0.0  T
   2   -103.9689591 -0.922947E-06  0.133E-02    1.47       1.0  T
   3   -103.9689591 -0.140408E-07  0.257E-03    1.47       4.8  T
   4   -103.9689592 -0.615893E-07  0.898E-04    1.47      13.7  T
   5   -103.9689592 -0.123240E-07  0.407E-04    1.47      30.2  T
     SCC iter.                  ...        0 min,  0.025 sec
     gradient                   ...        0 min,  0.078 sec
 * total energy  :  -102.6754335 Eh     change       -0.3094727E-04 Eh
   gradient norm :     0.0029913 Eh/α   predicted    -0.3278371E-04 (   5.93%)
   displ. norm   :     0.2667560 α      lambda       -0.4645764E-04
   maximum displ.:     0.1693998 α      in ANC's #3, #19, #5, ...

........................................................................
.............................. CYCLE   34 ..............................
........................................................................

 iter      E             dE          RMSdq      gap      omega  full diag
   1   -103.9676560 -0.103968E+03  0.284E-02    1.47       0.0  T
   2   -103.9676564 -0.422893E-06  0.167E-02    1.47       1.0  T
   3   -103.9676564  0.310692E-07  0.183E-03    1.47       6.7  T
   4   -103.9676565 -0.978657E-07  0.808E-04    1.47      15.2  T
   5   -103.9676565 -0.159623E-07  0.357E-04    1.47      34.5  T
     SCC iter.                  ...        0 min,  0.058 sec
     gradient                   ...        0 min,  0.095 sec
 * total energy  :  -102.6754623 Eh     change       -0.2880943E-04 Eh
   gradient norm :     0.0034843 Eh/α   predicted    -0.2488671E-04 ( -13.62%)
   displ. norm   :     0.0989505 α      lambda       -0.3935866E-04
   maximum displ.:     0.0619709 α      in ANC's #3, #19, #6, ...

........................................................................
.............................. CYCLE   35 ..............................
........................................................................

 iter      E             dE          RMSdq      gap      omega  full diag
   1   -103.9683343 -0.103968E+03  0.124E-02    1.47       0.0  T
   2   -103.9683345 -0.209509E-06  0.708E-03    1.47       1.7  T
   3   -103.9683344  0.113834E-06  0.207E-03    1.47       6.0  T
   4   -103.9683345 -0.146420E-06  0.753E-04    1.47      16.3  T
   5   -103.9683345 -0.176932E-07  0.295E-04    1.47      41.7  T
     SCC iter.                  ...        0 min,  0.025 sec
     gradient                   ...        0 min,  0.090 sec
 * total energy  :  -102.6754941 Eh     change       -0.3184482E-04 Eh
   gradient norm :     0.0027158 Eh/α   predicted    -0.1987404E-04 ( -37.59%)
   displ. norm   :     0.1830166 α      lambda       -0.5991272E-04
   maximum displ.:     0.1136596 α      in ANC's #3, #6, #19, ...

........................................................................
.............................. CYCLE   36 ..............................
........................................................................

 iter      E             dE          RMSdq      gap      omega  full diag
   1   -103.9689224 -0.103969E+03  0.230E-02    1.47       0.0  T
   2   -103.9689231 -0.698038E-06  0.132E-02    1.47       1.0  T
   3   -103.9689227  0.337005E-06  0.359E-03    1.47       3.4  T
   4   -103.9689232 -0.434228E-06  0.133E-03    1.47       9.3  T
   5   -103.9689232 -0.577970E-07  0.527E-04    1.47      23.3  T
   6   -103.9689232 -0.489972E-08  0.184E-04    1.47      67.1  T
     SCC iter.                  ...        0 min,  0.058 sec
     gradient                   ...        0 min,  0.060 sec
 * total energy  :  -102.6755324 Eh     change       -0.3833617E-04 Eh
   gradient norm :     0.0019496 Eh/α   predicted    -0.3096269E-04 ( -19.23%)
   displ. norm   :     0.2675439 α      lambda       -0.2280137E-04
   maximum displ.:     0.1799953 α      in ANC's #3, #19, #6, ...

........................................................................
.............................. CYCLE   37 ..............................
........................................................................

 iter      E             dE          RMSdq      gap      omega  full diag
   1   -103.9677106 -0.103968E+03  0.276E-02    1.47       0.0  T
   2   -103.9677111 -0.554674E-06  0.162E-02    1.47       1.0  T
   3   -103.9677110  0.121801E-06  0.249E-03    1.47       4.9  T
   4   -103.9677112 -0.213318E-06  0.995E-04    1.47      12.4  T
   5   -103.9677113 -0.282983E-07  0.429E-04    1.47      28.7  T
     SCC iter.                  ...        0 min,  0.025 sec
     gradient                   ...        0 min,  0.090 sec
 * total energy  :  -102.6755518 Eh     change       -0.1937447E-04 Eh
   gradient norm :     0.0033979 Eh/α   predicted    -0.1176425E-04 ( -39.28%)
   displ. norm   :     0.1099806 α      lambda       -0.3418728E-04
   maximum displ.:     0.0599913 α      in ANC's #3, #6, #8, ...

........................................................................
.............................. CYCLE   38 ..............................
........................................................................

 iter      E             dE          RMSdq      gap      omega  full diag
   1   -103.9684554 -0.103968E+03  0.154E-02    1.47       0.0  T
   2   -103.9684558 -0.354082E-06  0.891E-03    1.47       1.4  T
   3   -103.9684557  0.611057E-07  0.172E-03    1.47       7.2  T
   4   -103.9684558 -0.111905E-06  0.608E-04    1.47      20.3  T
   5   -103.9684559 -0.126827E-07  0.264E-04    1.47      46.6  T
     SCC iter.                  ...        0 min,  0.070 sec
     gradient                   ...        0 min,  0.094 sec
 * total energy  :  -102.6755733 Eh     change       -0.2143735E-04 Eh
   gradient norm :     0.0025615 Eh/α   predicted    -0.1730513E-04 ( -19.28%)
   displ. norm   :     0.1848552 α      lambda       -0.3642385E-04
   maximum displ.:     0.1251896 α      in ANC's #3, #6, #19, ...

........................................................................
.............................. CYCLE   39 ..............................
........................................................................

 iter      E             dE          RMSdq      gap      omega  full diag
   1   -103.9682284 -0.103968E+03  0.221E-02    1.47       0.0  T
   2   -103.9682287 -0.317946E-06  0.128E-02    1.47       1.0  T
   3   -103.9682287  0.267467E-07  0.179E-03    1.47       6.9  T
   4   -103.9682288 -0.873391E-07  0.862E-04    1.47      14.3  T
   5   -103.9682288 -0.217684E-07  0.341E-04    1.47      36.1  T
     SCC iter.                  ...        0 min,  0.025 sec
     gradient                   ...        0 min,  0.151 sec
 * total energy  :  -102.6756035 Eh     change       -0.3024574E-04 Eh
   gradient norm :     0.0020013 Eh/α   predicted    -0.1883640E-04 ( -37.72%)
   displ. norm   :     0.3179035 α      lambda       -0.5716692E-04
   maximum displ.:     0.2144668 α      in ANC's #3, #6, #19, ...

........................................................................
.............................. CYCLE   40 ..............................
........................................................................

 iter      E             dE          RMSdq      gap      omega  full diag
   1   -103.9675626 -0.103968E+03  0.404E-02    1.46       0.0  T
   2   -103.9675637 -0.114019E-05  0.231E-02    1.47       1.0  T
   3   -103.9675637 -0.247290E-08  0.350E-03    1.47       3.5  T
   4   -103.9675639 -0.181744E-06  0.175E-03    1.47       7.0  T
   5   -103.9675640 -0.889469E-07  0.686E-04    1.47      17.9  T
   6   -103.9675640 -0.168736E-07  0.176E-04    1.47      69.7  T
     SCC iter.                  ...        0 min,  0.030 sec
     gradient                   ...        0 min,  0.097 sec
 * total energy  :  -102.6756389 Eh     change       -0.3537451E-04 Eh
   gradient norm :     0.0024651 Eh/α   predicted    -0.3147645E-04 ( -11.02%)
   displ. norm   :     0.1058262 α      lambda       -0.2551627E-04
   maximum displ.:     0.0549738 α      in ANC's #3, #8, #6, ...

........................................................................
.............................. CYCLE   41 ..............................
........................................................................

 iter      E             dE          RMSdq      gap      omega  full diag
   1   -103.9685059 -0.103969E+03  0.175E-02    1.47       0.0  T
   2   -103.9685063 -0.346690E-06  0.967E-03    1.47       1.3  T
   3   -103.9685063  0.575535E-08  0.199E-03    1.47       6.2  T
   4   -103.9685063 -0.417523E-07  0.979E-04    1.47      12.6  T
   5   -103.9685064 -0.287077E-07  0.373E-04    1.47      33.0  T
     SCC iter.                  ...        0 min,  0.025 sec
     gradient                   ...        0 min,  0.102 sec
 * total energy  :  -102.6756568 Eh     change       -0.1795686E-04 Eh
   gradient norm :     0.0018746 Eh/α   predicted    -0.1290298E-04 ( -28.14%)
   displ. norm   :     0.3088587 α      lambda       -0.2623614E-04
   maximum displ.:     0.1958450 α      in ANC's #3, #6, #8, ...

........................................................................
.............................. CYCLE   42 ..............................
........................................................................

 iter      E             dE          RMSdq      gap      omega  full diag
   1   -103.9684341 -0.103968E+03  0.403E-02    1.46       0.0  T
   2   -103.9684351 -0.953006E-06  0.230E-02    1.46       1.0  T
   3   -103.9684351 -0.170382E-07  0.348E-03    1.46       3.5  T
   4   -103.9684352 -0.167858E-06  0.180E-03    1.46       6.9  T
   5   -103.9684353 -0.957856E-07  0.577E-04    1.46      21.3  T
   6   -103.9684353 -0.994858E-08  0.172E-04    1.46      71.4  T
     SCC iter.                  ...        0 min,  0.079 sec
     gradient                   ...        0 min,  0.098 sec
 * total energy  :  -102.6756816 Eh     change       -0.2474308E-04 Eh
   gradient norm :     0.0025996 Eh/α   predicted    -0.1367654E-04 ( -44.73%)
   displ. norm   :     0.0957112 α      lambda       -0.2582959E-04
   maximum displ.:     0.0480525 α      in ANC's #8, #3, #6, ...
 * RMSD in coord.:     0.4400857 α      energy gain  -0.7476629E-03 Eh

generating ANC from exact Hessian ...
Using Lindh-Hessian (1995)
 Shifting diagonal of input Hessian by    9.8746587886007035E-003
 Lowest  eigenvalues of input Hessian
    0.000000    0.000000    0.000000    0.000000    0.000000    0.000000
    0.010000    0.010043    0.010163    0.010368    0.010772    0.010985
    0.011084    0.011274    0.011878    0.012020    0.012419    0.012995
 Highest eigenvalues
    2.099554    2.205533    2.365976    2.437112    2.747820    3.526237


........................................................................
.............................. CYCLE   43 ..............................
........................................................................

 iter      E             dE          RMSdq      gap      omega  full diag
   1   -103.9694195 -0.103969E+03  0.150E-02    1.46       0.0  T
   2   -103.9694197 -0.219510E-06  0.854E-03    1.46       1.4  T
   3   -103.9694196  0.101393E-06  0.187E-03    1.46       6.6  T
   4   -103.9694198 -0.137777E-06  0.793E-04    1.46      15.5  T
   5   -103.9694198 -0.192466E-07  0.275E-04    1.46      44.7  T
     SCC iter.                  ...        0 min,  0.025 sec
     gradient                   ...        0 min,  0.105 sec
 * total energy  :  -102.6756983 Eh     change       -0.1675210E-04 Eh
   gradient norm :     0.0020504 Eh/α   predicted     0.0000000E+00 (-100.00%)
   displ. norm   :     0.0192013 α      lambda       -0.5796179E-05
   maximum displ.:     0.0071930 α      in ANC's #5, #19, #20, ...

........................................................................
.............................. CYCLE   44 ..............................
........................................................................

 iter      E             dE          RMSdq      gap      omega  full diag
   1   -103.9691575 -0.103969E+03  0.429E-03    1.46       0.0  T
   2   -103.9691576 -0.398909E-07  0.232E-03    1.46       5.3  T
   3   -103.9691576  0.119806E-07  0.825E-04    1.46      14.9  T
   4   -103.9691576 -0.164114E-07  0.356E-04    1.46      34.6  T
     SCC iter.                  ...        0 min,  0.020 sec
     gradient                   ...        0 min,  0.106 sec
 * total energy  :  -102.6757071 Eh     change       -0.8780900E-05 Eh
   gradient norm :     0.0014211 Eh/α   predicted    -0.5045149E-05 ( -42.54%)
   displ. norm   :     0.1330370 α      lambda       -0.3297919E-04
   maximum displ.:     0.0523488 α      in ANC's #5, #19, #7, ...

........................................................................
.............................. CYCLE   45 ..............................
........................................................................

 iter      E             dE          RMSdq      gap      omega  full diag
   1   -103.9681775 -0.103968E+03  0.256E-02    1.47       0.0  T
   2   -103.9681786 -0.112833E-05  0.138E-02    1.47       1.0  T
   3   -103.9681784  0.223942E-06  0.429E-03    1.47       2.9  T
   4   -103.9681787 -0.301292E-06  0.201E-03    1.47       6.1  T
   5   -103.9681788 -0.137810E-06  0.735E-04    1.47      16.7  T
   6   -103.9681788 -0.114627E-07  0.170E-04    1.47      72.3  T
     SCC iter.                  ...        0 min,  0.080 sec
     gradient                   ...        0 min,  0.093 sec
 * total energy  :  -102.6757276 Eh     change       -0.2047159E-04 Eh
   gradient norm :     0.0026664 Eh/α   predicted    -0.1661982E-04 ( -18.82%)
   displ. norm   :     0.0171354 α      lambda       -0.7495566E-05
   maximum displ.:     0.0074606 α      in ANC's #5, #19, #4, ...

........................................................................
.............................. CYCLE   46 ..............................
........................................................................

 iter      E             dE          RMSdq      gap      omega  full diag
   1   -103.9685751 -0.103969E+03  0.320E-03    1.47       0.0  T
   2   -103.9685751 -0.193896E-07  0.186E-03    1.47       6.6  T
   3   -103.9685751  0.109728E-07  0.559E-04    1.47      22.0  T
   4   -103.9685751 -0.141849E-07  0.160E-04    1.47      77.2  T
     SCC iter.                  ...        0 min,  0.021 sec
     gradient                   ...        0 min,  0.147 sec
 * total energy  :  -102.6757356 Eh     change       -0.7984968E-05 Eh
   gradient norm :     0.0018618 Eh/α   predicted    -0.4660169E-05 ( -41.64%)
   displ. norm   :     0.1300907 α      lambda       -0.2626808E-04
   maximum displ.:     0.0566290 α      in ANC's #5, #19, #4, ...

........................................................................
.............................. CYCLE   47 ..............................
........................................................................

 iter      E             dE          RMSdq      gap      omega  full diag
   1   -103.9698251 -0.103970E+03  0.189E-02    1.47       0.0  T
   2   -103.9698253 -0.296541E-06  0.111E-02    1.47       1.1  T
   3   -103.9698251  0.272980E-06  0.246E-03    1.47       5.0  T
   4   -103.9698254 -0.334144E-06  0.753E-04    1.47      16.3  T
   5   -103.9698254 -0.204376E-07  0.307E-04    1.47      40.1  T
     SCC iter.                  ...        0 min,  0.028 sec
     gradient                   ...        0 min,  0.105 sec
 * total energy  :  -102.6757535 Eh     change       -0.1794326E-04 Eh
   gradient norm :     0.0022021 Eh/α   predicted    -0.1334237E-04 ( -25.64%)
   displ. norm   :     0.0493865 α      lambda       -0.8802660E-05
   maximum displ.:     0.0215534 α      in ANC's #19, #5, #4, ...

........................................................................
.............................. CYCLE   48 ..............................
........................................................................

 iter      E             dE          RMSdq      gap      omega  full diag
   1   -103.9695367 -0.103970E+03  0.655E-03    1.47       0.0  T
   2   -103.9695367 -0.258262E-07  0.383E-03    1.47       3.2  T
   3   -103.9695367  0.197069E-07  0.737E-04    1.47      16.7  T
   4   -103.9695367 -0.260156E-07  0.270E-04    1.47      45.6  T
     SCC iter.                  ...        0 min,  0.021 sec
     gradient                   ...        0 min,  0.104 sec
 * total energy  :  -102.6757613 Eh     change       -0.7807266E-05 Eh
   gradient norm :     0.0018752 Eh/α   predicted    -0.4415844E-05 ( -43.44%)
   displ. norm   :     0.3053175 α      lambda       -0.3422693E-04
   maximum displ.:     0.1374442 α      in ANC's #19, #5, #4, ...

........................................................................
.............................. CYCLE   49 ..............................
........................................................................

 iter      E             dE          RMSdq      gap      omega  full diag
   1   -103.9672000 -0.103967E+03  0.397E-02    1.47       0.0  T
   2   -103.9672011 -0.105902E-05  0.234E-02    1.47       1.0  T
   3   -103.9672002  0.851709E-06  0.457E-03    1.47       2.7  T
   4   -103.9672013 -0.111391E-05  0.132E-03    1.47       9.3  T
   5   -103.9672014 -0.496286E-07  0.584E-04    1.47      21.1  T
   6   -103.9672014 -0.528891E-08  0.259E-04    1.47      47.5  T
     SCC iter.                  ...        0 min,  0.068 sec
     gradient                   ...        0 min,  0.108 sec
 * total energy  :  -102.6757716 Eh     change       -0.1030385E-04 Eh
   gradient norm :     0.0041283 Eh/α   predicted    -0.1782355E-04 (  72.98%)
   displ. norm   :     0.0741856 α      lambda       -0.2838389E-04
   maximum displ.:     0.0337815 α      in ANC's #19, #5, #18, ...

........................................................................
.............................. CYCLE   50 ..............................
........................................................................

 iter      E             dE          RMSdq      gap      omega  full diag
   1   -103.9683701 -0.103968E+03  0.117E-02    1.47       0.0  T
   2   -103.9683704 -0.241512E-06  0.665E-03    1.47       1.9  T
   3   -103.9683704 -0.525752E-08  0.137E-03    1.47       9.0  T
   4   -103.9683704 -0.148796E-07  0.559E-04    1.47      22.0  T
   5   -103.9683704 -0.717482E-08  0.253E-04    1.47      48.6  T
     SCC iter.                  ...        0 min,  0.025 sec
     gradient                   ...        0 min,  0.138 sec
 * total energy  :  -102.6757883 Eh     change       -0.1672523E-04 Eh
   gradient norm :     0.0018722 Eh/α   predicted    -0.1438121E-04 ( -14.01%)
   displ. norm   :     0.0452928 α      lambda       -0.9936759E-05
   maximum displ.:     0.0204256 α      in ANC's #4, #5, #19, ...

........................................................................
.............................. CYCLE   51 ..............................
........................................................................

 iter      E             dE          RMSdq      gap      omega  full diag
   1   -103.9691596 -0.103969E+03  0.816E-03    1.47       0.0  T
   2   -103.9691597 -0.913134E-07  0.455E-03    1.47       2.7  T
   3   -103.9691597 -0.284047E-08  0.962E-04    1.47      12.8  T
   4   -103.9691597 -0.495262E-08  0.433E-04    1.47      28.5  T
     SCC iter.                  ...        0 min,  0.077 sec
     gradient                   ...        0 min,  0.108 sec
 * total energy  :  -102.6757988 Eh     change       -0.1048965E-04 Eh
   gradient norm :     0.0005332 Eh/α   predicted    -0.4973374E-05 ( -52.59%)
   displ. norm   :     0.1449818 α      lambda       -0.1091662E-04
   maximum displ.:     0.0672774 α      in ANC's #19, #5, #4, ...

........................................................................
.............................. CYCLE   52 ..............................
........................................................................

 iter      E             dE          RMSdq      gap      omega  full diag
   1   -103.9692072 -0.103969E+03  0.193E-02    1.47       0.0  T
   2   -103.9692073 -0.115188E-06  0.114E-02    1.47       1.1  T
   3   -103.9692072  0.455947E-07  0.144E-03    1.47       8.5  T
   4   -103.9692073 -0.746760E-07  0.644E-04    1.47      19.1  T
   5   -103.9692073 -0.926865E-08  0.195E-04    1.47      63.1  T
     SCC iter.                  ...        0 min,  0.025 sec
     gradient                   ...        0 min,  0.155 sec
 * total energy  :  -102.6758115 Eh     change       -0.1266505E-04 Eh
   gradient norm :     0.0009093 Eh/α   predicted    -0.5515941E-05 ( -56.45%)
   displ. norm   :     0.2153540 α      lambda       -0.1151103E-04
   maximum displ.:     0.1016136 α      in ANC's #19, #4, #5, ...

........................................................................
.............................. CYCLE   53 ..............................
........................................................................

 iter      E             dE          RMSdq      gap      omega  full diag
   1   -103.9684882 -0.103968E+03  0.283E-02    1.47       0.0  T
   2   -103.9684885 -0.265290E-06  0.167E-02    1.47       1.0  T
   3   -103.9684883  0.139605E-06  0.205E-03    1.47       6.0  T
   4   -103.9684885 -0.211548E-06  0.788E-04    1.47      15.6  T
   5   -103.9684885 -0.146856E-07  0.301E-04    1.47      40.9  T
     SCC iter.                  ...        0 min,  0.025 sec
     gradient                   ...        0 min,  0.159 sec
 * total energy  :  -102.6758197 Eh     change       -0.8246844E-05 Eh
   gradient norm :     0.0023504 Eh/α   predicted    -0.5876229E-05 ( -28.75%)
   displ. norm   :     0.0244786 α      lambda       -0.8670723E-05
   maximum displ.:     0.0104172 α      in ANC's #4, #3, #7, ...

........................................................................
.............................. CYCLE   54 ..............................
........................................................................

 iter      E             dE          RMSdq      gap      omega  full diag
   1   -103.9688161 -0.103969E+03  0.415E-03    1.47       0.0  T
   2   -103.9688161 -0.434853E-07  0.239E-03    1.47       5.1  T
   3   -103.9688161  0.294440E-08  0.551E-04    1.47      22.3  T
   4   -103.9688161 -0.523225E-08  0.201E-04    1.47      61.3  T
     SCC iter.                  ...        0 min,  0.020 sec
     gradient                   ...        0 min,  0.161 sec
 * total energy  :  -102.6758265 Eh     change       -0.6765946E-05 Eh
   gradient norm :     0.0014635 Eh/α   predicted    -0.4338306E-05 ( -35.88%)
   displ. norm   :     0.1650450 α      lambda       -0.1399411E-04
   maximum displ.:     0.0775687 α      in ANC's #4, #19, #3, ...

........................................................................
.............................. CYCLE   55 ..............................
........................................................................

 iter      E             dE          RMSdq      gap      omega  full diag
   1   -103.9691551 -0.103969E+03  0.221E-02    1.47       0.0  T
   2   -103.9691553 -0.216052E-06  0.130E-02    1.47       1.0  T
   3   -103.9691552  0.737780E-07  0.156E-03    1.47       7.9  T
   4   -103.9691553 -0.107680E-06  0.680E-04    1.46      18.1  T
   5   -103.9691553 -0.198981E-07  0.280E-04    1.47      43.9  T
     SCC iter.                  ...        0 min,  0.025 sec
     gradient                   ...        0 min,  0.162 sec
 * total energy  :  -102.6758398 Eh     change       -0.1333425E-04 Eh
   gradient norm :     0.0008830 Eh/α   predicted    -0.7085487E-05 ( -46.86%)
   displ. norm   :     0.2213608 α      lambda       -0.9125351E-05
   maximum displ.:     0.1021459 α      in ANC's #19, #4, #3, ...

........................................................................
.............................. CYCLE   56 ..............................
........................................................................

 iter      E             dE          RMSdq      gap      omega  full diag
   1   -103.9681374 -0.103968E+03  0.291E-02    1.46       0.0  T
   2   -103.9681378 -0.349673E-06  0.173E-02    1.46       1.0  T
   3   -103.9681377  0.199377E-07  0.160E-03    1.46       7.7  T
   4   -103.9681378 -0.906944E-07  0.743E-04    1.46      16.6  T
   5   -103.9681379 -0.161642E-07  0.341E-04    1.46      36.1  T
     SCC iter.                  ...        0 min,  0.076 sec
     gradient                   ...        0 min,  0.109 sec
 * total energy  :  -102.6758426 Eh     change       -0.2769594E-05 Eh
   gradient norm :     0.0021590 Eh/α   predicted    -0.4666459E-05 (  68.49%)
   displ. norm   :     0.0525205 α      lambda       -0.9996988E-05
   maximum displ.:     0.0250486 α      in ANC's #5, #19, #4, ...

........................................................................
.............................. CYCLE   57 ..............................
........................................................................

 iter      E             dE          RMSdq      gap      omega  full diag
   1   -103.9688811 -0.103969E+03  0.807E-03    1.46       0.0  T
   2   -103.9688812 -0.933443E-07  0.464E-03    1.46       2.7  T
   3   -103.9688811  0.211357E-07  0.976E-04    1.46      12.6  T
   4   -103.9688812 -0.272192E-07  0.386E-04    1.46      31.9  T
     SCC iter.                  ...        0 min,  0.020 sec
     gradient                   ...        0 min,  0.164 sec
 * total energy  :  -102.6758487 Eh     change       -0.6086809E-05 Eh
   gradient norm :     0.0007542 Eh/α   predicted    -0.5015392E-05 ( -17.60%)
   displ. norm   :     0.0400891 α      lambda       -0.2907866E-05
   maximum displ.:     0.0166037 α      in ANC's #7, #1, #3, ...

........................................................................
.............................. CYCLE   58 ..............................
........................................................................

 iter      E             dE          RMSdq      gap      omega  full diag
   1   -103.9691590 -0.103969E+03  0.603E-03    1.46       0.0  T
   2   -103.9691591 -0.537979E-07  0.338E-03    1.46       3.6  T
   3   -103.9691591  0.736327E-08  0.844E-04    1.46      14.6  T
   4   -103.9691591 -0.121814E-07  0.364E-04    1.46      33.8  T
     SCC iter.                  ...        0 min,  0.071 sec
     gradient                   ...        0 min,  0.103 sec
 * total energy  :  -102.6758515 Eh     change       -0.2800681E-05 Eh
   gradient norm :     0.0005342 Eh/α   predicted    -0.1456029E-05 ( -48.01%)
   displ. norm   :     0.0629773 α      lambda       -0.2214940E-05
   maximum displ.:     0.0257494 α      in ANC's #19, #1, #4, ...

   *** GEOMETRY OPTIMIZATION CONVERGED AFTER 58 ITERATIONS ***

------------------------------------------------------------------------
 total energy gain   :        -0.0226003 Eh      -14.1819 kcal/mol
 total RMSD          :         0.8821618 a0        0.4668 Å
 total power (kW/mol):        -1.0230536 (step)   -6.4003 (real)
------------------------------------------------------------------------

 ANCopt (total)                0 d,  0 h,  0 min,  9.271 sec
 optimizer setup                ...        0 min,  0.000 sec (  0.001%)
 model hessian                  ...        0 min,  0.135 sec (  1.458%)
 ANC generation                 ...        0 min,  0.011 sec (  0.121%)
 coordinate transformation      ...        0 min,  0.001 sec (  0.015%)
 single point calculation       ...        0 min,  9.066 sec ( 97.792%)
 optimization log               ...        0 min,  0.012 sec (  0.127%)
 hessian update                 ...        0 min,  0.002 sec (  0.017%)
 rational function              ...        0 min,  0.007 sec (  0.072%)

================
 final structure:
================
66
 xtb: 6.7.1 (edcfbbe)
C           -3.30736331966797        2.36226422620542       -4.02908723752320
C           -4.78520009302862        1.99861166096610       -3.94824093535974
C           -5.07726484508086        0.88543347302330       -2.93102933103650
C           -4.78296256113132        1.30396374883863       -1.53570401146963
N           -5.62461661849844        1.89757077351851       -0.71593735918804
C           -4.97943264109908        2.11759000753682        0.45246718914216
C           -5.61965884659003        2.77609856800676        1.61623274127110
C           -3.68350183022709        1.64033031855425        0.35665164248172
N           -3.58962518225386        1.12997522106981       -0.92787188378511
N           -2.42655459679073        0.57568739217133       -1.37757907112174
C           -1.37306125390862        0.51063555493467       -0.52221454981351
C           -0.12047556429300       -0.09310513088397       -1.00894013029361
C           -0.01413724052927       -0.92719924313209       -2.14155613326369
C            1.22176121938305       -1.48826847208899       -2.46206283285207
C            2.33827365273023       -1.22807243875490       -1.69025349354676
C            2.23559065263828       -0.39300784952796       -0.59507528489950
S            3.70193123595614       -0.08503484563990        0.38875707767254
O            4.84895125162476       -0.24835330965076       -0.45712468137788
N            3.62999519467168       -1.42168892003699        1.40094130061360
C            2.72548416105269       -1.28212784925972        2.52423855008121
C            3.34602341635464       -0.48222320802928        3.66913213268188
N            4.60869717664686       -1.08563435016125        4.07109694946839
C            5.51747919648408       -1.10733862706217        2.93738222189079
C            4.91479087144153       -1.94814521720014        1.81448276628978
C            5.19579752441417       -0.41629511173708        5.22164607829264
[...]
          omp threads                :                     1


           -------------------------------------------------
          |                 G F N 2 - x T B                 |
           -------------------------------------------------

        Reference                      10.1021/acs.jctc.8b01176
      * Hamiltonian:
        H0-scaling (s, p, d)           1.850000    2.230000    2.230000
        zeta-weighting                 0.500000
      * Dispersion:
        s8                             2.700000
        a1                             0.520000
        a2                             5.000000
        s9                             5.000000
      * Repulsion:
        kExp                           1.500000    1.000000
        rExp                           1.000000
      * Coulomb:
        alpha                          2.000000
        third order                    shell-resolved
        anisotropic                    true
        a3                             3.000000
        a5                             4.000000
        cn-shift                       1.200000
        cn-exp                         4.000000
        max-rad                        5.000000


          ...................................................
          :                      SETUP                      :
          :.................................................:
          :  # basis functions                 174          :
          :  # atomic orbitals                 173          :
          :  # shells                          101          :
          :  # electrons                       184          :
          :  max. iterations                   250          :
          :  Hamiltonian                  GFN2-xTB          :
          :  restarted?                      false          :
          :  GBSA solvation                  false          :
          :  PC potential                    false          :
          :  electronic temp.          300.0000000     K    :
          :  accuracy                    1.0000000          :
          :  -> integral cutoff          0.2500000E+02      :
          :  -> integral neglect         0.1000000E-07      :
          :  -> SCF convergence          0.1000000E-05 Eh   :
          :  -> wf. convergence          0.1000000E-03 e    :
          :  Broyden damping             0.4000000          :
          :  net charge                          0          :
          :  unpaired electrons                  2          :
          ...................................................

 iter      E             dE          RMSdq      gap      omega  full diag
   1   -103.5434019 -0.103543E+03  0.407E+00    0.76       0.0  T
   2   -103.7561475 -0.212746E+00  0.275E+00    0.50       1.0  T
   3   -103.6673441  0.888034E-01  0.188E+00    0.67       1.0  T
   4   -103.7056211 -0.382770E-01  0.143E+00    0.48       1.0  T
   5   -103.8040482 -0.984271E-01  0.888E-01    0.94       1.0  T
   6   -103.8266075 -0.225593E-01  0.704E-01    0.67       1.0  T
   7   -103.8549767 -0.283692E-01  0.444E-01    0.83       1.0  T
   8   -103.8743312 -0.193545E-01  0.236E-01    0.72       1.0  T
   9   -103.7619517  0.112379E+00  0.808E-01    0.71       1.0  T
  10   -103.8630975 -0.101146E+00  0.327E-01    0.73       1.0  T
  11   -103.8714365 -0.833899E-02  0.211E-01    0.72       1.0  T
  12   -103.8436343  0.278022E-01  0.440E-01    0.72       1.0  T
  13   -103.8766704 -0.330360E-01  0.944E-02    0.73       1.0  T
  14   -103.8778946 -0.122421E-02  0.536E-02    0.72       1.0  T
  15   -103.8780569 -0.162361E-03  0.464E-02    0.73       1.0  T
  16   -103.8783369 -0.280020E-03  0.261E-02    0.73       1.0  T
  17   -103.8784116 -0.747002E-04  0.159E-02    0.72       1.0  T
  18   -103.8784588 -0.472053E-04  0.210E-03    0.73       5.8  T
  19   -103.8784578  0.104331E-05  0.304E-03    0.73       4.0  T
  20   -103.8784587 -0.895333E-06  0.222E-03    0.73       5.5  T
  21   -103.8784595 -0.785295E-06  0.741E-04    0.73      16.6  T
  22   -103.8784596 -0.101599E-06  0.158E-04    0.73      78.0  T

   *** convergence criteria satisfied after 22 iterations ***

         #    Occupation            Energy/Eh            Energy/eV
      -------------------------------------------------------------
         1        2.0000           -0.7658136             -20.8388
       ...           ...                  ...                  ...
        87        2.0000           -0.3995406             -10.8721
        88        2.0000           -0.3968743             -10.7995
        89        2.0000           -0.3899438             -10.6109
        90        1.9601           -0.3805606             -10.3556
        91        1.7517           -0.3785900             -10.3020
        92        1.2882           -0.3766790             -10.2500
        93        1.0000           -0.2677043              -7.2846 (HOMO)
        94        0.0000           -0.2410453              -6.5592 (LUMO)
        95                         -0.2294775              -6.2444
        96                         -0.2049599              -5.5772
        97                         -0.1776799              -4.8349
        98                         -0.1219945              -3.3196
       ...                                ...                  ...
       173                          1.2456847              33.8968
      -------------------------------------------------------------
                  HL-Gap            0.0266590 Eh            0.7254 eV
             Fermi-level           -0.3159563 Eh           -8.5976 eV

 transition dipole moment (au) for excitation:          92          93
     X       Y       Z   
   0.1550   0.0109   0.0014  total (au/Debye):    0.155   0.395
 dE (eV)             :    2.965
 oscillator strength :  0.24821E-02

 SCC (total)                   0 d,  0 h,  0 min,  0.322 sec
 SCC setup                      ...        0 min,  0.001 sec (  0.230%)
 Dispersion                     ...        0 min,  0.001 sec (  0.337%)
 classical contributions        ...        0 min,  0.000 sec (  0.106%)
 integral evaluation            ...        0 min,  0.015 sec (  4.810%)
 iterations                     ...        0 min,  0.190 sec ( 58.882%)
 molecular gradient             ...        0 min,  0.101 sec ( 31.430%)
 printout                       ...        0 min,  0.014 sec (  4.204%)

         :::::::::::::::::::::::::::::::::::::::::::::::::::::
         ::                     SUMMARY                     ::
         :::::::::::::::::::::::::::::::::::::::::::::::::::::
         :: total energy            -102.585151992380 Eh    ::
         :: gradient norm              0.133776627819 Eh/a0 ::
         :: HOMO-LUMO gap              0.725427983606 eV    ::
         ::.................................................::
         :: SCC energy              -103.878009961559 Eh    ::
         :: -> isotropic ES            0.133992459616 Eh    ::
         :: -> anisotropic ES          0.000741669542 Eh    ::
         :: -> anisotropic XC          0.040455589781 Eh    ::
         :: -> dispersion             -0.077800826851 Eh    ::
         :: repulsion energy           1.292857969180 Eh    ::
         :: add. restraining           0.000000000000 Eh    ::
         :: total charge              -0.000000000004 e     ::
         :::::::::::::::::::::::::::::::::::::::::::::::::::::

           -------------------------------------------------
          |                Property Printout                |
           -------------------------------------------------

    * Orbital Energies and Occupations

         #    Occupation            Energy/Eh            Energy/eV
      -------------------------------------------------------------
         1        2.0000           -0.7658136             -20.8388
       ...           ...                  ...                  ...
        81        2.0000           -0.4332721             -11.7899
        82        2.0000           -0.4269298             -11.6174
        83        2.0000           -0.4118656             -11.2074
        84        2.0000           -0.4060006             -11.0478
        85        2.0000           -0.4051037             -11.0234
        86        2.0000           -0.4048357             -11.0161
        87        2.0000           -0.3995406             -10.8721
        88        2.0000           -0.3968743             -10.7995
        89        2.0000           -0.3899438             -10.6109
        90        1.9601           -0.3805606             -10.3556
        91        1.7517           -0.3785900             -10.3020
        92        1.2882           -0.3766790             -10.2500
        93        1.0000           -0.2677043              -7.2846 (HOMO)
        94        0.0000           -0.2410453              -6.5592 (LUMO)
        95                         -0.2294775              -6.2444
        96                         -0.2049599              -5.5772
        97                         -0.1776799              -4.8349
        98                         -0.1219945              -3.3196
        99                         -0.1185575              -3.2261
       100                         -0.0938698              -2.5543
       101                         -0.0705436              -1.9196
       102                         -0.0597670              -1.6263
       103                         -0.0440505              -1.1987
       104                         -0.0357391              -0.9725
       ...                                ...                  ...
       173                          1.2456847              33.8968
      -------------------------------------------------------------
                  HL-Gap            0.0266590 Eh            0.7254 eV
             Fermi-level           -0.3159563 Eh           -8.5976 eV

     #   Z          covCN         q      C6AA      α(0)
     1   6 C        3.751    -0.104    22.550     6.772
     2   6 C        3.801    -0.054    21.552     6.610
     3   6 C        3.804    -0.068    21.802     6.647
     4   6 C        3.127     0.105    25.494     8.267
     5   7 N        1.927    -0.268    27.794     7.817
     6   6 C        3.148     0.076    26.053     8.350
     7   6 C        3.755    -0.116    22.769     6.804
     8   6 C        3.063    -0.014    28.301     8.724
     9   7 N        2.949     0.054    20.290     6.690
    10   7 N        2.769    -0.113    23.465     7.194
    11   6 C        2.856     0.123    25.291     8.243
    12   6 C        2.980    -0.039    28.965     8.828
    13   6 C        2.856     0.125    25.245     8.235
    14   6 C        2.918    -0.068    29.683     8.934
    15   6 C        2.963    -0.053    29.322     8.882
    16   6 C        2.965    -0.101    30.534     9.064
    17  16 S        3.887     1.097   103.899    17.156
    18   8 O        0.860    -0.563    25.218     6.733
    19   7 N        2.732    -0.279    27.209     7.747
    20   6 C        3.856     0.002    20.509     6.441
    21   6 C        3.768    -0.007    20.743     6.491
    22   7 N        2.730    -0.133    23.872     7.257
    23   6 C        3.769    -0.001    20.637     6.474
    24   6 C        3.853     0.003    20.499     6.439
    25   6 C        3.757     0.005    20.540     6.462
    26   6 C        3.752    -0.114    22.746     6.801
    27   8 O        0.860    -0.569    25.370     6.753
    28   6 C        2.962    -0.043    29.069     8.844
    29   8 O        1.704    -0.292    18.855     5.863
    30   6 C        3.686     0.084    19.378     6.302
    31   6 C        3.751    -0.113    22.717     6.797
    32   7 N        1.844    -0.241    27.150     7.722
    33   6 C        2.777     0.267    22.503     7.770
    34   8 O        0.859    -0.381    21.309     6.189
    35   1 H        0.925     0.032     2.557     2.501
    36   1 H        0.925     0.037     2.485     2.465
    37   1 H        0.925     0.042     2.423     2.434
    38   1 H        0.924     0.049     2.335     2.390
    39   1 H        0.924     0.039     2.459     2.452
    40   1 H        0.924     0.066     2.130     2.282
    41   1 H        0.924     0.040     2.450     2.448
    42   1 H        0.925     0.073     2.053     2.240
    43   1 H        0.925     0.066     2.133     2.284
    44   1 H        0.925     0.064     2.148     2.292
    45   1 H        0.860     0.211     1.051     1.606
    46   1 H        0.926     0.040     2.452     2.449
    47   1 H        0.926     0.047     2.352     2.398
    48   1 H        0.925     0.059     2.212     2.326
    49   1 H        0.924     0.063     2.166     2.302
    50   1 H        0.923     0.058     2.226     2.333
    51   1 H        0.924     0.060     2.204     2.322
    52   1 H        0.924     0.050     2.323     2.383
    53   1 H        0.922     0.038     2.475     2.460
    54   1 H        0.924     0.062     2.176     2.307
    55   1 H        0.925     0.072     2.064     2.247
    56   1 H        0.923     0.031     2.577     2.510
    57   1 H        0.924     0.044     2.392     2.418
    58   1 H        0.925     0.054     2.272     2.357
    59   1 H        0.925     0.049     2.328     2.386
    60   1 H        0.925     0.046     2.366     2.405
    61   1 H        0.926     0.068     2.106     2.269
    62   1 H        0.924     0.037     2.493     2.469
    63   1 H        0.924     0.038     2.479     2.462
    64   1 H        0.925     0.054     2.267     2.354
    65   1 H        0.925     0.051     2.304     2.374
    66   1 H        0.925     0.053     2.288     2.365

 Mol. C6AA /au·bohr⁶  :      48253.287377
 Mol. C8AA /au·bohr⁸  :    1143587.442584
 Mol. α(0) /au        :        335.593543


Wiberg/Mayer (AO) data.
largest (>0.10) Wiberg bond orders for each atom

 ---------------------------------------------------------------------------
     #   Z sym  total        # sym  WBO       # sym  WBO       # sym  WBO
 ---------------------------------------------------------------------------
     1   6 C    3.996 --     2 C    1.021    36 H    0.987    37 H    0.986
                            35 H    0.985
     2   6 C    3.991 --     1 C    1.021     3 C    0.984    38 H    0.978
                            39 H    0.977
     3   6 C    3.993 --     4 C    1.018     2 C    0.984    40 H    0.966
                            41 H    0.966
     4   6 C    3.929 --     5 N    1.425     9 N    1.243     3 C    1.018
     5   7 N    3.039 --     4 C    1.425     6 C    1.298
     6   6 C    3.927 --     8 C    1.408     5 N    1.298     7 C    1.038
     7   6 C    3.988 --     6 C    1.038    42 H    0.976    43 H    0.965
                            44 H    0.963
     8   6 C    3.840 --     6 C    1.408     9 N    1.124    33 C    0.993
     9   7 N    3.636 --     4 C    1.243     8 C    1.124    10 N    1.034
    10   7 N    3.367 --    11 C    1.122     9 N    1.034    45 H    0.895
    11   6 C    3.905 --    32 N    1.397    12 C    1.140    10 N    1.122
    12   6 C    3.945 --    28 C    1.304    13 C    1.233    11 C    1.140
    13   6 C    3.908 --    14 C    1.419    12 C    1.233    29 O    1.044
    14   6 C    3.972 --    13 C    1.419    15 C    1.388    46 H    0.964
    15   6 C    3.914 --    14 C    1.388    16 C    1.364    47 H    0.967
    16   6 C    3.952 --    28 C    1.461    15 C    1.364    17 S    0.751
    17  16 S    4.973 --    18 O    1.636    27 O    1.607    19 N    0.892
                            16 C    0.751
    18   8 O    1.930 --    17 S    1.636    27 O    0.108
    19   7 N    3.180 --    20 C    0.997    24 C    0.994    17 S    0.892
    20   6 C    3.966 --    19 N    0.997    21 C    0.989    48 H    0.968
                            49 H    0.964
    21   6 C    3.967 --    22 N    1.006    20 C    0.989    51 H    0.967
                            50 H    0.946
    22   7 N    3.098 --    23 C    1.009    21 C    1.006    25 C    0.993
    23   6 C    3.973 --    22 N    1.009    24 C    0.988    52 H    0.970
                            53 H    0.954
    24   6 C    3.964 --    19 N    0.994    23 C    0.988    55 H    0.966
                            54 H    0.965
    25   6 C    3.972 --    26 C    1.015    22 N    0.993    57 H    0.972
                            56 H    0.959
    26   6 C    3.991 --    25 C    1.015    58 H    0.986    59 H    0.985
                            60 H    0.984
    27   8 O    1.918 --    17 S    1.607    18 O    0.108
    28   6 C    3.970 --    16 C    1.461    12 C    1.304    61 H    0.956
    29   8 O    2.220 --    13 C    1.044    30 C    0.956
    30   6 C    3.943 --    31 C    1.016    63 H    0.969    62 H    0.968
                            29 O    0.956
    31   6 C    3.992 --    30 C    1.016    64 H    0.985    65 H    0.985
                            66 H    0.984
    32   7 N    3.038 --    11 C    1.397    33 C    1.169    34 O    0.200
    33   6 C    3.901 --    34 O    1.586    32 N    1.169     8 C    0.993
    34   8 O    2.003 --    33 C    1.586    32 N    0.200
    35   1 H    0.999 --     1 C    0.985
    36   1 H    0.999 --     1 C    0.987
    37   1 H    0.998 --     1 C    0.986
    38   1 H    0.998 --     2 C    0.978
    39   1 H    0.997 --     2 C    0.977
    40   1 H    0.994 --     3 C    0.966
    41   1 H    0.998 --     3 C    0.966
    42   1 H    0.993 --     7 C    0.976
    43   1 H    0.990 --     7 C    0.965
    44   1 H    0.991 --     7 C    0.963
    45   1 H    0.954 --    10 N    0.895
    46   1 H    0.997 --    14 C    0.964
    47   1 H    0.997 --    15 C    0.967
    48   1 H    0.996 --    20 C    0.968
    49   1 H    0.991 --    20 C    0.964
    50   1 H    0.976 --    21 C    0.946
    51   1 H    0.996 --    21 C    0.967
    52   1 H    0.997 --    23 C    0.970
    53   1 H    0.981 --    23 C    0.954
    54   1 H    0.992 --    24 C    0.965
    55   1 H    0.994 --    24 C    0.966
    56   1 H    0.984 --    25 C    0.959
    57   1 H    0.997 --    25 C    0.972
    58   1 H    0.996 --    26 C    0.986
    59   1 H    0.997 --    26 C    0.985
    60   1 H    0.998 --    26 C    0.984
    61   1 H    0.994 --    28 C    0.956
    62   1 H    0.998 --    30 C    0.968
    63   1 H    0.998 --    30 C    0.969
    64   1 H    0.997 --    31 C    0.985
    65   1 H    0.997 --    31 C    0.985
    66   1 H    0.997 --    31 C    0.984
 ---------------------------------------------------------------------------

Topologies differ in total number of bonds
Writing topology from bond orders to xtbtopo.mol

molecular dipole:
                 x           y           z       tot (Debye)
 q only:       -0.521      -2.215      -0.585
   full:       -0.104      -2.317      -1.011       6.430
molecular quadrupole (traceless):
                xx          xy          yy          xz          yz          zz
 q only:       -9.270     -11.888     -13.776      43.827      -7.073      23.046
  q+dip:      -12.795      -6.070     -10.318      45.457      -4.358      23.113
   full:      -13.749      -4.611      -9.991      45.457      -5.823      23.740


           -------------------------------------------------
          | TOTAL ENERGY             -102.585151992380 Eh   |
          | GRADIENT NORM               0.133776627819 Eh/α |
          | HOMO-LUMO GAP               0.725427983606 eV   |
           -------------------------------------------------

------------------------------------------------------------------------
 * finished run on 2025/05/15 at 16:34:41.728     
------------------------------------------------------------------------
 total:
 * wall-time:     0 d,  0 h,  0 min,  0.344 sec
 *  cpu-time:     0 d,  0 h,  0 min,  0.221 sec
 * ratio c/w:     0.642 speedup
 SCF:
 * wall-time:     0 d,  0 h,  0 min,  0.323 sec
 *  cpu-time:     0 d,  0 h,  0 min,  0.201 sec
 * ratio c/w:     0.624 speedup


