66
 energy: -102.675851509238 gnorm: 0.000532622493 xtb: 6.7.1 (edcfbbe)
C           -3.30736331966797        2.36226422620542       -4.02908723752320
C           -4.78520009302862        1.99861166096610       -3.94824093535974
C           -5.07726484508086        0.88543347302330       -2.93102933103650
C           -4.78296256113132        1.30396374883863       -1.53570401146963
N           -5.62461661849844        1.89757077351851       -0.71593735918804
C           -4.97943264109908        2.11759000753682        0.45246718914216
C           -5.61965884659003        2.77609856800676        1.61623274127110
C           -3.68350183022709        1.64033031855425        0.35665164248172
N           -3.58962518225386        1.12997522106981       -0.92787188378511
N           -2.42655459679073        0.57568739217133       -1.37757907112174
C           -1.37306125390862        0.51063555493467       -0.52221454981351
C           -0.12047556429300       -0.09310513088397       -1.00894013029361
C           -0.01413724052927       -0.92719924313209       -2.14155613326369
C            1.22176121938305       -1.48826847208899       -2.46206283285207
C            2.33827365273023       -1.22807243875490       -1.69025349354676
C            2.23559065263828       -0.39300784952796       -0.59507528489950
S            3.70193123595614       -0.08503484563990        0.38875707767254
O            4.84895125162476       -0.24835330965076       -0.45712468137788
N            3.62999519467168       -1.42168892003699        1.40094130061360
C            2.72548416105269       -1.28212784925972        2.52423855008121
C            3.34602341635464       -0.48222320802928        3.66913213268188
N            4.60869717664686       -1.08563435016125        4.07109694946839
C            5.51747919648408       -1.10733862706217        2.93738222189079
C            4.91479087144153       -1.94814521720014        1.81448276628978
C            5.19579752441417       -0.41629511173708        5.22164607829264
C            4.43641317835622       -0.72116955433866        6.50805278419708
O            3.53629635621358        1.16341559384773        1.07581208373278
C            1.02514061891120        0.16882821054039       -0.25871252454207
O           -1.13670417410159       -1.15080106460436       -2.87928138420911
C           -1.10116539246962       -2.05378674423755       -3.97782482466587
C           -2.50917647435332       -2.13455130951008       -4.54725770014594
N           -1.39883350891895        0.95638670267752        0.68275859472036
C           -2.53222740751409        1.54510348549420        1.24418087865388
O           -2.52822947989708        1.93024844989923        2.39256630161111
H           -2.70457311090667        1.49779160649606       -4.30571934632966
H           -2.94819637522692        2.75123791995339       -3.07906937102610
H           -3.15364077586412        3.13141011790015       -4.78211135639264
H           -5.36076111517960        2.88104580274549       -3.66687156530201
H           -5.13132084924230        1.66946004312349       -4.93020892629823
H           -6.13765881514955        0.63590654117355       -2.98072114825147
H           -4.49948603555930       -0.00910084154950       -3.18146569981313
H           -4.94469059821381        2.73973916358939        2.46616829849404
H           -6.55480188498966        2.27630609484257        1.85961325818907
H           -5.84780227897806        3.81405928608919        1.37911857607329
H           -2.41135223345874        0.15806700211463       -2.29855260225082
H            1.32017954547431       -2.13125791540902       -3.32132105224882
H            3.29920385436215       -1.64990744157789       -1.93540317369563
H            1.81809594115876       -0.79259878191037        2.17086566959298
H            2.47959078903064       -2.29125465700979        2.86922165428464
H            3.48538096266723        0.56001960770111        3.33928972702106
H            2.66044858332019       -0.49693767140115        4.51673375481350
H            6.46524874729172       -1.54920382396740        3.25451728997152
H            5.71185796748367       -0.09208849091014        2.54607164364843
H            4.76013533279390       -2.97543907723232        2.15611729995680
H            5.56448671440766       -1.94041350296476        0.93979443704976
H            5.25165726171183        0.67535079242161        5.06844356922080
H            6.21737588678785       -0.79228417026959        5.32472202179606
H            4.27775455625172       -1.79261855064622        6.59427341266883
H            5.01563674487973       -0.38103101962217        7.36280318206087
H            3.47226351459262       -0.22144851799224        6.53261330216124
H            0.94034662611870        0.83247423345464        0.58703820541640
H           -0.40362873919682       -1.68663882224860       -4.74066003250214
H           -0.77338579722629       -3.04233357709034       -3.63539985401806
H           -3.20576798186507       -2.46427849865950       -3.78030724877087
H           -2.82566719546703       -1.16377816802683       -4.92133685383099
H           -2.52966391831261       -2.84549482453771       -5.36750299540272
