42
 energy: -62.291994030100 gnorm: 0.000680644295 xtb: 6.7.1 (edcfbbe)
C           -3.81838007967269        1.78612371046860        0.83254717825782
C           -3.84031535207394        0.27655779279304        0.58145244497101
C           -3.04157089655948       -0.07555297716800       -0.64207127830722
C           -3.63778265093009       -0.30710194712013       -1.86699244972317
C           -2.89317013064982       -0.59792419516055       -3.01274915300863
C           -1.51982150429078       -0.66643218332427       -2.97682046229060
C           -0.87948973970179       -0.43997596842243       -1.75884328634236
C           -1.64925744550566       -0.14544325289953       -0.60608581091599
N           -0.78646432727102        0.03228272663041        0.44202013664818
C            0.49586882887016       -0.15289497859984       -0.00780336535255
C            0.48413301994427       -0.43072517883135       -1.34428952465666
C            1.75040915221949       -0.66184308398248       -2.09779739706337
C            2.88629329704633       -0.04878443803398       -1.27050222391627
O            2.86081711391555       -0.46771745433653        0.07925571747707
C            1.72878228472662       -0.06441763933556        0.83575965959768
C            1.65126359306500       -1.01547003570855        2.04399268658286
C            1.42354302932525       -2.45929258806203        1.61331386260622
C            1.89510244968591        1.41227860355964        1.32621476875034
C            3.25791043574217        1.59180080349054        1.93926051093201
O            4.12768047286313        2.11202120054183        1.06779573898197
O            3.56289863418818        1.30062646417825        3.06465413360205
H           -4.38903799085238        2.03413426901406        1.72498232933476
H           -2.79839070607080        2.14234408632022        0.96129700474151
H           -4.25408381248310        2.31077496354121       -0.01444404992909
H           -4.87346417890991       -0.04814426331395        0.44632456202891
H           -3.43762924410461       -0.24555273754609        1.45384622569163
H           -4.71510030276576       -0.26465646680764       -1.94057621373798
H           -3.41523447740344       -0.77218564521618       -3.94224072826440
H           -0.94727207548314       -0.89215512468133       -3.86370421838202
H           -1.05111103909126        0.21826819031287        1.39309316352162
H            1.71604340113754       -0.19887211833995       -3.08535893126092
H            1.92095165315944       -1.73460396902760       -2.22833989034600
H            2.83512978942731        1.04681480847108       -1.33112658542631
H            3.86173211825908       -0.37197923865278       -1.64034150698522
H            2.58971302665828       -0.94012864569682        2.59263033665801
H            0.84650496330445       -0.68881477882900        2.70500952641312
H            2.21644529660903       -2.76896359648087        0.93878551095060
H            1.42705260178106       -3.11290475130723        2.48183570871114
H            0.47060469035377       -2.56676026394649        1.09906204756453
H            1.79387385430114        2.09018478408574        0.47875934997517
H            1.12995550226957        1.62783516832419        2.07056335686832
H            5.01476674496775        2.15714994909992        1.45803111504022
