----- Optimization -----
      -----------------------------------------------------------      
     |                   =====================                   |     
     |                           x T B                           |     
     |                   =====================                   |     
     |                         S. Grimme                         |     
     |          Mulliken Center for Theoretical Chemistry        |     
     |                    University of Bonn                     |     
      -----------------------------------------------------------      

   * xtb version 6.7.1 (edcfbbe) compiled by 'conda@3ef47c1a292c' on 2024-11-25

   xtb is free software: you can redistribute it and/or modify it under
   the terms of the GNU Lesser General Public License as published by
   the Free Software Foundation, either version 3 of the License, or
   (at your option) any later version.
   
   xtb is distributed in the hope that it will be useful,
   but WITHOUT ANY WARRANTY; without even the implied warranty of
   MERCHANTABILITY or FITNESS FOR A PARTICULAR PURPOSE.  See the
   GNU Lesser General Public License for more details.
   
   Cite this work as:
   * C. Bannwarth, E. Caldeweyher, S. Ehlert, A. Hansen, P. Pracht,
     J. Seibert, S. Spicher, S. Grimme, WIREs Comput. Mol. Sci., 2020, 11,
     e01493. DOI: 10.1002/wcms.1493
   
   for GFN2-xTB:
   * C. Bannwarth, S. Ehlert and S. Grimme., J. Chem. Theory Comput., 2019,
     15, 1652-1671. DOI: 10.1021/acs.jctc.8b01176
   for GFN1-xTB:
   * S. Grimme, C. Bannwarth, P. Shushkov, J. Chem. Theory Comput., 2017,
     13, 1989-2009. DOI: 10.1021/acs.jctc.7b00118
   for GFN0-xTB:
   * P. Pracht, E. Caldeweyher, S. Ehlert, S. Grimme, ChemRxiv, 2019, preprint.
     DOI: 10.26434/chemrxiv.8326202.v1
   for GFN-FF:
   * S. Spicher and S. Grimme, Angew. Chem. Int. Ed., 2020, 59, 15665-15673.
     DOI: 10.1002/anie.202004239
   
   for ALPB and GBSA implicit solvation:
   * S. Ehlert, M. Stahn, S. Spicher, S. Grimme, J. Chem. Theory Comput.,
     2021, 17, 4250-4261. DOI: 10.1021/acs.jctc.1c00471
   
   for ddCOSMO and CPCM-X implicit solvation:
   * M. Stahn, S. Ehlert, S. Grimme, J. Phys. Chem. A,
     2023, XX, XXXX-XXXX. DOI: 10.1021/acs.jpca.3c04382
   
   for DFT-D4:
   * E. Caldeweyher, C. Bannwarth and S. Grimme, J. Chem. Phys., 2017,
     147, 034112. DOI: 10.1063/1.4993215
   * E. Caldeweyher, S. Ehlert, A. Hansen, H. Neugebauer, S. Spicher,
     C. Bannwarth and S. Grimme, J. Chem. Phys., 2019, 150, 154122.
     DOI: 10.1063/1.5090222
   * E. Caldeweyher, J.-M. Mewes, S. Ehlert and S. Grimme, Phys. Chem. Chem. Phys.
     2020, 22, 8499-8512. DOI: 10.1039/D0CP00502A
   
   for sTDA-xTB:
   * S. Grimme and C. Bannwarth, J. Chem. Phys., 2016, 145, 054103.
     DOI: 10.1063/1.4959605
   
   in the mass-spec context:
   * V. Asgeirsson, C. Bauer and S. Grimme, Chem. Sci., 2017, 8, 4879.
     DOI: 10.1039/c7sc00601b
   * J. Koopman and S. Grimme, ACS Omega 2019, 4, 12, 15120-15133.
     DOI: 10.1021/acsomega.9b02011
   
   for metadynamics refer to:
   * S. Grimme, J. Chem. Theory Comput., 2019, 155, 2847-2862
     DOI: 10.1021/acs.jctc.9b00143
   
   for SPH calculations refer to:
   * S. Spicher and S. Grimme, J. Chem. Theory Comput., 2021, 17, 1701-1714
     DOI: 10.1021/acs.jctc.0c01306
   
   for ONIOM refer to:
   * C. Plett, A. Katbashev, S. Ehlert, S. Grimme, M. Bursch,
     Phys. Chem. Chem. Phys., 2023, 25, 17860-17868. DOI: 10.1039/D3CP02178E
   
   for DIPRO refer to:
   * J. Kohn, N. Gildemeister, S. Grimme, D. Fazzi, A. Hansen,
     J. Chem. Phys., 2023, just accepted.
   
   for PTB refer to:
   * S. Grimme, M. Mueller, A. Hansen, J. Chem. Phys., 2023, 158, 124111.
     DOI: 10.1063/5.0137838
   
   with help from (in alphabetical order)
   P. Atkinson, C. Bannwarth, F. Bohle, G. Brandenburg, E. Caldeweyher
   M. Checinski, S. Dohm, S. Ehlert, S. Ehrlich, I. Gerasimov, C. Hölzer
   A. Katbashev, J. Kohn, J. Koopman, C. Lavigne, S. Lehtola, F. März, M. Müller,
   F. Musil, H. Neugebauer, J. Pisarek, C. Plett, P. Pracht, F. Pultar,
   J. Seibert, P. Shushkov, S. Spicher, M. Stahn, M. Steiner, T. Strunk,
   J. Stückrath, T. Rose, and J. Unsleber
   
 * started run on 2025/05/15 at 16:20:27.135     
   ID    Z sym.   atoms
    1    6 C      1-8, 10-13, 15-19
    2    7 N      9
    3    8 O      14, 20, 21
    4    1 H      22-42

           -------------------------------------------------
          |                Calculation Setup                |
           -------------------------------------------------

          program call               : xtb /rds/general/user/hgt20/home/callum/QDESCP/Etodolac_rdkit_conf_13/Etodolac_rdkit_conf_13.xyz --opt normal --acc 1 --gfn 2 --chrg 0 --uhf 0 -P 1
          hostname                   : login-c
          coordinate file            : /rds/general/user/hgt20/home/callum/QDESCP/Etodolac_rdkit_conf_13/Etodolac_rdkit_conf_13.xyz
          omp threads                :                     1


           -------------------------------------------------
          |                 G F N 2 - x T B                 |
           -------------------------------------------------

        Reference                      10.1021/acs.jctc.8b01176
      * Hamiltonian:
        H0-scaling (s, p, d)           1.850000    2.230000    2.230000
        zeta-weighting                 0.500000
      * Dispersion:
        s8                             2.700000
        a1                             0.520000
        a2                             5.000000
        s9                             5.000000
      * Repulsion:
        kExp                           1.500000    1.000000
        rExp                           1.000000
      * Coulomb:
        alpha                          2.000000
        third order                    shell-resolved
        anisotropic                    true
        a3                             3.000000
        a5                             4.000000
        cn-shift                       1.200000
        cn-exp                         4.000000
        max-rad                        5.000000


          ...................................................
          :                      SETUP                      :
          :.................................................:
          :  # basis functions                 105          :
          :  # atomic orbitals                 105          :
          :  # shells                           63          :
          :  # electrons                       112          :
          :  max. iterations                   250          :
          :  Hamiltonian                  GFN2-xTB          :
          :  restarted?                      false          :
          :  GBSA solvation                  false          :
          :  PC potential                    false          :
          :  electronic temp.          300.0000000     K    :
          :  accuracy                    1.0000000          :
          :  -> integral cutoff          0.2500000E+02      :
          :  -> integral neglect         0.1000000E-07      :
          :  -> SCF convergence          0.1000000E-05 Eh   :
          :  -> wf. convergence          0.1000000E-03 e    :
          :  Broyden damping             0.4000000          :
          :  net charge                          0          :
          :  unpaired electrons                  0          :
          ...................................................

 iter      E             dE          RMSdq      gap      omega  full diag
   1    -62.9621460 -0.629621E+02  0.393E+00    3.10       0.0  T
   2    -63.0812517 -0.119106E+00  0.231E+00    2.99       1.0  T
   3    -63.0851056 -0.385395E-02  0.127E+00    3.32       1.0  T
   4    -63.0932474 -0.814172E-02  0.548E-01    2.93       1.0  T
   5    -63.1027221 -0.947474E-02  0.130E-01    2.88       1.0  T
   6    -63.1030551 -0.332951E-03  0.603E-02    2.90       1.0  T
   7    -63.1030904 -0.353532E-04  0.262E-02    2.90       1.0  T
   8    -63.1030924 -0.202649E-05  0.122E-02    2.91       1.3  T
   9    -63.1030961 -0.362752E-05  0.295E-03    2.91       5.2  T
  10    -63.1030961 -0.432314E-07  0.144E-03    2.91      10.7  T
  11    -63.1030961 -0.243316E-07  0.602E-04    2.91      25.6  T
  12    -63.1030961 -0.538414E-08  0.245E-04    2.91      62.9  T

   *** convergence criteria satisfied after 12 iterations ***

         #    Occupation            Energy/Eh            Energy/eV
      -------------------------------------------------------------
         1        2.0000           -0.7475816             -20.3427
       ...           ...                  ...                  ...
        50        2.0000           -0.4246522             -11.5554
        51        2.0000           -0.4194534             -11.4139
        52        2.0000           -0.4138403             -11.2612
        53        2.0000           -0.4034438             -10.9783
        54        2.0000           -0.3984209             -10.8416
        55        2.0000           -0.3800616             -10.3420
        56        2.0000           -0.3552683              -9.6673 (HOMO)
        57                         -0.2482612              -6.7555 (LUMO)
        58                         -0.2313717              -6.2959
        59                         -0.1960678              -5.3353
        60                         -0.1598267              -4.3491
        61                         -0.0747057              -2.0328
       ...                                ...                  ...
       105                          0.7054045              19.1950
      -------------------------------------------------------------
                  HL-Gap            0.1070071 Eh            2.9118 eV
             Fermi-level           -0.3017647 Eh           -8.2114 eV

 SCC (total)                   0 d,  0 h,  0 min,  0.079 sec
 SCC setup                      ...        0 min,  0.000 sec (  0.487%)
 Dispersion                     ...        0 min,  0.000 sec (  0.559%)
 classical contributions        ...        0 min,  0.000 sec (  0.186%)
 integral evaluation            ...        0 min,  0.007 sec (  9.396%)
 iterations                     ...        0 min,  0.047 sec ( 59.110%)
 molecular gradient             ...        0 min,  0.024 sec ( 30.047%)
 printout                       ...        0 min,  0.000 sec (  0.205%)

         :::::::::::::::::::::::::::::::::::::::::::::::::::::
         ::                     SUMMARY                     ::
         :::::::::::::::::::::::::::::::::::::::::::::::::::::
         :: total energy             -62.282669979040 Eh    ::
         :: gradient norm              0.077844640779 Eh/a0 ::
         :: HOMO-LUMO gap              2.911812374868 eV    ::
         ::.................................................::
         :: SCC energy               -63.102488686000 Eh    ::
         :: -> isotropic ES            0.075708739532 Eh    ::
         :: -> anisotropic ES          0.011248746116 Eh    ::
         :: -> anisotropic XC          0.018644912396 Eh    ::
         :: -> dispersion             -0.044525157257 Eh    ::
         :: repulsion energy           0.819818706960 Eh    ::
         :: add. restraining           0.000000000000 Eh    ::
         :: total charge               0.000000000000 e     ::
         :::::::::::::::::::::::::::::::::::::::::::::::::::::

      ----------------------------------------------------------- 
     |                   =====================                   |
     |                        A N C O P T                        |
     |                   =====================                   |
     |               Approximate Normal Coordinate               |
     |                Rational Function Optimizer                |
      ----------------------------------------------------------- 
      ----------------------------------------------------------- 
     |                   =====================                   |
     |                        A N C O P T                        |
     |                   =====================                   |
     |               Approximate Normal Coordinate               |
     |                Rational Function Optimizer                |
      ----------------------------------------------------------- 

          ...................................................
          :                      SETUP                      :
          :.................................................:
          :   optimization level            normal          :
          :   max. optcycles                   200          :
          :   ANC micro-cycles                  20          :
          :   degrees of freedom               120          :
          :.................................................:
          :   RF solver                   davidson          :
          :   write xtbopt.log                true          :
          :   linear?                        false          :
          :   energy convergence         0.5000000E-05 Eh   :
          :   grad. convergence          0.1000000E-02 Eh/α :
          :   maxmium RF displ.          1.0000000          :
          :   Hlow (freq-cutoff)         0.1000000E-01      :
          :   Hmax (freq-cutoff)         5.0000000          :
          :   S6 in model hess.         20.0000000          :
          ...................................................

generating ANC from exact Hessian ...
Using Lindh-Hessian (1995)
 Shifting diagonal of input Hessian by    9.4833135135340106E-003
 Lowest  eigenvalues of input Hessian
    0.000000    0.000000    0.000000    0.000000    0.000000    0.000000
    0.010000    0.010203    0.010746    0.011150    0.011565    0.012089
    0.013158    0.013750    0.014615    0.014725    0.015572    0.017566
 Highest eigenvalues
    1.832341    1.930626    1.985432    2.025399    2.126752    2.272773


........................................................................
.............................. CYCLE    1 ..............................
........................................................................

 iter      E             dE          RMSdq      gap      omega  full diag
   1    -63.1030961 -0.631031E+02  0.120E-04    2.91       0.0  T
   2    -63.1030961 -0.103796E-09  0.756E-05    2.91     204.2  T
   3    -63.1030961 -0.576179E-10  0.499E-05    2.91     309.4  T
     SCC iter.                  ...        0 min,  0.006 sec
     gradient                   ...        0 min,  0.024 sec
 * total energy  :   -62.2826700 Eh     change       -0.7096617E-09 Eh
   gradient norm :     0.0778466 Eh/α   predicted     0.0000000E+00 (-100.00%)
   displ. norm   :     0.2869960 α      lambda       -0.1007358E-01
   maximum displ.:     0.1082166 α      in ANC's #23, #16, #34, ...

........................................................................
.............................. CYCLE    2 ..............................
........................................................................

 iter      E             dE          RMSdq      gap      omega  full diag
   1    -63.1348725 -0.631349E+02  0.183E-01    3.13       0.0  T
   2    -63.1349520 -0.795365E-04  0.109E-01    3.10       1.0  T
   3    -63.1349425  0.950328E-05  0.318E-02    3.11       1.0  T
   4    -63.1349591 -0.165677E-04  0.738E-03    3.11       2.1  T
   5    -63.1349605 -0.140490E-05  0.301E-03    3.11       5.1  T
   6    -63.1349606 -0.132196E-06  0.150E-03    3.11      10.3  T
   7    -63.1349607 -0.261199E-07  0.684E-04    3.11      22.5  T
   8    -63.1349607 -0.564182E-08  0.259E-04    3.11      59.7  T
     SCC iter.                  ...        0 min,  0.056 sec
     gradient                   ...        0 min,  0.025 sec
 * total energy  :   -62.2894596 Eh     change       -0.6789653E-02 Eh
   gradient norm :     0.0302520 Eh/α   predicted    -0.5453793E-02 ( -19.67%)
   displ. norm   :     0.2339185 α      lambda       -0.2738538E-02
   maximum displ.:     0.0752946 α      in ANC's #13, #16, #10, ...

........................................................................
.............................. CYCLE    3 ..............................
........................................................................

 iter      E             dE          RMSdq      gap      omega  full diag
   1    -63.1501539 -0.631502E+02  0.104E-01    3.21       0.0  T
   2    -63.1501868 -0.329011E-04  0.628E-02    3.20       1.0  T
   3    -63.1501817  0.509223E-05  0.214E-02    3.20       1.0  T
   4    -63.1501890 -0.735485E-05  0.726E-03    3.20       2.1  T
   5    -63.1501907 -0.169198E-05  0.287E-03    3.20       5.4  T
   6    -63.1501910 -0.216172E-06  0.104E-03    3.20      14.8  T
   7    -63.1501910 -0.670548E-08  0.518E-04    3.20      29.8  T
   8    -63.1501910 -0.133805E-08  0.159E-04    3.20      96.9  T
     SCC iter.                  ...        0 min,  0.015 sec
     gradient                   ...        0 min,  0.068 sec
 * total energy  :   -62.2910832 Eh     change       -0.1623545E-02 Eh
   gradient norm :     0.0093652 Eh/α   predicted    -0.1444776E-02 ( -11.01%)
   displ. norm   :     0.1500421 α      lambda       -0.4351774E-03
   maximum displ.:     0.0729796 α      in ANC's #4, #13, #10, ...

........................................................................
.............................. CYCLE    4 ..............................
........................................................................

 iter      E             dE          RMSdq      gap      omega  full diag
   1    -63.1514762 -0.631515E+02  0.381E-02    3.21       0.0  T
   2    -63.1514798 -0.355677E-05  0.234E-02    3.21       1.0  T
   3    -63.1514774  0.242218E-05  0.102E-02    3.22       1.5  T
   4    -63.1514805 -0.315336E-05  0.297E-03    3.21       5.2  T
   5    -63.1514808 -0.242095E-06  0.103E-03    3.21      15.0  T
   6    -63.1514808 -0.145199E-07  0.466E-04    3.21      33.1  T
   7    -63.1514808 -0.110027E-08  0.255E-04    3.21      60.5  T
     SCC iter.                  ...        0 min,  0.013 sec
     gradient                   ...        0 min,  0.076 sec
 * total energy  :   -62.2913927 Eh     change       -0.3095143E-03 Eh
   gradient norm :     0.0056048 Eh/α   predicted    -0.2224893E-03 ( -28.12%)
   displ. norm   :     0.1810094 α      lambda       -0.2685017E-03
   maximum displ.:     0.1161377 α      in ANC's #4, #10, #6, ...

........................................................................
.............................. CYCLE    5 ..............................
........................................................................

 iter      E             dE          RMSdq      gap      omega  full diag
   1    -63.1511033 -0.631511E+02  0.368E-02    3.22       0.0  T
   2    -63.1511047 -0.146672E-05  0.224E-02    3.22       1.0  T
   3    -63.1511021  0.269717E-05  0.978E-03    3.23       1.6  T
   4    -63.1511054 -0.334629E-05  0.198E-03    3.22       7.8  T
   5    -63.1511055 -0.976273E-07  0.868E-04    3.22      17.8  T
   6    -63.1511055 -0.358911E-08  0.404E-04    3.22      38.2  T
     SCC iter.                  ...        0 min,  0.011 sec
     gradient                   ...        0 min,  0.076 sec
 * total energy  :   -62.2915685 Eh     change       -0.1758524E-03 Eh
   gradient norm :     0.0043287 Eh/α   predicted    -0.1386505E-03 ( -21.16%)
   displ. norm   :     0.1277961 α      lambda       -0.1004739E-03
   maximum displ.:     0.0943704 α      in ANC's #4, #6, #10, ...

........................................................................
.............................. CYCLE    6 ..............................
........................................................................

 iter      E             dE          RMSdq      gap      omega  full diag
   1    -63.1507673 -0.631508E+02  0.209E-02    3.23       0.0  T
   2    -63.1507675 -0.255213E-06  0.126E-02    3.23       1.2  T
   3    -63.1507670  0.504323E-06  0.410E-03    3.23       3.8  T
   4    -63.1507676 -0.616972E-06  0.888E-04    3.23      17.4  T
   5    -63.1507676 -0.148958E-07  0.463E-04    3.23      33.3  T
     SCC iter.                  ...        0 min,  0.009 sec
     gradient                   ...        0 min,  0.069 sec
 * total energy  :   -62.2916447 Eh     change       -0.7619059E-04 Eh
   gradient norm :     0.0033690 Eh/α   predicted    -0.5110014E-04 ( -32.93%)
   displ. norm   :     0.1202849 α      lambda       -0.7940561E-04
   maximum displ.:     0.0933604 α      in ANC's #4, #6, #10, ...

........................................................................
.............................. CYCLE    7 ..............................
........................................................................

 iter      E             dE          RMSdq      gap      omega  full diag
   1    -63.1509240 -0.631509E+02  0.178E-02    3.23       0.0  T
   2    -63.1509245 -0.490522E-06  0.107E-02    3.23       1.4  T
   3    -63.1509243  0.104540E-06  0.266E-03    3.23       5.8  T
   4    -63.1509245 -0.172353E-06  0.816E-04    3.23      18.9  T
   5    -63.1509245 -0.129112E-07  0.425E-04    3.23      36.3  T
     SCC iter.                  ...        0 min,  0.009 sec
     gradient                   ...        0 min,  0.024 sec
 * total energy  :   -62.2917070 Eh     change       -0.6229398E-04 Eh
   gradient norm :     0.0022178 Eh/α   predicted    -0.4027786E-04 ( -35.34%)
   displ. norm   :     0.1248995 α      lambda       -0.6472364E-04
   maximum displ.:     0.0961842 α      in ANC's #4, #6, #10, ...

........................................................................
.............................. CYCLE    8 ..............................
........................................................................

 iter      E             dE          RMSdq      gap      omega  full diag
   1    -63.1510966 -0.631511E+02  0.188E-02    3.23       0.0  T
   2    -63.1510969 -0.271506E-06  0.112E-02    3.23       1.4  T
   3    -63.1510968  0.735541E-07  0.204E-03    3.23       7.5  T
   4    -63.1510969 -0.120526E-06  0.651E-04    3.23      23.7  T
   5    -63.1510970 -0.781169E-08  0.348E-04    3.23      44.3  T
     SCC iter.                  ...        0 min,  0.054 sec
     gradient                   ...        0 min,  0.025 sec
 * total energy  :   -62.2917588 Eh     change       -0.5177601E-04 Eh
   gradient norm :     0.0020719 Eh/α   predicted    -0.3286801E-04 ( -36.52%)
   displ. norm   :     0.1270880 α      lambda       -0.5366060E-04
   maximum displ.:     0.0959191 α      in ANC's #4, #6, #1, ...

........................................................................
.............................. CYCLE    9 ..............................
........................................................................

 iter      E             dE          RMSdq      gap      omega  full diag
   1    -63.1513896 -0.631514E+02  0.195E-02    3.24       0.0  T
   2    -63.1513898 -0.163200E-06  0.116E-02    3.24       1.3  T
   3    -63.1513897  0.498462E-07  0.160E-03    3.24       9.6  T
   4    -63.1513898 -0.856022E-07  0.569E-04    3.24      27.1  T
   5    -63.1513898 -0.563303E-08  0.325E-04    3.24      47.5  T
     SCC iter.                  ...        0 min,  0.009 sec
     gradient                   ...        0 min,  0.062 sec
 * total energy  :   -62.2918034 Eh     change       -0.4461442E-04 Eh
   gradient norm :     0.0021516 Eh/α   predicted    -0.2726617E-04 ( -38.88%)
   displ. norm   :     0.1441436 α      lambda       -0.5215422E-04
   maximum displ.:     0.1045149 α      in ANC's #4, #6, #1, ...

........................................................................
.............................. CYCLE   10 ..............................
........................................................................

 iter      E             dE          RMSdq      gap      omega  full diag
   1    -63.1514914 -0.631515E+02  0.234E-02    3.24       0.0  T
   2    -63.1514915 -0.884575E-07  0.138E-02    3.24       1.1  T
   3    -63.1514915  0.413250E-07  0.150E-03    3.24      10.3  T
   4    -63.1514916 -0.756942E-07  0.555E-04    3.24      27.8  T
   5    -63.1514916 -0.474747E-08  0.303E-04    3.24      51.0  T
     SCC iter.                  ...        0 min,  0.009 sec
     gradient                   ...        0 min,  0.025 sec
 * total energy  :   -62.2918470 Eh     change       -0.4354914E-04 Eh
   gradient norm :     0.0020808 Eh/α   predicted    -0.2662125E-04 ( -38.87%)
   displ. norm   :     0.1699786 α      lambda       -0.5153787E-04
   maximum displ.:     0.1202056 α      in ANC's #4, #6, #1, ...

........................................................................
.............................. CYCLE   11 ..............................
........................................................................

 iter      E             dE          RMSdq      gap      omega  full diag
   1    -63.1514743 -0.631515E+02  0.284E-02    3.24       0.0  T
   2    -63.1514744 -0.158383E-06  0.168E-02    3.24       1.0  T
   3    -63.1514743  0.103637E-06  0.213E-03    3.24       7.3  T
   4    -63.1514745 -0.157044E-06  0.720E-04    3.24      21.4  T
   5    -63.1514745 -0.934807E-08  0.377E-04    3.24      40.9  T
     SCC iter.                  ...        0 min,  0.009 sec
     gradient                   ...        0 min,  0.024 sec
 * total energy  :   -62.2918880 Eh     change       -0.4100891E-04 Eh
   gradient norm :     0.0017886 Eh/α   predicted    -0.2651411E-04 ( -35.35%)
   displ. norm   :     0.2546442 α      lambda       -0.3882641E-04
   maximum displ.:     0.1774874 α      in ANC's #4, #6, #1, ...

........................................................................
.............................. CYCLE   12 ..............................
........................................................................

 iter      E             dE          RMSdq      gap      omega  full diag
   1    -63.1511624 -0.631512E+02  0.442E-02    3.24       0.0  T
   2    -63.1511628 -0.412315E-06  0.261E-02    3.24       1.0  T
   3    -63.1511625  0.278276E-06  0.347E-03    3.24       4.4  T
   4    -63.1511629 -0.421804E-06  0.117E-03    3.24      13.1  T
   5    -63.1511630 -0.239762E-07  0.630E-04    3.24      24.5  T
   6    -63.1511630 -0.300648E-08  0.234E-04    3.24      66.0  T
     SCC iter.                  ...        0 min,  0.011 sec
     gradient                   ...        0 min,  0.069 sec
 * total energy  :   -62.2919242 Eh     change       -0.3619743E-04 Eh
   gradient norm :     0.0018662 Eh/α   predicted    -0.1997759E-04 ( -44.81%)
   displ. norm   :     0.0933871 α      lambda       -0.1286042E-04
   maximum displ.:     0.0629307 α      in ANC's #4, #1, #6, ...

........................................................................
.............................. CYCLE   13 ..............................
........................................................................

 iter      E             dE          RMSdq      gap      omega  full diag
   1    -63.1517761 -0.631518E+02  0.173E-02    3.25       0.0  T
   2    -63.1517763 -0.145455E-06  0.103E-02    3.25       1.5  T
   3    -63.1517762  0.607104E-07  0.178E-03    3.25       8.7  T
   4    -63.1517763 -0.994139E-07  0.559E-04    3.25      27.6  T
   5    -63.1517763 -0.486246E-08  0.330E-04    3.25      46.8  T
     SCC iter.                  ...        0 min,  0.009 sec
     gradient                   ...        0 min,  0.070 sec
 * total energy  :   -62.2919391 Eh     change       -0.1495521E-04 Eh
   gradient norm :     0.0011692 Eh/α   predicted    -0.6458184E-05 ( -56.82%)
   displ. norm   :     0.1487224 α      lambda       -0.1843790E-04
   maximum displ.:     0.0935701 α      in ANC's #4, #1, #5, ...

........................................................................
.............................. CYCLE   14 ..............................
........................................................................

 iter      E             dE          RMSdq      gap      omega  full diag
   1    -63.1515538 -0.631516E+02  0.313E-02    3.24       0.0  T
   2    -63.1515540 -0.218447E-06  0.185E-02    3.24       1.0  T
   3    -63.1515540 -0.105752E-07  0.190E-03    3.24       8.1  T
   4    -63.1515541 -0.974104E-07  0.947E-04    3.24      16.3  T
   5    -63.1515541 -0.747893E-08  0.499E-04    3.24      30.9  T
     SCC iter.                  ...        0 min,  0.009 sec
     gradient                   ...        0 min,  0.025 sec
 * total energy  :   -62.2919578 Eh     change       -0.1864708E-04 Eh
   gradient norm :     0.0019515 Eh/α   predicted    -0.9310637E-05 ( -50.07%)
   displ. norm   :     0.1160615 α      lambda       -0.1386245E-04
   maximum displ.:     0.0570942 α      in ANC's #4, #1, #10, ...

........................................................................
.............................. CYCLE   15 ..............................
........................................................................

 iter      E             dE          RMSdq      gap      omega  full diag
   1    -63.1520001 -0.631520E+02  0.238E-02    3.25       0.0  T
   2    -63.1520007 -0.594934E-06  0.141E-02    3.25       1.1  T
   3    -63.1520007  0.464309E-08  0.206E-03    3.25       7.5  T
   4    -63.1520007 -0.633974E-07  0.953E-04    3.25      16.2  T
   5    -63.1520008 -0.215977E-07  0.477E-04    3.25      32.4  T
     SCC iter.                  ...        0 min,  0.009 sec
     gradient                   ...        0 min,  0.024 sec
 * total energy  :   -62.2919711 Eh     change       -0.1333401E-04 Eh
   gradient norm :     0.0015707 Eh/α   predicted    -0.6974457E-05 ( -47.69%)
   displ. norm   :     0.0938770 α      lambda       -0.9353655E-05
   maximum displ.:     0.0419074 α      in ANC's #4, #2, #1, ...

........................................................................
.............................. CYCLE   16 ..............................
........................................................................

 iter      E             dE          RMSdq      gap      omega  full diag
   1    -63.1518290 -0.631518E+02  0.225E-02    3.24       0.0  T
   2    -63.1518292 -0.218447E-06  0.133E-02    3.24       1.2  T
   3    -63.1518292 -0.174362E-07  0.149E-03    3.24      10.4  T
   4    -63.1518293 -0.477642E-07  0.659E-04    3.24      23.4  T
   5    -63.1518293 -0.257052E-08  0.359E-04    3.24      43.0  T
     SCC iter.                  ...        0 min,  0.054 sec
     gradient                   ...        0 min,  0.025 sec
 * total energy  :   -62.2919810 Eh     change       -0.9846233E-05 Eh
   gradient norm :     0.0011685 Eh/α   predicted    -0.4695951E-05 ( -52.31%)
   displ. norm   :     0.0704647 α      lambda       -0.7710659E-05
   maximum displ.:     0.0445475 α      in ANC's #2, #10, #9, ...

........................................................................
.............................. CYCLE   17 ..............................
........................................................................

 iter      E             dE          RMSdq      gap      omega  full diag
   1    -63.1518485 -0.631518E+02  0.159E-02    3.25       0.0  T
   2    -63.1518487 -0.138594E-06  0.933E-03    3.25       1.7  T
   3    -63.1518487 -0.121065E-07  0.912E-04    3.24      16.9  T
   4    -63.1518487 -0.998905E-08  0.500E-04    3.24      30.9  T
     SCC iter.                  ...        0 min,  0.007 sec
     gradient                   ...        0 min,  0.064 sec
 * total energy  :   -62.2919891 Eh     change       -0.8121089E-05 Eh
   gradient norm :     0.0007537 Eh/α   predicted    -0.3867602E-05 ( -52.38%)
   displ. norm   :     0.0549446 α      lambda       -0.4446119E-05
   maximum displ.:     0.0371263 α      in ANC's #2, #9, #4, ...

........................................................................
.............................. CYCLE   18 ..............................
........................................................................

 iter      E             dE          RMSdq      gap      omega  full diag
   1    -63.1516983 -0.631517E+02  0.120E-02    3.24       0.0  T
   2    -63.1516983 -0.571093E-07  0.706E-03    3.24       2.2  T
   3    -63.1516983  0.838985E-08  0.940E-04    3.24      16.4  T
   4    -63.1516983 -0.240904E-07  0.452E-04    3.24      34.2  T
     SCC iter.                  ...        0 min,  0.007 sec
     gradient                   ...        0 min,  0.025 sec
 * total energy  :   -62.2919940 Eh     change       -0.4947954E-05 Eh
   gradient norm :     0.0006805 Eh/α   predicted    -0.2227906E-05 ( -54.97%)
   displ. norm   :     0.0466756 α      lambda       -0.3602864E-05
   maximum displ.:     0.0328708 α      in ANC's #2, #9, #5, ...

   *** GEOMETRY OPTIMIZATION CONVERGED AFTER 18 ITERATIONS ***

------------------------------------------------------------------------
 total energy gain   :        -0.0093240 Eh       -5.8509 kcal/mol
 total RMSD          :         0.2766830 a0        0.1464 Å
 total power (kW/mol):        -1.3600157 (step)  -17.4019 (real)
------------------------------------------------------------------------

 ANCopt (total)                0 d,  0 h,  0 min,  1.407 sec
 optimizer setup                ...        0 min,  0.000 sec (  0.006%)
 model hessian                  ...        0 min,  0.019 sec (  1.316%)
 ANC generation                 ...        0 min,  0.043 sec (  3.027%)
 coordinate transformation      ...        0 min,  0.000 sec (  0.010%)
 single point calculation       ...        0 min,  1.339 sec ( 95.153%)
 optimization log               ...        0 min,  0.004 sec (  0.256%)
 hessian update                 ...        0 min,  0.000 sec (  0.017%)
 rational function              ...        0 min,  0.001 sec (  0.084%)

================
 final structure:
================
42
 xtb: 6.7.1 (edcfbbe)
C           -3.81838007967269        1.78612371046860        0.83254717825782
C           -3.84031535207394        0.27655779279304        0.58145244497101
C           -3.04157089655948       -0.07555297716800       -0.64207127830722
C           -3.63778265093009       -0.30710194712013       -1.86699244972317
C           -2.89317013064982       -0.59792419516055       -3.01274915300863
C           -1.51982150429078       -0.66643218332427       -2.97682046229060
C           -0.87948973970179       -0.43997596842243       -1.75884328634236
C           -1.64925744550566       -0.14544325289953       -0.60608581091599
N           -0.78646432727102        0.03228272663041        0.44202013664818
C            0.49586882887016       -0.15289497859984       -0.00780336535255
C            0.48413301994427       -0.43072517883135       -1.34428952465666
C            1.75040915221949       -0.66184308398248       -2.09779739706337
C            2.88629329704633       -0.04878443803398       -1.27050222391627
O            2.86081711391555       -0.46771745433653        0.07925571747707
C            1.72878228472662       -0.06441763933556        0.83575965959768
C            1.65126359306500       -1.01547003570855        2.04399268658286
C            1.42354302932525       -2.45929258806203        1.61331386260622
C            1.89510244968591        1.41227860355964        1.32621476875034
C            3.25791043574217        1.59180080349054        1.93926051093201
O            4.12768047286313        2.11202120054183        1.06779573898197
O            3.56289863418818        1.30062646417825        3.06465413360205
H           -4.38903799085238        2.03413426901406        1.72498232933476
H           -2.79839070607080        2.14234408632022        0.96129700474151
H           -4.25408381248310        2.31077496354121       -0.01444404992909
H           -4.87346417890991       -0.04814426331395        0.44632456202891
H           -3.43762924410461       -0.24555273754609        1.45384622569163
H           -4.71510030276576       -0.26465646680764       -1.94057621373798
H           -3.41523447740344       -0.77218564521618       -3.94224072826440
H           -0.94727207548314       -0.89215512468133       -3.86370421838202
H           -1.05111103909126        0.21826819031287        1.39309316352162
H            1.71604340113754       -0.19887211833995       -3.08535893126092
H            1.92095165315944       -1.73460396902760       -2.22833989034600
H            2.83512978942731        1.04681480847108       -1.33112658542631
H            3.86173211825908       -0.37197923865278       -1.64034150698522
H            2.58971302665828       -0.94012864569682        2.59263033665801
H            0.84650496330445       -0.68881477882900        2.70500952641312
H            2.21644529660903       -2.76896359648087        0.93878551095060
H            1.42705260178106       -3.11290475130723        2.48183570871114
H            0.47060469035377       -2.56676026394649        1.09906204756453
H            1.79387385430114        2.09018478408574        0.47875934997517
H            1.12995550226957        1.62783516832419        2.07056335686832
H            5.01476674496775        2.15714994909992        1.45803111504022

 Bond Distances (Angstroems)
 ---------------------------
C1-C2=1.5305         C1-H22=1.0879        C1-H23=1.0880        C1-H24=1.0874        C2-C1=1.5305         C2-C3=1.5030         
C2-H25=1.0914        C2-H26=1.0935        C3-C2=1.5030         C3-C4=1.3819         C3-C8=1.3945         C4-C3=1.3819         
C4-C5=1.3971         C4-H27=1.0807        C5-C4=1.3971         C5-C6=1.3755         C5-H28=1.0802        C6-C5=1.3755         
C6-C7=1.3946         C6-H29=1.0795        C7-C6=1.3946         C7-C8=1.4171         C7-C11=1.4253        C8-C3=1.3945         
C8-C7=1.4171         C8-N9=1.3691         N9-C8=1.3691         N9-C10=1.3715        N9-H30=1.0046        C10-N9=1.3715        
C10-C11=1.3651       C10-C15=1.4965       C11-C7=1.4253        C11-C10=1.3651       C11-C12=1.4915       C12-C11=1.4915       
C12-C13=1.5331       C12-H31=1.0912       C12-H32=1.0940       C13-C12=1.5331       C13-O14=1.4135       C13-H33=1.0985       
C13-H34=1.0921       O14-C13=1.4135       O14-C15=1.4200       C15-C10=1.4965       C15-O14=1.4200       C15-C16=1.5396       
C15-C18=1.5649       C16-C15=1.5396       C16-C17=1.5238       C16-H35=1.0897       C16-H36=1.0915       C17-C16=1.5238       
C17-H37=1.0861       C17-H38=1.0870       C17-H39=1.0882       C18-C15=1.5649       C18-C19=1.5051       C18-H40=1.0899       
C18-H41=1.0890       C19-C18=1.5051       C19-O20=1.3366       C19-O21=1.2018       O20-C19=1.3366       O20-H42=0.9702       
O21-C19=1.2018       H22-C1=1.0879        H23-C1=1.0880        H24-C1=1.0874        H25-C2=1.0914        H26-C2=1.0935        
H27-C4=1.0807        H28-C5=1.0802        H29-C6=1.0795        H30-N9=1.0046        H31-C12=1.0912       H32-C12=1.0940       
H33-C13=1.0985       H34-C13=1.0921       H35-C16=1.0897       H36-C16=1.0915       H37-C17=1.0861       H38-C17=1.0870       
H39-C17=1.0882       H40-C18=1.0899       H41-C18=1.0890       H42-O20=0.9702       
 C  H  Rav=1.0887 sigma=0.0047  Rmin=1.0795  Rmax=1.0985    19
 C  C  Rav=1.4611 sigma=0.0667  Rmin=1.3651  Rmax=1.5649    17
 N  H  Rav=1.0046 sigma=0.0000  Rmin=1.0046  Rmax=1.0046     1
 N  C  Rav=1.3703 sigma=0.0012  Rmin=1.3691  Rmax=1.3715     2
 O  H  Rav=0.9702 sigma=0.0000  Rmin=0.9702  Rmax=0.9702     1
 O  C  Rav=1.3430 sigma=0.0879  Rmin=1.2018  Rmax=1.4200     4

 selected bond angles (degree)
 --------------------
H22-C1-C2=110.60               H23-C1-C2=110.84               H23-C1-H22=108.66              H24-C1-C2=110.02               
H24-C1-H22=108.59              H24-C1-H23=108.05              C3-C2-C1=110.92                H25-C2-C1=109.11               
H25-C2-C3=109.43               H26-C2-C1=109.56               H26-C2-C3=109.99               H26-C2-H25=107.78              
C4-C3-C2=122.11                C8-C3-C2=121.42                C8-C3-C4=116.44                C5-C4-C3=122.13                
H27-C4-C3=118.94               H27-C4-C5=118.93               C6-C5-C4=121.41                H28-C5-C4=118.79               
H28-C5-C6=119.80               C7-C6-C5=118.24                H29-C6-C5=121.23               H29-C6-C7=120.53               
C8-C7-C6=119.66                C11-C7-C6=133.98               C11-C7-C8=106.36               C7-C8-C3=122.12                
N9-C8-C3=129.97                N9-C8-C7=107.90                C10-N9-C8=108.70               H30-N9-C8=125.65               
H30-N9-C10=125.58              C11-C10-N9=109.91              C15-C10-N9=125.27              C15-C10-C11=124.82             

 selected dihedral angles (degree)
 ---------------------------------
C3-C2-C1-H22=180.60           C3-C2-C1-H23=301.20           C3-C2-C1-H24= 60.64           H25-C2-C1-H22= 59.99          
H25-C2-C1-H23=180.58          H25-C2-C1-H24=300.03          H26-C2-C1-H22=302.22          H26-C2-C1-H23= 62.81          
H26-C2-C1-H24=182.25          C4-C3-C2-C1=260.75            C4-C3-C2-H25= 21.18           C4-C3-C2-H26=139.39           
C8-C3-C2-C1= 78.77            C8-C3-C2-H25=199.19           C8-C3-C2-H26=317.41           C5-C4-C3-C2=178.18            
C5-C4-C3-C8=  0.08            H27-C4-C3-C2=358.01           H27-C4-C3-C8=179.90           C6-C5-C4-C3=359.91            
C6-C5-C4-H27=180.08           H28-C5-C4-C3=179.85           H28-C5-C4-H27=  0.03          C7-C6-C5-C4=  0.14            
C7-C6-C5-H28=180.20           H29-C6-C5-C4=179.95           H29-C6-C5-H28=  0.00          C8-C7-C6-C5=359.83            
C8-C7-C6-H29=180.02           C11-C7-C6-C5=179.77           C11-C7-C6-H29=359.96          C7-C8-C3-C2=181.77            
C7-C8-C3-C4=359.89            N9-C8-C3-C2=  1.92            N9-C8-C3-C4=180.04            C3-C8-C7-C6=  0.16            
C3-C8-C7-C11=180.21           N9-C8-C7-C6=180.04            N9-C8-C7-C11=  0.09           C10-N9-C8-C3=179.28           
C10-N9-C8-C7=359.41           H30-N9-C8-C3=  2.31           H30-N9-C8-C7=182.44           C11-C10-N9-C8=  0.89          
C11-C10-N9-H30=177.86         C15-C10-N9-C8=180.87          C15-C10-N9-H30=357.84         
           -------------------------------------------------
          |                Final Singlepoint                |
           -------------------------------------------------

          ...................................................
          :                      SETUP                      :
          :.................................................:
          :  # basis functions                 105          :
          :  # atomic orbitals                 105          :
          :  # shells                           63          :
          :  # electrons                       112          :
          :  max. iterations                   250          :
          :  Hamiltonian                  GFN2-xTB          :
          :  restarted?                      false          :
          :  GBSA solvation                  false          :
          :  PC potential                    false          :
          :  electronic temp.          300.0000000     K    :
          :  accuracy                    1.0000000          :
          :  -> integral cutoff          0.2500000E+02      :
          :  -> integral neglect         0.1000000E-07      :
          :  -> SCF convergence          0.1000000E-05 Eh   :
          :  -> wf. convergence          0.1000000E-03 e    :
          :  Broyden damping             0.4000000          :
          :  net charge                          0          :
          :  unpaired electrons                  0          :
          ...................................................

 iter      E             dE          RMSdq      gap      omega  full diag
   1    -63.1516983 -0.631517E+02  0.231E-04    3.24       0.0  T
   2    -63.1516983 -0.166288E-09  0.155E-04    3.24      99.6  T
   3    -63.1516984 -0.114738E-09  0.106E-04    3.24     145.3  T

   *** convergence criteria satisfied after 3 iterations ***

         #    Occupation            Energy/Eh            Energy/eV
      -------------------------------------------------------------
         1        2.0000           -0.7463421             -20.3090
       ...           ...                  ...                  ...
        50        2.0000           -0.4242704             -11.5450
        51        2.0000           -0.4166522             -11.3377
        52        2.0000           -0.4128599             -11.2345
        53        2.0000           -0.4059698             -11.0470
        54        2.0000           -0.3970280             -10.8037
        55        2.0000           -0.3771801             -10.2636
        56        2.0000           -0.3585498              -9.7566 (HOMO)
        57                         -0.2393600              -6.5133 (LUMO)
        58                         -0.2249399              -6.1209
        59                         -0.1957397              -5.3263
        60                         -0.1562845              -4.2527
        61                         -0.0707732              -1.9258
       ...                                ...                  ...
       105                          0.7204708              19.6050
      -------------------------------------------------------------
                  HL-Gap            0.1191898 Eh            3.2433 eV
             Fermi-level           -0.2989549 Eh           -8.1350 eV

 SCC (total)                   0 d,  0 h,  0 min,  0.078 sec
 SCC setup                      ...        0 min,  0.000 sec (  0.409%)
 Dispersion                     ...        0 min,  0.000 sec (  0.394%)
 classical contributions        ...        0 min,  0.000 sec (  0.189%)
 integral evaluation            ...        0 min,  0.007 sec (  9.422%)
 iterations                     ...        0 min,  0.046 sec ( 59.102%)
 molecular gradient             ...        0 min,  0.024 sec ( 30.287%)
 printout                       ...        0 min,  0.000 sec (  0.186%)

         :::::::::::::::::::::::::::::::::::::::::::::::::::::
         ::                     SUMMARY                     ::
         :::::::::::::::::::::::::::::::::::::::::::::::::::::
         :: total energy             -62.291994030100 Eh    ::
         :: gradient norm              0.000680644295 Eh/a0 ::
         :: HOMO-LUMO gap              3.243319872038 eV    ::
         ::.................................................::
         :: SCC energy               -63.151037026741 Eh    ::
         :: -> isotropic ES            0.074263023869 Eh    ::
         :: -> anisotropic ES          0.009652414054 Eh    ::
         :: -> anisotropic XC          0.017472799073 Eh    ::
         :: -> dispersion             -0.045379547627 Eh    ::
         :: repulsion energy           0.859042996641 Eh    ::
         :: add. restraining           0.000000000000 Eh    ::
         :: total charge              -0.000000000000 e     ::
         :::::::::::::::::::::::::::::::::::::::::::::::::::::

           -------------------------------------------------
          |                Property Printout                |
           -------------------------------------------------

    * Orbital Energies and Occupations

         #    Occupation            Energy/Eh            Energy/eV
      -------------------------------------------------------------
         1        2.0000           -0.7463421             -20.3090
       ...           ...                  ...                  ...
        44        2.0000           -0.4545231             -12.3682
        45        2.0000           -0.4483629             -12.2006
        46        2.0000           -0.4423953             -12.0382
        47        2.0000           -0.4400575             -11.9746
        48        2.0000           -0.4364633             -11.8768
        49        2.0000           -0.4336945             -11.8014
        50        2.0000           -0.4242704             -11.5450
        51        2.0000           -0.4166522             -11.3377
        52        2.0000           -0.4128599             -11.2345
        53        2.0000           -0.4059698             -11.0470
        54        2.0000           -0.3970280             -10.8037
        55        2.0000           -0.3771801             -10.2636
        56        2.0000           -0.3585498              -9.7566 (HOMO)
        57                         -0.2393600              -6.5133 (LUMO)
        58                         -0.2249399              -6.1209
        59                         -0.1957397              -5.3263
        60                         -0.1562845              -4.2527
        61                         -0.0707732              -1.9258
        62                          0.0000529               0.0014
        63                          0.0117594               0.3200
        64                          0.0474109               1.2901
        65                          0.0550129               1.4970
        66                          0.0770619               2.0970
        67                          0.0863016               2.3484
       ...                                ...                  ...
       105                          0.7204708              19.6050
      -------------------------------------------------------------
                  HL-Gap            0.1191898 Eh            3.2433 eV
             Fermi-level           -0.2989549 Eh           -8.1350 eV

     #   Z          covCN         q      C6AA      α(0)
     1   6 C        3.753    -0.099    22.440     6.755
     2   6 C        3.805    -0.056    21.571     6.612
     3   6 C        2.960    -0.011    28.277     8.722
     4   6 C        2.929    -0.047    29.165     8.857
     5   6 C        2.919    -0.043    29.059     8.840
     6   6 C        2.911    -0.041    29.015     8.833
     7   6 C        3.108    -0.022    28.406     8.732
     8   6 C        3.094     0.037    27.055     8.525
     9   7 N        2.775    -0.118    23.575     7.211
    10   6 C        3.088     0.018    27.510     8.598
    11   6 C        3.072    -0.034    28.762     8.794
    12   6 C        3.805    -0.064    21.724     6.635
    13   6 C        3.698     0.081    19.396     6.299
    14   8 O        1.701    -0.319    19.331     5.936
    15   6 C        3.794     0.146    18.233     6.080
    16   6 C        3.804    -0.062    21.692     6.631
    17   6 C        3.752    -0.103    22.533     6.769
    18   6 C        3.805    -0.099    22.388     6.736
    19   6 C        2.690     0.369    20.737     7.453
    20   8 O        1.660    -0.370    20.273     6.078
    21   8 O        0.856    -0.411    21.902     6.275
    22   1 H        0.925     0.035     2.523     2.484
    23   1 H        0.925     0.031     2.576     2.510
    24   1 H        0.925     0.038     2.469     2.457
    25   1 H        0.924     0.038     2.482     2.464
    26   1 H        0.924     0.027     2.628     2.535
    27   1 H        0.926     0.027     2.633     2.538
    28   1 H        0.926     0.026     2.648     2.545
    29   1 H        0.926     0.027     2.632     2.537
    30   1 H        0.860     0.160     1.334     1.809
    31   1 H        0.924     0.040     2.449     2.447
    32   1 H        0.924     0.047     2.354     2.399
    33   1 H        0.923     0.025     2.660     2.550
    34   1 H        0.924     0.048     2.348     2.396
    35   1 H        0.925     0.062     2.172     2.305
    36   1 H        0.924     0.032     2.553     2.499
    37   1 H        0.925     0.054     2.274     2.358
    38   1 H        0.925     0.040     2.452     2.449
    39   1 H        0.925     0.037     2.495     2.470
    40   1 H        0.925     0.064     2.154     2.295
    41   1 H        0.925     0.060     2.200     2.319
    42   1 H        0.804     0.330     0.638     1.254

 Mol. C6AA /au·bohr⁶  :      17930.228638
 Mol. C8AA /au·bohr⁸  :     415652.120182
 Mol. α(0) /au        :        204.990938


Wiberg/Mayer (AO) data.
largest (>0.10) Wiberg bond orders for each atom

 ---------------------------------------------------------------------------
     #   Z sym  total        # sym  WBO       # sym  WBO       # sym  WBO
 ---------------------------------------------------------------------------
     1   6 C    3.996 --     2 C    1.003    24 H    0.989    23 H    0.988
                            22 H    0.987
     2   6 C    3.997 --     3 C    1.009     1 C    1.003    25 H    0.976
                            26 H    0.972
     3   6 C    3.985 --     4 C    1.465     8 C    1.316     2 C    1.009
                             6 C    0.109
     4   6 C    3.987 --     3 C    1.465     5 C    1.373    27 H    0.970
     5   6 C    3.991 --     6 C    1.504     4 C    1.373    28 H    0.972
     6   6 C    3.988 --     5 C    1.504     7 C    1.326    29 H    0.970
                             3 C    0.109
     7   6 C    3.983 --     6 C    1.326     8 C    1.251    11 C    1.206
     8   6 C    3.953 --     3 C    1.316     7 C    1.251     9 N    1.167
     9   7 N    3.525 --    10 C    1.172     8 C    1.167    30 H    0.942
    10   6 C    3.950 --    11 C    1.549     9 N    1.172    15 C    0.987
    11   6 C    3.972 --    10 C    1.549     7 C    1.206    12 C    1.015
    12   6 C    3.997 --    11 C    1.015    13 C    0.993    31 H    0.970
                            32 H    0.963
    13   6 C    3.953 --    12 C    0.993    14 O    0.981    34 H    0.970
                            33 H    0.969
    14   8 O    2.086 --    13 C    0.981    15 C    0.973
    15   6 C    3.952 --    10 C    0.987    14 O    0.973    16 C    0.968
                            18 C    0.921
    16   6 C    3.990 --    17 C    1.019    36 H    0.975    35 H    0.972
                            15 C    0.968
    17   6 C    3.995 --    16 C    1.019    39 H    0.987    38 H    0.986
                            37 H    0.986
    18   6 C    3.991 --    19 C    0.981    40 H    0.970    41 H    0.966
                            15 C    0.921
    19   6 C    3.913 --    21 O    1.760    20 O    1.138    18 C    0.981
    20   8 O    2.207 --    19 C    1.138    42 H    0.866    21 O    0.174
    21   8 O    2.034 --    19 C    1.760    20 O    0.174
    22   1 H    0.998 --     1 C    0.987
    23   1 H    0.999 --     1 C    0.988
    24   1 H    0.999 --     1 C    0.989
    25   1 H    0.998 --     2 C    0.976
    26   1 H    0.999 --     2 C    0.972
    27   1 H    0.999 --     4 C    0.970
    28   1 H    0.999 --     5 C    0.972
    29   1 H    0.998 --     6 C    0.970
    30   1 H    0.974 --     9 N    0.942
    31   1 H    0.998 --    12 C    0.970
    32   1 H    0.997 --    12 C    0.963
    33   1 H    0.999 --    13 C    0.969
    34   1 H    0.997 --    13 C    0.970
    35   1 H    0.996 --    16 C    0.972
    36   1 H    0.999 --    16 C    0.975
    37   1 H    0.997 --    17 C    0.986
    38   1 H    0.998 --    17 C    0.986
    39   1 H    0.999 --    17 C    0.987
    40   1 H    0.996 --    18 C    0.970
    41   1 H    0.996 --    18 C    0.966
    42   1 H    0.891 --    20 O    0.866
 ---------------------------------------------------------------------------

Topologies differ in total number of bonds
Writing topology from bond orders to xtbtopo.mol

molecular dipole:
                 x           y           z       tot (Debye)
 q only:       -0.367       0.247      -0.285
   full:       -0.351       0.496      -0.148       1.590
molecular quadrupole (traceless):
                xx          xy          yy          xz          yz          zz
 q only:        2.966       1.664       2.983     -12.521      -1.531      -5.949
  q+dip:        6.947       2.694      -0.952     -13.297       0.328      -5.995
   full:        5.207       2.874       2.135     -13.828      -0.135      -7.342

           -------------------------------------------------
          |                Geometry Summary                 |
           -------------------------------------------------

      molecular mass/u    :      287.3541840
   center of mass at/Å    :        0.2963955       0.0785536      -0.0057689
  moments of inertia/u·Å² :        0.9199703E+03   0.2526747E+04   0.2887031E+04
rotational constants/cm⁻¹ :        0.1832411E-01   0.6671674E-02   0.5839090E-02

 * 41 selected distances

     #   Z          #   Z                                           value/Å
     1   6 C        2   6 C                                       1.5304638
     3   6 C        4   6 C                                       1.3818522
     4   6 C        5   6 C                                       1.3970627
     5   6 C        6   6 C                                       1.3755257
     6   6 C        7   6 C                                       1.3945522
     3   6 C        8   6 C                                       1.3945310
     7   6 C        8   6 C                                       1.4170893
     8   6 C        9   7 N                                       1.3691329
     9   7 N       10   6 C                                       1.3714994
     7   6 C       11   6 C                                       1.4252746
    10   6 C       11   6 C                                       1.3651091
    11   6 C       12   6 C                                       1.4915245
    12   6 C       13   6 C                                       1.5331313
    13   6 C       14   8 O                                       1.4135066
    10   6 C       15   6 C                                       1.4964968
    14   8 O       15   6 C                                       1.4200184
    15   6 C       16   6 C                                       1.5395900 (max)
    16   6 C       17   6 C                                       1.5237995
    19   6 C       20   8 O                                       1.3366302
    19   6 C       21   8 O                                       1.2017951
     1   6 C       22   1 H                                       1.0879340
     1   6 C       23   1 H                                       1.0880478
     1   6 C       24   1 H                                       1.0874240
     2   6 C       25   1 H                                       1.0913696
     2   6 C       26   1 H                                       1.0935386
     4   6 C       27   1 H                                       1.0806617
     5   6 C       28   1 H                                       1.0802190
     6   6 C       29   1 H                                       1.0795030
     9   7 N       30   1 H                                       1.0045738
    12   6 C       31   1 H                                       1.0912383
    12   6 C       32   1 H                                       1.0940485
    13   6 C       33   1 H                                       1.0984675
    13   6 C       34   1 H                                       1.0921159
    16   6 C       35   1 H                                       1.0896638
    16   6 C       36   1 H                                       1.0914594
    17   6 C       37   1 H                                       1.0860842
    17   6 C       38   1 H                                       1.0869920
    17   6 C       39   1 H                                       1.0881617
    18   6 C       40   1 H                                       1.0899472
    18   6 C       41   1 H                                       1.0890223
    20   8 O       42   1 H                                       0.9701765 (min)

 * 6 distinct bonds (by element types)

   Z      Z             #   av. dist./Å        max./Å        min./Å
   1 H    6 C          19     1.0887315     1.0984675     1.0795030
   6 C    6 C          14     1.4475716     1.5395900     1.3651091
   1 H    7 N           1     1.0045738     1.0045738     1.0045738
   6 C    7 N           2     1.3703162     1.3714994     1.3691329
   1 H    8 O           1     0.9701765     0.9701765     0.9701765
   6 C    8 O           4     1.3429876     1.4200184     1.2017951


optimized geometry written to: xtbopt.xyz


           -------------------------------------------------
          | TOTAL ENERGY              -62.291994030100 Eh   |
          | GRADIENT NORM               0.000680644295 Eh/α |
          | HOMO-LUMO GAP               3.243319872038 eV   |
           -------------------------------------------------

------------------------------------------------------------------------
 * finished run on 2025/05/15 at 16:20:28.713     
------------------------------------------------------------------------
 total:
 * wall-time:     0 d,  0 h,  0 min,  1.578 sec
 *  cpu-time:     0 d,  0 h,  0 min,  0.888 sec
 * ratio c/w:     0.563 speedup
 SCF:
 * wall-time:     0 d,  0 h,  0 min,  0.079 sec
 *  cpu-time:     0 d,  0 h,  0 min,  0.056 sec
 * ratio c/w:     0.703 speedup
 ANC optimizer:
 * wall-time:     0 d,  0 h,  0 min,  1.486 sec
 *  cpu-time:     0 d,  0 h,  0 min,  0.821 sec
 * ratio c/w:     0.552 speedup



----- Single-point -----
      -----------------------------------------------------------      
     |                   =====================                   |     
     |                           x T B                           |     
     |                   =====================                   |     
     |                         S. Grimme                         |     
     |          Mulliken Center for Theoretical Chemistry        |     
     |                    University of Bonn                     |     
      -----------------------------------------------------------      

   * xtb version 6.7.1 (edcfbbe) compiled by 'conda@3ef47c1a292c' on 2024-11-25

   xtb is free software: you can redistribute it and/or modify it under
   the terms of the GNU Lesser General Public License as published by
   the Free Software Foundation, either version 3 of the License, or
   (at your option) any later version.
   
   xtb is distributed in the hope that it will be useful,
   but WITHOUT ANY WARRANTY; without even the implied warranty of
   MERCHANTABILITY or FITNESS FOR A PARTICULAR PURPOSE.  See the
   GNU Lesser General Public License for more details.
   
   Cite this work as:
   * C. Bannwarth, E. Caldeweyher, S. Ehlert, A. Hansen, P. Pracht,
     J. Seibert, S. Spicher, S. Grimme, WIREs Comput. Mol. Sci., 2020, 11,
     e01493. DOI: 10.1002/wcms.1493
   
   for GFN2-xTB:
   * C. Bannwarth, S. Ehlert and S. Grimme., J. Chem. Theory Comput., 2019,
     15, 1652-1671. DOI: 10.1021/acs.jctc.8b01176
   for GFN1-xTB:
   * S. Grimme, C. Bannwarth, P. Shushkov, J. Chem. Theory Comput., 2017,
     13, 1989-2009. DOI: 10.1021/acs.jctc.7b00118
   for GFN0-xTB:
   * P. Pracht, E. Caldeweyher, S. Ehlert, S. Grimme, ChemRxiv, 2019, preprint.
     DOI: 10.26434/chemrxiv.8326202.v1
   for GFN-FF:
   * S. Spicher and S. Grimme, Angew. Chem. Int. Ed., 2020, 59, 15665-15673.
     DOI: 10.1002/anie.202004239
   
   for ALPB and GBSA implicit solvation:
   * S. Ehlert, M. Stahn, S. Spicher, S. Grimme, J. Chem. Theory Comput.,
     2021, 17, 4250-4261. DOI: 10.1021/acs.jctc.1c00471
   
   for ddCOSMO and CPCM-X implicit solvation:
   * M. Stahn, S. Ehlert, S. Grimme, J. Phys. Chem. A,
     2023, XX, XXXX-XXXX. DOI: 10.1021/acs.jpca.3c04382
   
   for DFT-D4:
   * E. Caldeweyher, C. Bannwarth and S. Grimme, J. Chem. Phys., 2017,
     147, 034112. DOI: 10.1063/1.4993215
   * E. Caldeweyher, S. Ehlert, A. Hansen, H. Neugebauer, S. Spicher,
     C. Bannwarth and S. Grimme, J. Chem. Phys., 2019, 150, 154122.
     DOI: 10.1063/1.5090222
   * E. Caldeweyher, J.-M. Mewes, S. Ehlert and S. Grimme, Phys. Chem. Chem. Phys.
     2020, 22, 8499-8512. DOI: 10.1039/D0CP00502A
   
   for sTDA-xTB:
   * S. Grimme and C. Bannwarth, J. Chem. Phys., 2016, 145, 054103.
     DOI: 10.1063/1.4959605
   
   in the mass-spec context:
   * V. Asgeirsson, C. Bauer and S. Grimme, Chem. Sci., 2017, 8, 4879.
     DOI: 10.1039/c7sc00601b
   * J. Koopman and S. Grimme, ACS Omega 2019, 4, 12, 15120-15133.
     DOI: 10.1021/acsomega.9b02011
   
   for metadynamics refer to:
   * S. Grimme, J. Chem. Theory Comput., 2019, 155, 2847-2862
     DOI: 10.1021/acs.jctc.9b00143
   
   for SPH calculations refer to:
   * S. Spicher and S. Grimme, J. Chem. Theory Comput., 2021, 17, 1701-1714
     DOI: 10.1021/acs.jctc.0c01306
   
   for ONIOM refer to:
   * C. Plett, A. Katbashev, S. Ehlert, S. Grimme, M. Bursch,
     Phys. Chem. Chem. Phys., 2023, 25, 17860-17868. DOI: 10.1039/D3CP02178E
   
   for DIPRO refer to:
   * J. Kohn, N. Gildemeister, S. Grimme, D. Fazzi, A. Hansen,
     J. Chem. Phys., 2023, just accepted.
   
   for PTB refer to:
   * S. Grimme, M. Mueller, A. Hansen, J. Chem. Phys., 2023, 158, 124111.
     DOI: 10.1063/5.0137838
   
   with help from (in alphabetical order)
   P. Atkinson, C. Bannwarth, F. Bohle, G. Brandenburg, E. Caldeweyher
   M. Checinski, S. Dohm, S. Ehlert, S. Ehrlich, I. Gerasimov, C. Hölzer
   A. Katbashev, J. Kohn, J. Koopman, C. Lavigne, S. Lehtola, F. März, M. Müller,
   F. Musil, H. Neugebauer, J. Pisarek, C. Plett, P. Pracht, F. Pultar,
   J. Seibert, P. Shushkov, S. Spicher, M. Stahn, M. Steiner, T. Strunk,
   J. Stückrath, T. Rose, and J. Unsleber
   
 * started run on 2025/05/15 at 16:20:28.726     
   ID    Z sym.   atoms
    1    6 C      1-8, 10-13, 15-19
    2    7 N      9
    3    8 O      14, 20, 21
    4    1 H      22-42

           -------------------------------------------------
          |                Calculation Setup                |
           -------------------------------------------------

          program call               : xtb /rds/general/user/hgt20/home/callum/QDESCP/Etodolac_rdkit_conf_13/Etodolac_rdkit_conf_13.xyz --acc 1 --gfn 2 --chrg 0 --uhf 0 --etemp 300 --input /rds/general/user/hgt20/home/callum/QDESCP/Etodolac_rdkit_conf_13/Etodolac_rdkit_conf_13_xtb.inp -P 1
          hostname                   : login-c
          coordinate file            : /rds/general/user/hgt20/home/callum/QDESCP/Etodolac_rdkit_conf_13/Etodolac_rdkit_conf_13.xyz
          omp threads                :                     1


           -------------------------------------------------
          |                 G F N 2 - x T B                 |
           -------------------------------------------------

        Reference                      10.1021/acs.jctc.8b01176
      * Hamiltonian:
        H0-scaling (s, p, d)           1.850000    2.230000    2.230000
        zeta-weighting                 0.500000
      * Dispersion:
        s8                             2.700000
        a1                             0.520000
        a2                             5.000000
        s9                             5.000000
      * Repulsion:
        kExp                           1.500000    1.000000
        rExp                           1.000000
      * Coulomb:
        alpha                          2.000000
        third order                    shell-resolved
        anisotropic                    true
        a3                             3.000000
        a5                             4.000000
        cn-shift                       1.200000
        cn-exp                         4.000000
        max-rad                        5.000000

q/qsh data taken from xtbrestart
CAMM data taken from xtbrestart

          ...................................................
          :                      SETUP                      :
          :.................................................:
          :  # basis functions                 105          :
          :  # atomic orbitals                 105          :
          :  # shells                           63          :
          :  # electrons                       112          :
          :  max. iterations                   250          :
          :  Hamiltonian                  GFN2-xTB          :
          :  restarted?                       true          :
          :  GBSA solvation                  false          :
          :  PC potential                    false          :
          :  electronic temp.          300.0000000     K    :
          :  accuracy                    1.0000000          :
          :  -> integral cutoff          0.2500000E+02      :
          :  -> integral neglect         0.1000000E-07      :
          :  -> SCF convergence          0.1000000E-05 Eh   :
          :  -> wf. convergence          0.1000000E-03 e    :
          :  Broyden damping             0.4000000          :
          :  net charge                          0          :
          :  unpaired electrons                  0          :
          ...................................................

 iter      E             dE          RMSdq      gap      omega  full diag
   1    -63.1516984 -0.631517E+02  0.179E-05    3.24       0.0  T
   2    -63.1516984 -0.464695E-11  0.107E-05    3.24    1440.5  T
   3    -63.1516984 -0.205347E-11  0.619E-06    3.24    2494.7  T

   *** convergence criteria satisfied after 3 iterations ***

         #    Occupation            Energy/Eh            Energy/eV
      -------------------------------------------------------------
         1        2.0000           -0.7463421             -20.3090
       ...           ...                  ...                  ...
        50        2.0000           -0.4242703             -11.5450
        51        2.0000           -0.4166522             -11.3377
        52        2.0000           -0.4128597             -11.2345
        53        2.0000           -0.4059695             -11.0470
        54        2.0000           -0.3970280             -10.8037
        55        2.0000           -0.3771802             -10.2636
        56        2.0000           -0.3585497              -9.7566 (HOMO)
        57                         -0.2393601              -6.5133 (LUMO)
        58                         -0.2249399              -6.1209
        59                         -0.1957396              -5.3263
        60                         -0.1562845              -4.2527
        61                         -0.0707728              -1.9258
       ...                                ...                  ...
       105                          0.7204713              19.6050
      -------------------------------------------------------------
                  HL-Gap            0.1191896 Eh            3.2433 eV
             Fermi-level           -0.2989549 Eh           -8.1350 eV

 SCC (total)                   0 d,  0 h,  0 min,  0.084 sec
 SCC setup                      ...        0 min,  0.000 sec (  0.458%)
 Dispersion                     ...        0 min,  0.000 sec (  0.550%)
 classical contributions        ...        0 min,  0.000 sec (  0.173%)
 integral evaluation            ...        0 min,  0.052 sec ( 61.303%)
 iterations                     ...        0 min,  0.007 sec (  8.535%)
 molecular gradient             ...        0 min,  0.024 sec ( 28.716%)
 printout                       ...        0 min,  0.000 sec (  0.255%)

         :::::::::::::::::::::::::::::::::::::::::::::::::::::
         ::                     SUMMARY                     ::
         :::::::::::::::::::::::::::::::::::::::::::::::::::::
         :: total energy             -62.291994030256 Eh    ::
         :: gradient norm              0.000680031596 Eh/a0 ::
         :: HOMO-LUMO gap              3.243314136944 eV    ::
         ::.................................................::
         :: SCC energy               -63.151037026897 Eh    ::
         :: -> isotropic ES            0.074262111543 Eh    ::
         :: -> anisotropic ES          0.009652351998 Eh    ::
         :: -> anisotropic XC          0.017472801068 Eh    ::
         :: -> dispersion             -0.045379550980 Eh    ::
         :: repulsion energy           0.859042996641 Eh    ::
         :: add. restraining           0.000000000000 Eh    ::
         :: total charge              -0.000000000000 e     ::
         :::::::::::::::::::::::::::::::::::::::::::::::::::::

           -------------------------------------------------
          |                Property Printout                |
           -------------------------------------------------

    * Orbital Energies and Occupations

         #    Occupation            Energy/Eh            Energy/eV
      -------------------------------------------------------------
         1        2.0000           -0.7463421             -20.3090
       ...           ...                  ...                  ...
        44        2.0000           -0.4545231             -12.3682
        45        2.0000           -0.4483627             -12.2006
        46        2.0000           -0.4423954             -12.0382
        47        2.0000           -0.4400574             -11.9746
        48        2.0000           -0.4364633             -11.8768
        49        2.0000           -0.4336945             -11.8014
        50        2.0000           -0.4242703             -11.5450
        51        2.0000           -0.4166522             -11.3377
        52        2.0000           -0.4128597             -11.2345
        53        2.0000           -0.4059695             -11.0470
        54        2.0000           -0.3970280             -10.8037
        55        2.0000           -0.3771802             -10.2636
        56        2.0000           -0.3585497              -9.7566 (HOMO)
        57                         -0.2393601              -6.5133 (LUMO)
        58                         -0.2249399              -6.1209
        59                         -0.1957396              -5.3263
        60                         -0.1562845              -4.2527
        61                         -0.0707728              -1.9258
        62                          0.0000525               0.0014
        63                          0.0117592               0.3200
        64                          0.0474106               1.2901
        65                          0.0550128               1.4970
        66                          0.0770620               2.0970
        67                          0.0863017               2.3484
       ...                                ...                  ...
       105                          0.7204713              19.6050
      -------------------------------------------------------------
                  HL-Gap            0.1191896 Eh            3.2433 eV
             Fermi-level           -0.2989549 Eh           -8.1350 eV

     #   Z          covCN         q      C6AA      α(0)
     1   6 C        3.753    -0.099    22.440     6.755
     2   6 C        3.805    -0.056    21.571     6.612
     3   6 C        2.960    -0.011    28.277     8.722
     4   6 C        2.929    -0.047    29.165     8.857
     5   6 C        2.919    -0.043    29.059     8.840
     6   6 C        2.911    -0.041    29.015     8.833
     7   6 C        3.108    -0.022    28.406     8.732
     8   6 C        3.094     0.037    27.055     8.525
     9   7 N        2.775    -0.118    23.575     7.211
    10   6 C        3.088     0.018    27.510     8.598
    11   6 C        3.072    -0.034    28.762     8.794
    12   6 C        3.805    -0.064    21.724     6.635
    13   6 C        3.698     0.081    19.396     6.299
    14   8 O        1.701    -0.319    19.331     5.936
    15   6 C        3.794     0.146    18.233     6.080
    16   6 C        3.804    -0.062    21.692     6.631
    17   6 C        3.752    -0.103    22.533     6.769
    18   6 C        3.805    -0.099    22.388     6.736
    19   6 C        2.690     0.369    20.737     7.453
    20   8 O        1.660    -0.370    20.273     6.078
    21   8 O        0.856    -0.411    21.902     6.275
    22   1 H        0.925     0.035     2.523     2.484
    23   1 H        0.925     0.031     2.576     2.510
    24   1 H        0.925     0.038     2.469     2.457
    25   1 H        0.924     0.038     2.482     2.464
    26   1 H        0.924     0.027     2.628     2.535
    27   1 H        0.926     0.027     2.633     2.538
    28   1 H        0.926     0.026     2.648     2.545
    29   1 H        0.926     0.027     2.632     2.537
    30   1 H        0.860     0.160     1.334     1.809
    31   1 H        0.924     0.040     2.449     2.447
    32   1 H        0.924     0.047     2.354     2.399
    33   1 H        0.923     0.025     2.660     2.550
    34   1 H        0.924     0.048     2.348     2.396
    35   1 H        0.925     0.062     2.172     2.305
    36   1 H        0.924     0.032     2.553     2.499
    37   1 H        0.925     0.054     2.274     2.358
    38   1 H        0.925     0.040     2.452     2.449
    39   1 H        0.925     0.037     2.495     2.470
    40   1 H        0.925     0.064     2.154     2.295
    41   1 H        0.925     0.060     2.200     2.319
    42   1 H        0.804     0.330     0.638     1.254

 Mol. C6AA /au·bohr⁶  :      17930.228977
 Mol. C8AA /au·bohr⁸  :     415652.120279
 Mol. α(0) /au        :        204.990940


Wiberg/Mayer (AO) data.
largest (>0.10) Wiberg bond orders for each atom

 ---------------------------------------------------------------------------
     #   Z sym  total        # sym  WBO       # sym  WBO       # sym  WBO
 ---------------------------------------------------------------------------
     1   6 C    3.996 --     2 C    1.003    24 H    0.989    23 H    0.988
                            22 H    0.987
     2   6 C    3.997 --     3 C    1.009     1 C    1.003    25 H    0.976
                            26 H    0.972
     3   6 C    3.985 --     4 C    1.465     8 C    1.316     2 C    1.009
                             6 C    0.109
     4   6 C    3.987 --     3 C    1.465     5 C    1.373    27 H    0.970
     5   6 C    3.991 --     6 C    1.504     4 C    1.373    28 H    0.972
     6   6 C    3.988 --     5 C    1.504     7 C    1.326    29 H    0.970
                             3 C    0.109
     7   6 C    3.983 --     6 C    1.326     8 C    1.251    11 C    1.206
     8   6 C    3.953 --     3 C    1.316     7 C    1.251     9 N    1.167
     9   7 N    3.525 --    10 C    1.172     8 C    1.167    30 H    0.942
    10   6 C    3.950 --    11 C    1.549     9 N    1.172    15 C    0.987
    11   6 C    3.972 --    10 C    1.549     7 C    1.206    12 C    1.015
    12   6 C    3.997 --    11 C    1.015    13 C    0.993    31 H    0.970
                            32 H    0.963
    13   6 C    3.953 --    12 C    0.993    14 O    0.981    34 H    0.970
                            33 H    0.969
    14   8 O    2.086 --    13 C    0.981    15 C    0.973
    15   6 C    3.952 --    10 C    0.987    14 O    0.973    16 C    0.968
                            18 C    0.921
    16   6 C    3.990 --    17 C    1.019    36 H    0.975    35 H    0.972
                            15 C    0.968
    17   6 C    3.995 --    16 C    1.019    39 H    0.987    38 H    0.986
                            37 H    0.986
    18   6 C    3.991 --    19 C    0.981    40 H    0.970    41 H    0.966
                            15 C    0.921
    19   6 C    3.913 --    21 O    1.760    20 O    1.138    18 C    0.981
    20   8 O    2.207 --    19 C    1.138    42 H    0.866    21 O    0.174
    21   8 O    2.034 --    19 C    1.760    20 O    0.174
    22   1 H    0.998 --     1 C    0.987
    23   1 H    0.999 --     1 C    0.988
    24   1 H    0.999 --     1 C    0.989
    25   1 H    0.998 --     2 C    0.976
    26   1 H    0.999 --     2 C    0.972
    27   1 H    0.999 --     4 C    0.970
    28   1 H    0.999 --     5 C    0.972
    29   1 H    0.998 --     6 C    0.970
    30   1 H    0.974 --     9 N    0.942
    31   1 H    0.998 --    12 C    0.970
[...]
   for GFN-FF:
   * S. Spicher and S. Grimme, Angew. Chem. Int. Ed., 2020, 59, 15665-15673.
     DOI: 10.1002/anie.202004239
   
   for ALPB and GBSA implicit solvation:
   * S. Ehlert, M. Stahn, S. Spicher, S. Grimme, J. Chem. Theory Comput.,
     2021, 17, 4250-4261. DOI: 10.1021/acs.jctc.1c00471
   
   for ddCOSMO and CPCM-X implicit solvation:
   * M. Stahn, S. Ehlert, S. Grimme, J. Phys. Chem. A,
     2023, XX, XXXX-XXXX. DOI: 10.1021/acs.jpca.3c04382
   
   for DFT-D4:
   * E. Caldeweyher, C. Bannwarth and S. Grimme, J. Chem. Phys., 2017,
     147, 034112. DOI: 10.1063/1.4993215
   * E. Caldeweyher, S. Ehlert, A. Hansen, H. Neugebauer, S. Spicher,
     C. Bannwarth and S. Grimme, J. Chem. Phys., 2019, 150, 154122.
     DOI: 10.1063/1.5090222
   * E. Caldeweyher, J.-M. Mewes, S. Ehlert and S. Grimme, Phys. Chem. Chem. Phys.
     2020, 22, 8499-8512. DOI: 10.1039/D0CP00502A
   
   for sTDA-xTB:
   * S. Grimme and C. Bannwarth, J. Chem. Phys., 2016, 145, 054103.
     DOI: 10.1063/1.4959605
   
   in the mass-spec context:
   * V. Asgeirsson, C. Bauer and S. Grimme, Chem. Sci., 2017, 8, 4879.
     DOI: 10.1039/c7sc00601b
   * J. Koopman and S. Grimme, ACS Omega 2019, 4, 12, 15120-15133.
     DOI: 10.1021/acsomega.9b02011
   
   for metadynamics refer to:
   * S. Grimme, J. Chem. Theory Comput., 2019, 155, 2847-2862
     DOI: 10.1021/acs.jctc.9b00143
   
   for SPH calculations refer to:
   * S. Spicher and S. Grimme, J. Chem. Theory Comput., 2021, 17, 1701-1714
     DOI: 10.1021/acs.jctc.0c01306
   
   for ONIOM refer to:
   * C. Plett, A. Katbashev, S. Ehlert, S. Grimme, M. Bursch,
     Phys. Chem. Chem. Phys., 2023, 25, 17860-17868. DOI: 10.1039/D3CP02178E
   
   for DIPRO refer to:
   * J. Kohn, N. Gildemeister, S. Grimme, D. Fazzi, A. Hansen,
     J. Chem. Phys., 2023, just accepted.
   
   for PTB refer to:
   * S. Grimme, M. Mueller, A. Hansen, J. Chem. Phys., 2023, 158, 124111.
     DOI: 10.1063/5.0137838
   
   with help from (in alphabetical order)
   P. Atkinson, C. Bannwarth, F. Bohle, G. Brandenburg, E. Caldeweyher
   M. Checinski, S. Dohm, S. Ehlert, S. Ehrlich, I. Gerasimov, C. Hölzer
   A. Katbashev, J. Kohn, J. Koopman, C. Lavigne, S. Lehtola, F. März, M. Müller,
   F. Musil, H. Neugebauer, J. Pisarek, C. Plett, P. Pracht, F. Pultar,
   J. Seibert, P. Shushkov, S. Spicher, M. Stahn, M. Steiner, T. Strunk,
   J. Stückrath, T. Rose, and J. Unsleber
   
 * started run on 2025/05/15 at 16:20:31.210     
   ID    Z sym.   atoms
    1    6 C      1-8, 10-13, 15-19
    2    7 N      9
    3    8 O      14, 20, 21
    4    1 H      22-42

           -------------------------------------------------
          |                Calculation Setup                |
           -------------------------------------------------

          program call               : xtb /rds/general/user/hgt20/home/callum/QDESCP/Etodolac_rdkit_conf_13/Etodolac_rdkit_conf_13.xyz --acc 1 --gfn 2 --chrg 0 --uhf 2 --etemp 300 --input /rds/general/user/hgt20/home/callum/QDESCP/Etodolac_rdkit_conf_13/Etodolac_rdkit_conf_13_xtb.inp -P 1
          hostname                   : login-c
          coordinate file            : /rds/general/user/hgt20/home/callum/QDESCP/Etodolac_rdkit_conf_13/Etodolac_rdkit_conf_13.xyz
          omp threads                :                     1


           -------------------------------------------------
          |                 G F N 2 - x T B                 |
           -------------------------------------------------

        Reference                      10.1021/acs.jctc.8b01176
      * Hamiltonian:
        H0-scaling (s, p, d)           1.850000    2.230000    2.230000
        zeta-weighting                 0.500000
      * Dispersion:
        s8                             2.700000
        a1                             0.520000
        a2                             5.000000
        s9                             5.000000
      * Repulsion:
        kExp                           1.500000    1.000000
        rExp                           1.000000
      * Coulomb:
        alpha                          2.000000
        third order                    shell-resolved
        anisotropic                    true
        a3                             3.000000
        a5                             4.000000
        cn-shift                       1.200000
        cn-exp                         4.000000
        max-rad                        5.000000


          ...................................................
          :                      SETUP                      :
          :.................................................:
          :  # basis functions                 105          :
          :  # atomic orbitals                 105          :
          :  # shells                           63          :
          :  # electrons                       112          :
          :  max. iterations                   250          :
          :  Hamiltonian                  GFN2-xTB          :
          :  restarted?                      false          :
          :  GBSA solvation                  false          :
          :  PC potential                    false          :
          :  electronic temp.          300.0000000     K    :
          :  accuracy                    1.0000000          :
          :  -> integral cutoff          0.2500000E+02      :
          :  -> integral neglect         0.1000000E-07      :
          :  -> SCF convergence          0.1000000E-05 Eh   :
          :  -> wf. convergence          0.1000000E-03 e    :
          :  Broyden damping             0.4000000          :
          :  net charge                          0          :
          :  unpaired electrons                  2          :
          ...................................................

 iter      E             dE          RMSdq      gap      omega  full diag
   1    -62.8376662 -0.628377E+02  0.387E+00    0.94       0.0  T
   2    -62.7719867  0.656795E-01  0.314E+00    0.50       1.0  T
   3    -62.6208348  0.151152E+00  0.225E+00    0.88       1.0  T
   4    -62.7828838 -0.162049E+00  0.219E+00    1.02       1.0  T
   5    -62.9719372 -0.189053E+00  0.125E+00    0.54       1.0  T
   6    -63.0112508 -0.393136E-01  0.759E-01    0.41       1.0  T
   7    -63.0165039 -0.525306E-02  0.653E-01    0.46       1.0  T
   8    -63.0174437 -0.939804E-03  0.527E-01    0.56       1.0  T
   9    -63.0208687 -0.342501E-02  0.183E-01    0.57       1.0  T
  10    -63.0214275 -0.558866E-03  0.676E-02    0.54       1.0  T
  11    -63.0216133 -0.185728E-03  0.335E-02    0.51       1.0  T
  12    -63.0216383 -0.250399E-04  0.197E-02    0.50       1.0  T
  13    -63.0216489 -0.105461E-04  0.449E-03    0.50       3.4  T
  14    -63.0216495 -0.639766E-06  0.162E-03    0.50       9.5  T
  15    -63.0216496 -0.652079E-07  0.777E-04    0.50      19.9  T
  16    -63.0216496 -0.107168E-07  0.336E-04    0.50      45.9  T

   *** convergence criteria satisfied after 16 iterations ***

         #    Occupation            Energy/Eh            Energy/eV
      -------------------------------------------------------------
         1        2.0000           -0.7293273             -19.8460
       ...           ...                  ...                  ...
        51        2.0000           -0.4179301             -11.3725
        52        2.0000           -0.4143018             -11.2737
        53        2.0000           -0.4064021             -11.0588
        54        2.0000           -0.3987957             -10.8518
        55        1.9996           -0.3825670             -10.4102
        56        1.0004           -0.3676825             -10.0051
        57        0.9999           -0.2346201              -6.3843 (HOMO)
        58        0.0001           -0.2162235              -5.8837 (LUMO)
        59                         -0.2018035              -5.4914
        60                         -0.1653828              -4.5003
        61                         -0.0763063              -2.0764
        62                         -0.0062941              -0.1713
       ...                                ...                  ...
       105                          0.7130925              19.4042
      -------------------------------------------------------------
                  HL-Gap            0.0183966 Eh            0.5006 eV
             Fermi-level           -0.3002733 Eh           -8.1709 eV

 transition dipole moment (au) for excitation:          56          57
     X       Y       Z   
   0.2893   0.4137   1.6730  total (au/Debye):    1.748   4.442
 dE (eV)             :    3.621
 oscillator strength :  0.38310E+00

 SCC (total)                   0 d,  0 h,  0 min,  0.167 sec
 SCC setup                      ...        0 min,  0.000 sec (  0.240%)
 Dispersion                     ...        0 min,  0.000 sec (  0.292%)
 classical contributions        ...        0 min,  0.000 sec (  0.089%)
 integral evaluation            ...        0 min,  0.008 sec (  4.657%)
 iterations                     ...        0 min,  0.076 sec ( 45.560%)
 molecular gradient             ...        0 min,  0.024 sec ( 14.402%)
 printout                       ...        0 min,  0.058 sec ( 34.755%)

         :::::::::::::::::::::::::::::::::::::::::::::::::::::
         ::                     SUMMARY                     ::
         :::::::::::::::::::::::::::::::::::::::::::::::::::::
         :: total energy             -62.161945247693 Eh    ::
         :: gradient norm              0.155311894786 Eh/a0 ::
         :: HOMO-LUMO gap              0.500597434997 eV    ::
         ::.................................................::
         :: SCC energy               -63.020988244334 Eh    ::
         :: -> isotropic ES            0.077378504673 Eh    ::
         :: -> anisotropic ES          0.008654239389 Eh    ::
         :: -> anisotropic XC          0.016931468044 Eh    ::
         :: -> dispersion             -0.045284758352 Eh    ::
         :: repulsion energy           0.859042996641 Eh    ::
         :: add. restraining           0.000000000000 Eh    ::
         :: total charge              -0.000000000001 e     ::
         :::::::::::::::::::::::::::::::::::::::::::::::::::::

           -------------------------------------------------
          |                Property Printout                |
           -------------------------------------------------

    * Orbital Energies and Occupations

         #    Occupation            Energy/Eh            Energy/eV
      -------------------------------------------------------------
         1        2.0000           -0.7293273             -19.8460
       ...           ...                  ...                  ...
        45        2.0000           -0.4531225             -12.3301
        46        2.0000           -0.4453518             -12.1186
        47        2.0000           -0.4440040             -12.0820
        48        2.0000           -0.4381588             -11.9229
        49        2.0000           -0.4327034             -11.7745
        50        2.0000           -0.4263817             -11.6024
        51        2.0000           -0.4179301             -11.3725
        52        2.0000           -0.4143018             -11.2737
        53        2.0000           -0.4064021             -11.0588
        54        2.0000           -0.3987957             -10.8518
        55        1.9996           -0.3825670             -10.4102
        56        1.0004           -0.3676825             -10.0051
        57        0.9999           -0.2346201              -6.3843 (HOMO)
        58        0.0001           -0.2162235              -5.8837 (LUMO)
        59                         -0.2018035              -5.4914
        60                         -0.1653828              -4.5003
        61                         -0.0763063              -2.0764
        62                         -0.0062941              -0.1713
        63                          0.0084181               0.2291
        64                          0.0497528               1.3538
        65                          0.0628367               1.7099
        66                          0.0725111               1.9731
        67                          0.0828837               2.2554
        68                          0.0957814               2.6063
       ...                                ...                  ...
       105                          0.7130925              19.4042
      -------------------------------------------------------------
                  HL-Gap            0.0183966 Eh            0.5006 eV
             Fermi-level           -0.3002733 Eh           -8.1709 eV

     #   Z          covCN         q      C6AA      α(0)
     1   6 C        3.753    -0.098    22.438     6.755
     2   6 C        3.805    -0.055    21.564     6.611
     3   6 C        2.960    -0.020    28.498     8.756
     4   6 C        2.929    -0.044    29.084     8.844
     5   6 C        2.919    -0.041    29.008     8.832
     6   6 C        2.911    -0.043    29.075     8.842
     7   6 C        3.108    -0.032    28.643     8.769
     8   6 C        3.094     0.039    27.017     8.519
     9   7 N        2.775    -0.099    23.175     7.150
    10   6 C        3.088     0.007    27.766     8.637
    11   6 C        3.072    -0.001    27.981     8.673
    12   6 C        3.805    -0.066    21.765     6.642
    13   6 C        3.698     0.080    19.397     6.299
    14   8 O        1.701    -0.315    19.265     5.926
    15   6 C        3.794     0.145    18.258     6.085
    16   6 C        3.804    -0.064    21.716     6.634
    17   6 C        3.752    -0.104    22.538     6.770
    18   6 C        3.805    -0.098    22.363     6.732
    19   6 C        2.690     0.352    21.017     7.503
    20   8 O        1.660    -0.386    20.585     6.125
    21   8 O        0.856    -0.438    22.453     6.353
    22   1 H        0.925     0.036     2.506     2.476
    23   1 H        0.925     0.031     2.574     2.509
    24   1 H        0.925     0.039     2.457     2.451
    25   1 H        0.924     0.039     2.463     2.454
    26   1 H        0.924     0.027     2.629     2.536
    27   1 H        0.926     0.028     2.618     2.530
    28   1 H        0.926     0.027     2.626     2.534
    29   1 H        0.926     0.025     2.663     2.552
    30   1 H        0.860     0.169     1.279     1.771
    31   1 H        0.924     0.051     2.304     2.374
    32   1 H        0.924     0.065     2.143     2.289
    33   1 H        0.923     0.030     2.587     2.515
    34   1 H        0.924     0.052     2.300     2.372
    35   1 H        0.925     0.068     2.106     2.270
    36   1 H        0.924     0.033     2.550     2.497
    37   1 H        0.925     0.053     2.283     2.363
    38   1 H        0.925     0.041     2.439     2.442
    39   1 H        0.925     0.033     2.539     2.492
    40   1 H        0.925     0.056     2.241     2.341
    41   1 H        0.925     0.053     2.277     2.360
    42   1 H        0.804     0.324     0.653     1.270

 Mol. C6AA /au·bohr⁶  :      17909.333393
 Mol. C8AA /au·bohr⁸  :     415400.264734
 Mol. α(0) /au        :        204.853903


Wiberg/Mayer (AO) data.
largest (>0.10) Wiberg bond orders for each atom

 ---------------------------------------------------------------------------
     #   Z sym  total        # sym  WBO       # sym  WBO       # sym  WBO
 ---------------------------------------------------------------------------
     1   6 C    3.988 --     2 C    0.993    24 H    0.988    23 H    0.988
                            22 H    0.986
     2   6 C    3.996 --     3 C    1.018     1 C    0.993    25 H    0.974
                            26 H    0.969
     3   6 C    3.839 --     8 C    1.356     4 C    1.167     2 C    1.018
                            10 C    0.104
     4   6 C    3.897 --     5 C    1.512     3 C    1.167    27 H    0.970
     5   6 C    3.983 --     4 C    1.512     6 C    1.338    28 H    0.971
     6   6 C    3.807 --     5 C    1.338     7 C    1.187    29 H    0.970
                            11 C    0.105
     7   6 C    3.962 --    11 C    1.312     8 C    1.251     6 C    1.187
     8   6 C    3.950 --     3 C    1.356     7 C    1.251     9 N    1.128
     9   7 N    3.554 --    10 C    1.237     8 C    1.128    30 H    0.939
    10   6 C    3.842 --     9 N    1.237    11 C    1.206    15 C    1.007
                             3 C    0.104
    11   6 C    3.893 --     7 C    1.312    10 C    1.206    12 C    1.035
                             6 C    0.105
    12   6 C    3.995 --    11 C    1.035    13 C    0.990    31 H    0.962
                            32 H    0.943
    13   6 C    3.954 --    12 C    0.990    14 O    0.985    34 H    0.970
                            33 H    0.968
    14   8 O    2.087 --    13 C    0.985    15 C    0.971
    15   6 C    3.950 --    10 C    1.007    14 O    0.971    16 C    0.962
                            18 C    0.906
    16   6 C    3.985 --    17 C    1.019    36 H    0.975    35 H    0.970
                            15 C    0.962
    17   6 C    3.994 --    16 C    1.019    39 H    0.987    38 H    0.986
                            37 H    0.986
    18   6 C    3.983 --    19 C    0.983    40 H    0.972    41 H    0.968
                            15 C    0.906
    19   6 C    3.858 --    21 O    1.703    20 O    1.108    18 C    0.983
    20   8 O    2.169 --    19 C    1.108    42 H    0.870    21 O    0.159
    21   8 O    1.973 --    19 C    1.703    20 O    0.159
    22   1 H    0.997 --     1 C    0.986
    23   1 H    0.999 --     1 C    0.988
    24   1 H    0.998 --     1 C    0.988
    25   1 H    0.997 --     2 C    0.974
    26   1 H    0.998 --     2 C    0.969
    27   1 H    0.999 --     4 C    0.970
    28   1 H    0.999 --     5 C    0.971
    29   1 H    0.998 --     6 C    0.970
    30   1 H    0.971 --     9 N    0.939
    31   1 H    0.993 --    12 C    0.962
    32   1 H    0.985 --    12 C    0.943
    33   1 H    0.999 --    13 C    0.968
    34   1 H    0.996 --    13 C    0.970
    35   1 H    0.994 --    16 C    0.970
    36   1 H    0.999 --    16 C    0.975
    37   1 H    0.997 --    17 C    0.986
    38   1 H    0.998 --    17 C    0.986
    39   1 H    0.999 --    17 C    0.987
    40   1 H    0.996 --    18 C    0.972
    41   1 H    0.996 --    18 C    0.968
    42   1 H    0.895 --    20 O    0.870
 ---------------------------------------------------------------------------

Topologies differ in total number of bonds
Writing topology from bond orders to xtbtopo.mol

molecular dipole:
                 x           y           z       tot (Debye)
 q only:       -0.731      -0.054      -0.724
   full:       -0.740       0.177      -0.629       2.510
molecular quadrupole (traceless):
                xx          xy          yy          xz          yz          zz
 q only:        1.210      -1.266       3.599     -16.307      -2.416      -4.810
  q+dip:        5.218      -0.607       0.223     -18.062      -0.798      -5.441
   full:        3.236      -0.295       3.205     -18.285      -1.236      -6.441


           -------------------------------------------------
          | TOTAL ENERGY              -62.161945247693 Eh   |
          | GRADIENT NORM               0.155311894786 Eh/α |
          | HOMO-LUMO GAP               0.500597434997 eV   |
           -------------------------------------------------

------------------------------------------------------------------------
 * finished run on 2025/05/15 at 16:20:31.390     
------------------------------------------------------------------------
 total:
 * wall-time:     0 d,  0 h,  0 min,  0.180 sec
 *  cpu-time:     0 d,  0 h,  0 min,  0.085 sec
 * ratio c/w:     0.469 speedup
 SCF:
 * wall-time:     0 d,  0 h,  0 min,  0.167 sec
 *  cpu-time:     0 d,  0 h,  0 min,  0.072 sec
 * ratio c/w:     0.433 speedup


