42
 energy: -73.167301174559 gnorm: 0.000375457287 xtb: 6.7.1 (edcfbbe)
O           -1.51211717254523       -3.07219192966463        1.64009675213938
C           -1.31556085878745       -1.98143450077831        1.12996624683819
C           -2.32961005733535       -1.08912062261786        0.61172420826632
C           -2.02169197132275        0.12206003768654        0.05780064196832
C           -3.15756546332558        0.95632717271884       -0.47763597819479
O           -2.81641613894234        2.31680417406638       -0.52130222168656
C           -3.52838401176123        0.45547304496359       -1.90077969199438
C           -4.69222831842380        1.23578830215574       -2.49893449468726
C           -4.36747435631847        0.78935138500991        0.45415486673447
O           -4.63992321979587       -0.40616814073361        0.94999024008604
C           -3.75982603147971       -1.50527791274264        0.73961326764848
O           -5.04576980374888        1.74751472021993        0.72955501285323
C           -0.68790499455948        0.56612600740362       -0.03046309920041
C            0.27900918037903       -0.27093574325579        0.44359346500270
N           -0.03375118242407       -1.48130363488085        0.98961999191787
C            1.13743894262814       -2.21824453657727        1.43458559448545
C            1.72266567979361       -0.12842233788794        0.47919890887958
C            2.26106142528670       -1.30379538333439        1.07636022890503
C            3.61173107620490       -1.41371919702611        1.21555660234062
N            2.42386416543296        0.87907416833786        0.04114992125248
C            3.76356808601010        0.79027791699530        0.16712530344643
C            4.41017707127055       -0.34153874073216        0.74963305196094
C            5.81533720803784       -0.35149682887712        0.83462366741564
C            6.54880093826324        0.70430836390427        0.36683768444726
C            5.91156068596001        1.81736539688078       -0.20426915217958
C            4.54893011672194        1.86299190188613       -0.30285408941557
H           -3.57580647428425        2.80572694277608       -0.16196296475943
H           -2.63973141402210        0.59124122711130       -2.52066182606811
H           -3.76205730225592       -0.60925532444746       -1.86805691850220
H           -5.59463072677716        1.11381489064710       -1.90370784854143
H           -4.89170671293903        0.88358162059409       -3.50810724753116
H           -4.44776743983163        2.29404826307321       -2.54419408068509
H           -3.87758032651494       -2.16018199333766        1.60844288985453
H           -4.09341862944073       -2.06269873867270       -0.14649638196072
H           -0.44993204500999        1.52546131339864       -0.45208858240587
H            1.18572887614586       -3.18580974988151        0.92365470177569
H            1.06713027539933       -2.41865474333399        2.50912553594880
H            4.07895078991635       -2.28125076469535        1.66029513569284
H            6.30186130191845       -1.21011307729020        1.27525600676487
H            7.62641274706265        0.68790641053437        0.43400880841760
H            6.51019828493577        2.63974400031146       -0.56657322141251
H            4.03672780047641        2.70662664009181       -0.73738093581661
