42
 energy: -62.120779081965 gnorm: 0.000303738850 xtb: 6.7.1 (edcfbbe)
N           -2.47846250977556        1.74337412557124       -0.18960683814168
C           -2.01870071920607        0.62719251507279        0.60767311444093
C           -0.52215501084024        0.42313502687724        0.48871077761956
C            0.21431177602361        0.94578770095492       -0.56504082287688
C            1.57939805500386        0.73971033872331       -0.63429108256503
C            2.24061183067374       -0.00324513590189        0.33942987377313
C            3.69449777858552       -0.20993641640286        0.26654422390731
C            4.25305385508162       -1.45357734430395        0.55118410359362
C            5.62050320388790       -1.64323195607702        0.47774678660329
C            6.45163509743623       -0.59283296774419        0.12637778661438
C            5.90694312420110        0.64911397937376       -0.15422395117782
C            4.53939909358159        0.83913896211275       -0.08816754397513
C            1.49324997160076       -0.53998834692770        1.38585047663910
C            0.13193791311894       -0.32466358698384        1.46110603722766
C           -2.79771995727783       -0.61843563257904        0.23000234005378
C           -4.06504861399462       -0.81140465583951        0.76524374798672
C           -4.81464004116852       -1.91851001724783        0.41129534642306
C           -4.30332688131424       -2.84433903587299       -0.48222522499230
C           -3.04216377685209       -2.65623975114051       -1.02077361440434
C           -2.29194265816265       -1.54750058160243       -0.66893309777519
C           -2.45492398679537        3.05606391326324        0.19038600748904
C           -2.90346297100657        3.76853233236157       -0.88282989742134
N           -3.19410205461982        2.92659420742185       -1.90876768629394
C           -2.92646614468827        1.72905507701038       -1.46765545098561
H           -2.24625193300334        0.86939304311698        1.65592160459255
H           -0.27536665482276        1.51976966031441       -1.33839655904750
H            2.13651539064800        1.14494973153277       -1.46598932913041
H            3.60771464722345       -2.28041887153653        0.81053026234554
H            6.04021399163827       -2.61503074134958        0.69394122205329
H            7.51987767904675       -0.74141378135859        0.07160596908424
H            6.55091815201424        1.47342154364411       -0.42411934340315
H            4.12032635891874        1.81381931555466       -0.29226821631799
H            1.98886336132766       -1.10852649989921        2.15888991685268
H           -0.43510212787137       -0.73974950026935        2.28260427248306
H           -4.46761199383871       -0.08777458008352        1.46016570972562
H           -5.79866078236507       -2.05798292126429        0.83362418849173
H           -4.88723494102948       -3.70956258666060       -0.75864515958724
H           -2.63990506798487       -3.37361114162785       -1.72068205695926
H           -1.30907866248088       -1.40398516394382       -1.09377929496898
H           -2.12987379386962        3.35873562737323        1.16483715880531
H           -3.03598974422881        4.82701664782652       -0.98285737890379
H           -3.05198025281505        0.82695746851008       -2.03251837788012
