29
 energy: -55.287917362481 gnorm: 0.000344088320 xtb: 6.7.1 (edcfbbe)
O           -0.92762008191074       -0.23194613531545        1.83037604134546
C           -1.23036820758527        1.12469433914699        1.69296056440465
C           -1.53588048583445        1.56132928360981        0.24644759472635
C           -2.36918720004666        0.53767867027968       -0.52910717913592
C           -1.29838953752174       -0.32560578137444       -1.24432499284401
C           -0.08437664111055        0.64168455258078       -1.34209261097774
N            1.15016666310437        0.01236384454321       -0.94342591947389
C            2.32917351374576       -0.05445110041538       -1.59702682614387
N            3.21324492231172       -0.68908316013822       -0.87770078319199
C            2.54845947843760       -1.01062999687819        0.25227088386133
C            3.15076596537037       -1.74190303300907        1.39958725798337
N            2.28236153307704       -1.94614704720816        2.41716220315269
O            4.30012907106750       -2.11270285416773        1.42268415454519
N            1.29122905455809       -0.59845552397606        0.23808067651587
O           -0.35564933159346        1.75793272904857       -0.53785922411199
O           -1.71724938868154       -0.77203612583789       -2.49227295935872
O           -3.22393898433398        1.12362897239884       -1.47687215710098
H           -0.10235256317378       -0.41265435868245        1.33319038409731
H           -0.41336049702617        1.75695073260857        2.06673031570370
H           -2.12091172794260        1.30328631471695        2.30074216982674
H           -2.03542677753774        2.53580943890994        0.28489519626080
H           -2.99962301946299       -0.06378834830849        0.12659162740516
H           -1.02520233025791       -1.19003609222692       -0.62945533565401
H            0.06292709741142        0.97136820857689       -2.38053396743192
H            2.49262660918940        0.35684341081926       -2.57113755380247
H            1.32700659861475       -1.63715399392053        2.38190439562737
H            2.61278071929263       -2.43571191270347        3.23205133805058
H           -2.55460858152650       -0.31994912570444       -2.69763695906403
H           -2.76692587063923        1.85868409262743       -1.90612833521558
