62
 energy: -94.879966676083 gnorm: 0.000765328060 xtb: 6.7.1 (edcfbbe)
C           -7.23971107781614       -1.93084803432000       -0.23582457424664
C           -6.06721452761148       -2.59802904560215        0.42135609570319
C           -4.77715280268911       -1.84131060430208        0.35285963217662
C           -3.62455829469308       -2.44189608558219       -0.06133254585548
C           -3.55695190682063       -3.86381030789019       -0.51903657478903
C           -2.42720067778010       -1.66202289433782       -0.09666542089868
C           -1.17309729695346       -2.12780454454490       -0.51059778633469
N           -0.08833989372309       -1.39202063907850       -0.51816177549661
C           -0.21525328717261       -0.12193520511100       -0.10429528718937
N            0.85426293657218        0.69883363693831       -0.08741792634922
C            2.18644056752126        0.47187149613801       -0.40040408494975
N            2.94898317985805        1.54990736865298       -0.25404412072853
C            4.24154992945748        1.46516466888500       -0.49613297383715
C            4.88716723614193        0.29009924241949       -0.90331894436823
C            4.05965053172395       -0.83242327175541       -1.06925590243915
C            2.70747313954879       -0.75174673192283       -0.82104164526954
N            6.23512510100510        0.22853116184740       -1.20108063838268
C            7.02843904924535       -0.88808182920801       -0.72614818864841
C            8.20954207539218       -1.11722640287578       -1.66630169219307
N            9.00560122448785        0.09439695535600       -1.68782239843328
C            8.21850591365235        1.19770070158816       -2.20201393140977
C            7.02362622721377        1.43910040582733       -1.27613677375615
N           -1.35217057077306        0.43707428615658        0.31190489624547
C           -2.45060471714099       -0.30962035343454        0.32795566317382
N           -3.60863657066901        0.25222037892781        0.76689526542445
C           -3.58009554316681        1.64224365042644        1.22203395254089
C           -4.07153243844563        1.82740897798598        2.67374419213069
C           -5.21509933985203        2.84168722586086        2.59411942602684
C           -4.89985783410647        3.65229162283959        1.34035098356839
C           -4.43901092135825        2.58032290199310        0.35815678328347
C           -4.81400724379333       -0.44551446025839        0.79166908214845
O           -5.82568104447045        0.10736982004317        1.18623492952037
O           -6.14617251479473       -3.67860713442032        0.95844349802656
H           -6.97992474095584       -1.62092868313505       -1.24570469522481
H           -7.48618464700930       -1.03745828991129        0.33526039734944
H           -8.08950809228743       -2.60756652914474       -0.25227341102168
H           -2.85957584931579       -4.41765386610168        0.10748989799897
H           -3.20085592758457       -3.90966421905400       -1.54783313045324
H           -4.52461670234189       -4.34805813606804       -0.45507162565724
H           -1.03749809712878       -3.14571614532239       -0.84951949294780
H            0.66628129715268        1.64393615547888        0.22449832372341
H            4.78366839184561        2.38628442698145       -0.33760270483205
H            4.47535271957368       -1.76800234015448       -1.41174870019581
H            2.05690596806847       -1.59916399760167       -0.94754596901688
H            6.41860918341596       -1.78735955861143       -0.66473475514767
H            7.42529620117612       -0.66354018331763        0.27638493436000
H            7.82490234291890       -1.38608317530171       -2.66614757171067
H            8.82408313761143       -1.93855699417586       -1.29246805334946
H            9.84149862991541       -0.03630050400786       -2.24841687608237
H            7.83650837007023        0.99874492144237       -3.21930077749516
H            8.84198960480197        2.09345305928485       -2.23111316632251
H            7.39471373418612        1.73856463633949       -0.28436485964659
H            6.41687382045958        2.24268617499331       -1.69388216692550
H           -2.53147321299005        1.93298426996056        1.14685452864879
H           -3.25567005431642        2.21190285155037        3.28674802207361
H           -4.40286546450936        0.88575093650884        3.10623382683781
H           -6.15674378201904        2.31270660787893        2.45427822118887
H           -5.28367315214468        3.45709773086506        3.48977477021962
H           -4.08868460241407        4.35584563463847        1.53816761283484
H           -5.76072359190348        4.20816311684683        0.97261942724020
H           -5.30661258974738        2.04305676580731       -0.02117758490864
H           -3.87609150251293        2.98124837609324       -0.48399563592383
