42
 energy: -62.296425636254 gnorm: 0.000381468838 xtb: 6.7.1 (edcfbbe)
C            3.09411938994988        0.69417978424946        2.47440325366802
C            3.27518005063804       -0.49933872501113        1.53408602709377
C            2.91466593619535       -0.13959301526560        0.12042512503065
C            3.87134607061852        0.12839504397673       -0.83923507851505
C            3.53349514682133        0.48563449688107       -2.14780245966270
C            2.22151360592009        0.59107645462924       -2.54591996760335
C            1.22420326383710        0.33360185152078       -1.60496869475361
C            1.58307866441207       -0.02742423905528       -0.28140451465231
N            0.43442846504606       -0.23478652195466        0.42876886989985
C           -0.63403885359020        0.00973011082882       -0.38988475563096
C           -0.19910490244443        0.35332191616887       -1.63995232359961
C           -1.16471779735667        0.69880159718621       -2.72288718450172
C           -2.46508974886509        1.11701032787728       -2.02911210913470
O           -2.91572939203226        0.15066251918052       -1.10227006725930
C           -2.07069042735166       -0.09876154633649        0.01386793215192
C           -2.41982644373083       -1.51986030895189        0.49673270916350
C           -2.12278006558609       -2.56868304255485       -0.56785322417195
C           -2.41924150485675        0.94570979475092        1.12676728833457
C           -2.02306862498325        0.53873946668908        2.51540075100056
O           -3.05790502261200        0.58058411614182        3.35554708028870
O           -0.92023921524941        0.21384413635274        2.88296019204066
H            3.39619684736954        0.42899993879440        3.48536307327768
H            3.70230607405897        1.53139823986791        2.13875463816266
H            2.05503732081502        1.01361594581489        2.49896873393123
H            2.64807305566910       -1.32663513395831        1.87643702842212
H            4.31564392140247       -0.82868407117428        1.56839365806898
H            4.91613137740333        0.05623905631823       -0.57163772868781
H            4.32658753192252        0.68036381286804       -2.85527875653242
H            1.96350548700353        0.86466093081071       -3.55813981970085
H            0.36294874173208       -0.38326273150257        1.42344902961585
H           -0.79157157965505        1.51453034566721       -3.34403811547190
H           -1.34878243869646       -0.16690726364842       -3.36592904703453
H           -2.31531138237776        2.08495278920918       -1.52891445232043
H           -3.28424751933461        1.21538788108204       -2.74500697673464
H           -3.48358392738663       -1.53656863058883        0.73987364928835
H           -1.85003664249883       -1.74094300835862        1.40016582483957
H           -2.67948583086592       -2.34181445683783       -1.47241023959579
H           -1.06186805317381       -2.58316907480625       -0.80648790676357
H           -2.41463279589860       -3.55418779576483       -0.21353680825709
H           -3.49722194140532        1.11016355134221        1.10852145179770
H           -1.91083062246772        1.88398368756454        0.89122214477282
H           -2.78805621839729        0.32513176999413        4.25286176973224
