66
 energy: -102.672211415667 gnorm: 0.000676467086 xtb: 6.7.1 (edcfbbe)
C           -2.95291584120242       -2.60606454754866        5.83464490785578
C           -2.41302873038687       -3.20433827362626        4.54252727144381
C           -3.42805871717340       -3.07274486661504        3.39712461221498
C           -3.69878122966906       -1.65364224933227        3.04971117924063
N           -4.79147767847029       -0.97423208122993        3.32552563909857
C           -4.63022879380339        0.28081340530716        2.84597199361573
C           -5.66337836552818        1.33536791100864        2.98128760452335
C           -3.38666788821258        0.38594036606259        2.24669475873518
N           -2.81678978748519       -0.86789038227106        2.39557281904835
N           -1.56264621788997       -1.13160119202614        1.92341310786120
C           -0.91514817785914       -0.14256893569140        1.24957452598357
C            0.42446852763533       -0.43616926425140        0.71037191385336
C            0.90618701403122       -1.73167453850326        0.42842888587589
C            2.16908100258434       -1.88150562288323       -0.14343246156112
C            2.95453266100883       -0.77753406020886       -0.41769663745569
C            2.48910544305448        0.48765823960584       -0.11801246257259
S            3.54267065354689        1.89139342776259       -0.48428510040550
O            3.15985171659468        2.99837424887301        0.34223813009917
N            3.14592206869393        2.14659270018914       -2.09636264769544
C            1.88164434106233        2.83247962632961       -2.27116006255435
C            1.51251230710468        2.81673508506150       -3.75385289270394
N            2.56456927292672        3.46042728088984       -4.51198065719850
C            3.81115595312169        2.74234142041213       -4.34560822015912
C            4.19809564029829        2.77941091512144       -2.86987938781154
C            2.22183448979048        3.78565714527516       -5.88075137789013
C            1.93968832720354        2.60438793639644       -6.81648961066462
O            4.90499818117640        1.44438985891533       -0.44197402850613
C            1.24061393002574        0.65990173181492        0.43618463986729
O            0.10185014358193       -2.78758510255879        0.72963411706746
C            0.51332421276747       -4.11294926001033        0.41938555828671
C           -0.59838843481616       -5.04833902963241        0.86902084672665
N           -1.38623712554713        1.03939708378799        1.07854548664452
C           -2.64865363650564        1.42154204253964        1.53668090602260
O           -3.07361054041633        2.53617950298619        1.32856723551450
H           -3.20257984380783       -1.55754002612513        5.69331810455993
H           -3.85464276749103       -3.12761825512009        6.14497110264830
H           -2.21517505773737       -2.68439675725211        6.62954227338111
H           -2.19090737805639       -4.26315374660719        4.69433755306909
H           -1.47889822270073       -2.70298668331898        4.27395142155142
H           -4.37399280372182       -3.52199616073664        3.69890621629303
H           -3.06069958360664       -3.60295936408074        2.51217510027220
H           -5.81713077236437        1.57440531538047        4.03299281709868
H           -6.61112997963650        0.98383180025992        2.57720974770774
H           -5.33955648912711        2.22610050942239        2.45019597698076
H           -1.23847690615435       -2.08985982263214        1.92117619658577
H            2.54874832440238       -2.86351137784811       -0.37376918600221
H            3.93802540228653       -0.88200942365716       -0.84586458745767
H            1.95456159122277        3.86830585512924       -1.91579496156117
H            1.12509817701739        2.30933199182757       -1.68527379099315
H            0.58177144095945        3.36780932766514       -3.90044021883606
H            1.35949600824006        1.76710531622574       -4.06091706131440
H            3.73299089235493        1.68784286647440       -4.66167398205790
H            4.58528958874570        3.23447016443711       -4.93759870006937
H            5.11780998719234        2.22600367102758       -2.68187896909089
H            4.33298732377065        3.82366042250445       -2.55688386842225
H            3.05091866383032        4.37287777955418       -6.28614332150746
H            1.34033383102635        4.43211847527096       -5.84458556250547
H            2.80849460307816        1.95524810886640       -6.89311848619300
H            1.70218873898221        2.97758341261713       -7.80913170480622
H            1.09524959084827        2.02061551169082       -6.45867370839396
H            0.87791856569679        1.64602044298322        0.67893000436255
H            0.67812897018796       -4.20836798321446       -0.66042244081670
H            1.44471167002050       -4.34844748395420        0.94863459544479
H           -0.33444738104837       -6.07266430684865        0.62458068028961
H           -0.74582254661894       -4.97250304396386        1.94374757040498
H           -1.52775835908626       -4.79576705793321        0.36448059695455
