----- Optimization -----
      -----------------------------------------------------------      
     |                   =====================                   |     
     |                           x T B                           |     
     |                   =====================                   |     
     |                         S. Grimme                         |     
     |          Mulliken Center for Theoretical Chemistry        |     
     |                    University of Bonn                     |     
      -----------------------------------------------------------      

   * xtb version 6.7.1 (edcfbbe) compiled by 'conda@3ef47c1a292c' on 2024-11-25

   xtb is free software: you can redistribute it and/or modify it under
   the terms of the GNU Lesser General Public License as published by
   the Free Software Foundation, either version 3 of the License, or
   (at your option) any later version.
   
   xtb is distributed in the hope that it will be useful,
   but WITHOUT ANY WARRANTY; without even the implied warranty of
   MERCHANTABILITY or FITNESS FOR A PARTICULAR PURPOSE.  See the
   GNU Lesser General Public License for more details.
   
   Cite this work as:
   * C. Bannwarth, E. Caldeweyher, S. Ehlert, A. Hansen, P. Pracht,
     J. Seibert, S. Spicher, S. Grimme, WIREs Comput. Mol. Sci., 2020, 11,
     e01493. DOI: 10.1002/wcms.1493
   
   for GFN2-xTB:
   * C. Bannwarth, S. Ehlert and S. Grimme., J. Chem. Theory Comput., 2019,
     15, 1652-1671. DOI: 10.1021/acs.jctc.8b01176
   for GFN1-xTB:
   * S. Grimme, C. Bannwarth, P. Shushkov, J. Chem. Theory Comput., 2017,
     13, 1989-2009. DOI: 10.1021/acs.jctc.7b00118
   for GFN0-xTB:
   * P. Pracht, E. Caldeweyher, S. Ehlert, S. Grimme, ChemRxiv, 2019, preprint.
     DOI: 10.26434/chemrxiv.8326202.v1
   for GFN-FF:
   * S. Spicher and S. Grimme, Angew. Chem. Int. Ed., 2020, 59, 15665-15673.
     DOI: 10.1002/anie.202004239
   
   for ALPB and GBSA implicit solvation:
   * S. Ehlert, M. Stahn, S. Spicher, S. Grimme, J. Chem. Theory Comput.,
     2021, 17, 4250-4261. DOI: 10.1021/acs.jctc.1c00471
   
   for ddCOSMO and CPCM-X implicit solvation:
   * M. Stahn, S. Ehlert, S. Grimme, J. Phys. Chem. A,
     2023, XX, XXXX-XXXX. DOI: 10.1021/acs.jpca.3c04382
   
   for DFT-D4:
   * E. Caldeweyher, C. Bannwarth and S. Grimme, J. Chem. Phys., 2017,
     147, 034112. DOI: 10.1063/1.4993215
   * E. Caldeweyher, S. Ehlert, A. Hansen, H. Neugebauer, S. Spicher,
     C. Bannwarth and S. Grimme, J. Chem. Phys., 2019, 150, 154122.
     DOI: 10.1063/1.5090222
   * E. Caldeweyher, J.-M. Mewes, S. Ehlert and S. Grimme, Phys. Chem. Chem. Phys.
     2020, 22, 8499-8512. DOI: 10.1039/D0CP00502A
   
   for sTDA-xTB:
   * S. Grimme and C. Bannwarth, J. Chem. Phys., 2016, 145, 054103.
     DOI: 10.1063/1.4959605
   
   in the mass-spec context:
   * V. Asgeirsson, C. Bauer and S. Grimme, Chem. Sci., 2017, 8, 4879.
     DOI: 10.1039/c7sc00601b
   * J. Koopman and S. Grimme, ACS Omega 2019, 4, 12, 15120-15133.
     DOI: 10.1021/acsomega.9b02011
   
   for metadynamics refer to:
   * S. Grimme, J. Chem. Theory Comput., 2019, 155, 2847-2862
     DOI: 10.1021/acs.jctc.9b00143
   
   for SPH calculations refer to:
   * S. Spicher and S. Grimme, J. Chem. Theory Comput., 2021, 17, 1701-1714
     DOI: 10.1021/acs.jctc.0c01306
   
   for ONIOM refer to:
   * C. Plett, A. Katbashev, S. Ehlert, S. Grimme, M. Bursch,
     Phys. Chem. Chem. Phys., 2023, 25, 17860-17868. DOI: 10.1039/D3CP02178E
   
   for DIPRO refer to:
   * J. Kohn, N. Gildemeister, S. Grimme, D. Fazzi, A. Hansen,
     J. Chem. Phys., 2023, just accepted.
   
   for PTB refer to:
   * S. Grimme, M. Mueller, A. Hansen, J. Chem. Phys., 2023, 158, 124111.
     DOI: 10.1063/5.0137838
   
   with help from (in alphabetical order)
   P. Atkinson, C. Bannwarth, F. Bohle, G. Brandenburg, E. Caldeweyher
   M. Checinski, S. Dohm, S. Ehlert, S. Ehrlich, I. Gerasimov, C. Hölzer
   A. Katbashev, J. Kohn, J. Koopman, C. Lavigne, S. Lehtola, F. März, M. Müller,
   F. Musil, H. Neugebauer, J. Pisarek, C. Plett, P. Pracht, F. Pultar,
   J. Seibert, P. Shushkov, S. Spicher, M. Stahn, M. Steiner, T. Strunk,
   J. Stückrath, T. Rose, and J. Unsleber
   
 * started run on 2025/05/15 at 16:19:58.095     
   ID    Z sym.   atoms
    1    6 C      1-4, 6-8, 11-16, 20, 21, 23-26, 28, 30, 31, 33
    2    7 N      5, 9, 10, 19, 22, 32
    3   16 S      17
    4    8 O      18, 27, 29, 34
    5    1 H      35-66

           -------------------------------------------------
          |                Calculation Setup                |
           -------------------------------------------------

          program call               : xtb /rds/general/user/hgt20/home/callum/QDESCP/Vardenafil_rdkit_conf_18/Vardenafil_rdkit_conf_18.xyz --opt normal --acc 1 --gfn 2 --chrg 0 --uhf 0 -P 1
          hostname                   : login-c
          coordinate file            : /rds/general/user/hgt20/home/callum/QDESCP/Vardenafil_rdkit_conf_18/Vardenafil_rdkit_conf_18.xyz
          omp threads                :                     1


           -------------------------------------------------
          |                 G F N 2 - x T B                 |
           -------------------------------------------------

        Reference                      10.1021/acs.jctc.8b01176
      * Hamiltonian:
        H0-scaling (s, p, d)           1.850000    2.230000    2.230000
        zeta-weighting                 0.500000
      * Dispersion:
        s8                             2.700000
        a1                             0.520000
        a2                             5.000000
        s9                             5.000000
      * Repulsion:
        kExp                           1.500000    1.000000
        rExp                           1.000000
      * Coulomb:
        alpha                          2.000000
        third order                    shell-resolved
        anisotropic                    true
        a3                             3.000000
        a5                             4.000000
        cn-shift                       1.200000
        cn-exp                         4.000000
        max-rad                        5.000000


          ...................................................
          :                      SETUP                      :
          :.................................................:
          :  # basis functions                 174          :
          :  # atomic orbitals                 173          :
          :  # shells                          101          :
          :  # electrons                       184          :
          :  max. iterations                   250          :
          :  Hamiltonian                  GFN2-xTB          :
          :  restarted?                      false          :
          :  GBSA solvation                  false          :
          :  PC potential                    false          :
          :  electronic temp.          300.0000000     K    :
          :  accuracy                    1.0000000          :
          :  -> integral cutoff          0.2500000E+02      :
          :  -> integral neglect         0.1000000E-07      :
          :  -> SCF convergence          0.1000000E-05 Eh   :
          :  -> wf. convergence          0.1000000E-03 e    :
          :  Broyden damping             0.4000000          :
          :  net charge                          0          :
          :  unpaired electrons                  0          :
          ...................................................

 iter      E             dE          RMSdq      gap      omega  full diag
   1   -103.6070629 -0.103607E+03  0.416E+00    2.36       0.0  T
   2   -103.8345767 -0.227514E+00  0.267E+00    1.63       1.0  T
   3   -103.8568312 -0.222545E-01  0.138E+00    1.83       1.0  T
   4   -103.8696438 -0.128126E-01  0.490E-01    1.26       1.0  T
   5   -103.8795720 -0.992822E-02  0.181E-01    1.33       1.0  T
   6   -103.8799038 -0.331829E-03  0.941E-02    1.33       1.0  T
   7   -103.8800215 -0.117725E-03  0.573E-02    1.37       1.0  T
   8   -103.8800999 -0.783948E-04  0.276E-02    1.37       1.0  T
   9   -103.8801089 -0.898593E-05  0.102E-02    1.38       1.2  T
  10   -103.8801115 -0.258020E-05  0.489E-03    1.37       2.5  T
  11   -103.8801118 -0.298273E-06  0.208E-03    1.37       5.9  T
  12   -103.8801119 -0.716033E-07  0.628E-04    1.37      19.6  T
  13   -103.8801119 -0.114487E-07  0.313E-04    1.37      39.3  T

   *** convergence criteria satisfied after 13 iterations ***

         #    Occupation            Energy/Eh            Energy/eV
      -------------------------------------------------------------
         1        2.0000           -0.7726122             -21.0238
       ...           ...                  ...                  ...
        86        2.0000           -0.4125087             -11.2249
        87        2.0000           -0.4092507             -11.1363
        88        2.0000           -0.3934265             -10.7057
        89        2.0000           -0.3877996             -10.5526
        90        2.0000           -0.3796174             -10.3299
        91        2.0000           -0.3725576             -10.1378
        92        2.0000           -0.3535622              -9.6209 (HOMO)
        93                         -0.3030894              -8.2475 (LUMO)
        94                         -0.2727158              -7.4210
        95                         -0.2546744              -6.9300
        96                         -0.2318788              -6.3097
        97                         -0.1919867              -5.2242
       ...                                ...                  ...
       173                          1.1509347              31.3185
      -------------------------------------------------------------
                  HL-Gap            0.0504727 Eh            1.3734 eV
             Fermi-level           -0.3283258 Eh           -8.9342 eV

 SCC (total)                   0 d,  0 h,  0 min,  0.281 sec
 SCC setup                      ...        0 min,  0.001 sec (  0.265%)
 Dispersion                     ...        0 min,  0.001 sec (  0.377%)
 classical contributions        ...        0 min,  0.000 sec (  0.121%)
 integral evaluation            ...        0 min,  0.015 sec (  5.421%)
 iterations                     ...        0 min,  0.163 sec ( 58.008%)
 molecular gradient             ...        0 min,  0.100 sec ( 35.626%)
 printout                       ...        0 min,  0.001 sec (  0.178%)

         :::::::::::::::::::::::::::::::::::::::::::::::::::::
         ::                     SUMMARY                     ::
         :::::::::::::::::::::::::::::::::::::::::::::::::::::
         :: total energy            -102.651144551578 Eh    ::
         :: gradient norm              0.105083855963 Eh/a0 ::
         :: HOMO-LUMO gap              1.373433363720 eV    ::
         ::.................................................::
         :: SCC energy              -103.879623414056 Eh    ::
         :: -> isotropic ES            0.146386304640 Eh    ::
         :: -> anisotropic ES          0.006616278511 Eh    ::
         :: -> anisotropic XC          0.051086011729 Eh    ::
         :: -> dispersion             -0.074814353424 Eh    ::
         :: repulsion energy           1.228478862478 Eh    ::
         :: add. restraining           0.000000000000 Eh    ::
         :: total charge              -0.000000000000 e     ::
         :::::::::::::::::::::::::::::::::::::::::::::::::::::

      ----------------------------------------------------------- 
     |                   =====================                   |
     |                        A N C O P T                        |
     |                   =====================                   |
     |               Approximate Normal Coordinate               |
     |                Rational Function Optimizer                |
      ----------------------------------------------------------- 
      ----------------------------------------------------------- 
     |                   =====================                   |
     |                        A N C O P T                        |
     |                   =====================                   |
     |               Approximate Normal Coordinate               |
     |                Rational Function Optimizer                |
      ----------------------------------------------------------- 

          ...................................................
          :                      SETUP                      :
          :.................................................:
          :   optimization level            normal          :
          :   max. optcycles                   200          :
          :   ANC micro-cycles                  20          :
          :   degrees of freedom               192          :
          :.................................................:
          :   RF solver                   davidson          :
          :   write xtbopt.log                true          :
          :   linear?                        false          :
          :   energy convergence         0.5000000E-05 Eh   :
          :   grad. convergence          0.1000000E-02 Eh/α :
          :   maxmium RF displ.          1.0000000          :
          :   Hlow (freq-cutoff)         0.1000000E-01      :
          :   Hmax (freq-cutoff)         5.0000000          :
          :   S6 in model hess.         20.0000000          :
          ...................................................

generating ANC from exact Hessian ...
Using Lindh-Hessian (1995)
 Shifting diagonal of input Hessian by    9.9109151273161708E-003
 Lowest  eigenvalues of input Hessian
    0.000000    0.000000    0.000000    0.000000    0.000000    0.000000
    0.010000    0.010045    0.010137    0.010477    0.010572    0.010765
    0.011055    0.011584    0.011803    0.011990    0.012377    0.012673
 Highest eigenvalues
    2.086811    2.102805    2.318839    2.432246    2.513693    3.425060


........................................................................
.............................. CYCLE    1 ..............................
........................................................................

 iter      E             dE          RMSdq      gap      omega  full diag
   1   -103.8801119 -0.103880E+03  0.129E-04    1.37       0.0  T
   2   -103.8801119 -0.151331E-09  0.839E-05    1.37     146.7  T
   3   -103.8801119 -0.840430E-10  0.566E-05    1.37     217.3  T
     SCC iter.                  ...        0 min,  0.058 sec
     gradient                   ...        0 min,  0.100 sec
 * total energy  :  -102.6511446 Eh     change       -0.1726022E-08 Eh
   gradient norm :     0.1050815 Eh/α   predicted     0.0000000E+00 (-100.00%)
   displ. norm   :     0.3330149 α      lambda       -0.1888893E-01
   maximum displ.:     0.1164168 α      in ANC's #63, #31, #75, ...

........................................................................
.............................. CYCLE    2 ..............................
........................................................................

 iter      E             dE          RMSdq      gap      omega  full diag
   1   -103.9298373 -0.103930E+03  0.181E-01    1.44       0.0  T
   2   -103.9300686 -0.231308E-03  0.116E-01    1.49       1.0  T
   3   -103.9300691 -0.463119E-06  0.614E-02    1.49       1.0  T
   4   -103.9301416 -0.725678E-04  0.199E-02    1.50       1.0  T
   5   -103.9301594 -0.177558E-04  0.530E-03    1.49       2.3  T
   6   -103.9301594 -0.484050E-08  0.178E-03    1.49       6.9  T
   7   -103.9301595 -0.100742E-06  0.775E-04    1.49      15.9  T
   8   -103.9301595 -0.126522E-07  0.390E-04    1.49      31.6  T
     SCC iter.                  ...        0 min,  0.088 sec
     gradient                   ...        0 min,  0.100 sec
 * total energy  :  -102.6644923 Eh     change       -0.1334774E-01 Eh
   gradient norm :     0.0464243 Eh/α   predicted    -0.1049819E-01 ( -21.35%)
   displ. norm   :     0.3156277 α      lambda       -0.6757366E-02
   maximum displ.:     0.1126417 α      in ANC's #31, #18, #63, ...

........................................................................
.............................. CYCLE    3 ..............................
........................................................................

 iter      E             dE          RMSdq      gap      omega  full diag
   1   -103.9582312 -0.103958E+03  0.127E-01    1.48       0.0  T
   2   -103.9583670 -0.135839E-03  0.837E-02    1.52       1.0  T
   3   -103.9583833 -0.163103E-04  0.435E-02    1.52       1.0  T
   4   -103.9584120 -0.286269E-04  0.162E-02    1.53       1.0  T
   5   -103.9584223 -0.103385E-04  0.510E-03    1.53       2.4  T
   6   -103.9584223  0.129375E-07  0.156E-03    1.53       7.9  T
   7   -103.9584224 -0.981486E-07  0.615E-04    1.53      20.0  T
   8   -103.9584224 -0.372901E-08  0.296E-04    1.53      41.5  T
     SCC iter.                  ...        0 min,  0.090 sec
     gradient                   ...        0 min,  0.106 sec
 * total energy  :  -102.6684749 Eh     change       -0.3982618E-02 Eh
   gradient norm :     0.0149957 Eh/α   predicted    -0.3716784E-02 (  -6.67%)
   displ. norm   :     0.2158806 α      lambda       -0.1097985E-02
   maximum displ.:     0.0784282 α      in ANC's #14, #18, #31, ...

........................................................................
.............................. CYCLE    4 ..............................
........................................................................

 iter      E             dE          RMSdq      gap      omega  full diag
   1   -103.9607971 -0.103961E+03  0.526E-02    1.52       0.0  T
   2   -103.9608156 -0.184810E-04  0.303E-02    1.53       1.0  T
   3   -103.9608143  0.123655E-05  0.154E-02    1.53       1.0  T
   4   -103.9608219 -0.755641E-05  0.501E-03    1.53       2.5  T
   5   -103.9608227 -0.833355E-06  0.211E-03    1.53       5.8  T
   6   -103.9608228 -0.528167E-07  0.784E-04    1.53      15.7  T
   7   -103.9608228 -0.203017E-07  0.252E-04    1.53      48.9  T
     SCC iter.                  ...        0 min,  0.085 sec
     gradient                   ...        0 min,  0.106 sec
 * total energy  :  -102.6693193 Eh     change       -0.8443608E-03 Eh
   gradient norm :     0.0133323 Eh/α   predicted    -0.5745841E-03 ( -31.95%)
   displ. norm   :     0.3326301 α      lambda       -0.1128313E-02
   maximum displ.:     0.1380112 α      in ANC's #14, #9, #18, ...

........................................................................
.............................. CYCLE    5 ..............................
........................................................................

 iter      E             dE          RMSdq      gap      omega  full diag
   1   -103.9606776 -0.103961E+03  0.728E-02    1.52       0.0  T
   2   -103.9607270 -0.493875E-04  0.408E-02    1.52       1.0  T
   3   -103.9607312 -0.414456E-05  0.221E-02    1.53       1.0  T
   4   -103.9607421 -0.109458E-04  0.642E-03    1.52       1.9  T
   5   -103.9607439 -0.183726E-05  0.269E-03    1.53       4.6  T
   6   -103.9607441 -0.111460E-06  0.998E-04    1.53      12.3  T
   7   -103.9607441 -0.387172E-07  0.324E-04    1.53      38.0  T
     SCC iter.                  ...        0 min,  0.080 sec
     gradient                   ...        0 min,  0.106 sec
 * total energy  :  -102.6700897 Eh     change       -0.7704457E-03 Eh
   gradient norm :     0.0106628 Eh/α   predicted    -0.6265801E-03 ( -18.67%)
   displ. norm   :     0.2601657 α      lambda       -0.4994655E-03
   maximum displ.:     0.1141669 α      in ANC's #14, #9, #7, ...

........................................................................
.............................. CYCLE    6 ..............................
........................................................................

 iter      E             dE          RMSdq      gap      omega  full diag
   1   -103.9613793 -0.103961E+03  0.491E-02    1.53       0.0  T
   2   -103.9614073 -0.279429E-04  0.283E-02    1.53       1.0  T
   3   -103.9614121 -0.486478E-05  0.159E-02    1.53       1.0  T
   4   -103.9614164 -0.424340E-05  0.458E-03    1.53       2.7  T
   5   -103.9614174 -0.105262E-05  0.169E-03    1.53       7.3  T
   6   -103.9614175 -0.327302E-07  0.723E-04    1.53      17.0  T
   7   -103.9614175 -0.198892E-07  0.214E-04    1.53      57.6  T
     SCC iter.                  ...        0 min,  0.079 sec
     gradient                   ...        0 min,  0.100 sec
 * total energy  :  -102.6704543 Eh     change       -0.3645854E-03 Eh
   gradient norm :     0.0082389 Eh/α   predicted    -0.2666480E-03 ( -26.86%)
   displ. norm   :     0.2682363 α      lambda       -0.3748169E-03
   maximum displ.:     0.1120430 α      in ANC's #7, #14, #9, ...

........................................................................
.............................. CYCLE    7 ..............................
........................................................................

 iter      E             dE          RMSdq      gap      omega  full diag
   1   -103.9629617 -0.103963E+03  0.471E-02    1.54       0.0  T
   2   -103.9629812 -0.194973E-04  0.274E-02    1.54       1.0  T
   3   -103.9629830 -0.180032E-05  0.155E-02    1.54       1.0  T
   4   -103.9629883 -0.536236E-05  0.405E-03    1.54       3.0  T
   5   -103.9629891 -0.750264E-06  0.159E-03    1.54       7.7  T
   6   -103.9629891 -0.336055E-07  0.649E-04    1.54      19.0  T
   7   -103.9629891 -0.159554E-07  0.202E-04    1.54      60.9  T
     SCC iter.                  ...        0 min,  0.035 sec
     gradient                   ...        0 min,  0.100 sec
 * total energy  :  -102.6707221 Eh     change       -0.2678218E-03 Eh
   gradient norm :     0.0058937 Eh/α   predicted    -0.2009856E-03 ( -24.96%)
   displ. norm   :     0.2344487 α      lambda       -0.2263850E-03
   maximum displ.:     0.1145216 α      in ANC's #7, #4, #9, ...

........................................................................
.............................. CYCLE    8 ..............................
........................................................................

 iter      E             dE          RMSdq      gap      omega  full diag
   1   -103.9642639 -0.103964E+03  0.396E-02    1.55       0.0  T
   2   -103.9642706 -0.668639E-05  0.227E-02    1.55       1.0  T
   3   -103.9642680  0.260032E-05  0.120E-02    1.56       1.0  T
   4   -103.9642734 -0.538821E-05  0.264E-03    1.55       4.7  T
   5   -103.9642736 -0.252397E-06  0.120E-03    1.56      10.2  T
   6   -103.9642736 -0.325632E-07  0.437E-04    1.56      28.2  T
   7   -103.9642737 -0.631282E-08  0.148E-04    1.56      83.3  T
     SCC iter.                  ...        0 min,  0.076 sec
     gradient                   ...        0 min,  0.106 sec
 * total energy  :  -102.6708819 Eh     change       -0.1597407E-03 Eh
   gradient norm :     0.0048652 Eh/α   predicted    -0.1194406E-03 ( -25.23%)
   displ. norm   :     0.1858360 α      lambda       -0.1274556E-03
   maximum displ.:     0.1008883 α      in ANC's #7, #4, #9, ...

........................................................................
.............................. CYCLE    9 ..............................
........................................................................

 iter      E             dE          RMSdq      gap      omega  full diag
   1   -103.9648547 -0.103965E+03  0.305E-02    1.56       0.0  T
   2   -103.9648564 -0.165293E-05  0.174E-02    1.56       1.0  T
   3   -103.9648546  0.174977E-05  0.681E-03    1.56       1.8  T
   4   -103.9648570 -0.240742E-05  0.158E-03    1.56       7.8  T
   5   -103.9648571 -0.579908E-07  0.769E-04    1.56      16.0  T
   6   -103.9648571 -0.186105E-07  0.266E-04    1.56      46.2  T
     SCC iter.                  ...        0 min,  0.075 sec
     gradient                   ...        0 min,  0.095 sec
 * total energy  :  -102.6709740 Eh     change       -0.9215518E-04 Eh
   gradient norm :     0.0041530 Eh/α   predicted    -0.6592974E-04 ( -28.46%)
   displ. norm   :     0.1591321 α      lambda       -0.8499226E-04
   maximum displ.:     0.0897784 α      in ANC's #7, #4, #12, ...

........................................................................
.............................. CYCLE   10 ..............................
........................................................................

 iter      E             dE          RMSdq      gap      omega  full diag
   1   -103.9649097 -0.103965E+03  0.262E-02    1.56       0.0  T
   2   -103.9649105 -0.814514E-06  0.148E-02    1.56       1.0  T
   3   -103.9649099  0.555626E-06  0.409E-03    1.56       3.0  T
   4   -103.9649107 -0.762659E-06  0.148E-03    1.56       8.3  T
   5   -103.9649107 -0.557944E-07  0.572E-04    1.56      21.5  T
   6   -103.9649107 -0.966789E-08  0.197E-04    1.56      62.5  T
     SCC iter.                  ...        0 min,  0.081 sec
     gradient                   ...        0 min,  0.104 sec
 * total energy  :  -102.6710375 Eh     change       -0.6349105E-04 Eh
   gradient norm :     0.0033006 Eh/α   predicted    -0.4357446E-04 ( -31.37%)
   displ. norm   :     0.1575277 α      lambda       -0.6845544E-04
   maximum displ.:     0.0884483 α      in ANC's #7, #4, #12, ...

........................................................................
.............................. CYCLE   11 ..............................
........................................................................

 iter      E             dE          RMSdq      gap      omega  full diag
   1   -103.9646855 -0.103965E+03  0.270E-02    1.56       0.0  T
   2   -103.9646863 -0.807830E-06  0.151E-02    1.56       1.0  T
   3   -103.9646859  0.386140E-06  0.407E-03    1.56       3.0  T
   4   -103.9646864 -0.481377E-06  0.187E-03    1.56       6.6  T
   5   -103.9646866 -0.137172E-06  0.588E-04    1.56      20.9  T
   6   -103.9646866 -0.525478E-08  0.183E-04    1.56      67.2  T
     SCC iter.                  ...        0 min,  0.075 sec
     gradient                   ...        0 min,  0.106 sec
 * total energy  :  -102.6710893 Eh     change       -0.5179981E-04 Eh
   gradient norm :     0.0026330 Eh/α   predicted    -0.3507816E-04 ( -32.28%)
   displ. norm   :     0.1621177 α      lambda       -0.5845803E-04
   maximum displ.:     0.0883516 α      in ANC's #7, #4, #12, ...

........................................................................
.............................. CYCLE   12 ..............................
........................................................................

 iter      E             dE          RMSdq      gap      omega  full diag
   1   -103.9644757 -0.103964E+03  0.292E-02    1.56       0.0  T
   2   -103.9644766 -0.918264E-06  0.162E-02    1.56       1.0  T
   3   -103.9644764  0.272530E-06  0.424E-03    1.56       2.9  T
   4   -103.9644767 -0.328814E-06  0.193E-03    1.56       6.4  T
   5   -103.9644769 -0.165335E-06  0.642E-04    1.56      19.2  T
   6   -103.9644769 -0.641339E-08  0.183E-04    1.56      67.4  T
     SCC iter.                  ...        0 min,  0.081 sec
     gradient                   ...        0 min,  0.098 sec
 * total energy  :  -102.6711339 Eh     change       -0.4461487E-04 Eh
   gradient norm :     0.0025519 Eh/α   predicted    -0.3000436E-04 ( -32.75%)
   displ. norm   :     0.1671892 α      lambda       -0.5142028E-04
   maximum displ.:     0.0932165 α      in ANC's #4, #7, #5, ...

........................................................................
.............................. CYCLE   13 ..............................
........................................................................

 iter      E             dE          RMSdq      gap      omega  full diag
   1   -103.9644657 -0.103964E+03  0.306E-02    1.56       0.0  T
   2   -103.9644666 -0.955716E-06  0.172E-02    1.56       1.0  T
   3   -103.9644664  0.200671E-06  0.398E-03    1.56       3.1  T
   4   -103.9644667 -0.301476E-06  0.155E-03    1.56       7.9  T
   5   -103.9644668 -0.101910E-06  0.610E-04    1.56      20.2  T
   6   -103.9644669 -0.797633E-08  0.179E-04    1.56      68.8  T
     SCC iter.                  ...        0 min,  0.069 sec
     gradient                   ...        0 min,  0.100 sec
 * total energy  :  -102.6711734 Eh     change       -0.3951912E-04 Eh
   gradient norm :     0.0028581 Eh/α   predicted    -0.2643035E-04 ( -33.12%)
   displ. norm   :     0.1695450 α      lambda       -0.4611082E-04
   maximum displ.:     0.0966175 α      in ANC's #4, #7, #5, ...

........................................................................
.............................. CYCLE   14 ..............................
........................................................................

 iter      E             dE          RMSdq      gap      omega  full diag
   1   -103.9646705 -0.103965E+03  0.304E-02    1.56       0.0  T
   2   -103.9646713 -0.790481E-06  0.174E-02    1.56       1.0  T
   3   -103.9646710  0.281263E-06  0.343E-03    1.56       3.6  T
   4   -103.9646715 -0.419401E-06  0.115E-03    1.56      10.7  T
   5   -103.9646715 -0.536985E-07  0.519E-04    1.56      23.7  T
   6   -103.9646715 -0.648566E-08  0.157E-04    1.56      78.4  T
     SCC iter.                  ...        0 min,  0.030 sec
     gradient                   ...        0 min,  0.086 sec
 * total energy  :  -102.6712094 Eh     change       -0.3595320E-04 Eh
   gradient norm :     0.0030043 Eh/α   predicted    -0.2372323E-04 ( -34.02%)
   displ. norm   :     0.1812302 α      lambda       -0.4556509E-04
   maximum displ.:     0.1044576 α      in ANC's #4, #7, #5, ...

........................................................................
.............................. CYCLE   15 ..............................
........................................................................

 iter      E             dE          RMSdq      gap      omega  full diag
   1   -103.9650095 -0.103965E+03  0.310E-02    1.56       0.0  T
   2   -103.9650101 -0.613363E-06  0.179E-02    1.56       1.0  T
   3   -103.9650097  0.384932E-06  0.316E-03    1.56       3.9  T
   4   -103.9650102 -0.550270E-06  0.946E-04    1.56      13.0  T
   5   -103.9650103 -0.240271E-07  0.459E-04    1.56      26.8  T
     SCC iter.                  ...        0 min,  0.025 sec
     gradient                   ...        0 min,  0.100 sec
 * total energy  :  -102.6712455 Eh     change       -0.3611097E-04 Eh
   gradient norm :     0.0029156 Eh/α   predicted    -0.2353489E-04 ( -34.83%)
   displ. norm   :     0.2101965 α      lambda       -0.4975855E-04
   maximum displ.:     0.1218726 α      in ANC's #4, #7, #5, ...

........................................................................
.............................. CYCLE   16 ..............................
........................................................................

 iter      E             dE          RMSdq      gap      omega  full diag
   1   -103.9652325 -0.103965E+03  0.341E-02    1.56       0.0  T
   2   -103.9652332 -0.665734E-06  0.197E-02    1.56       1.0  T
   3   -103.9652329  0.357661E-06  0.327E-03    1.56       3.8  T
   4   -103.9652334 -0.530267E-06  0.111E-03    1.56      11.1  T
   5   -103.9652334 -0.417274E-07  0.463E-04    1.56      26.6  T
   6   -103.9652334 -0.380717E-08  0.164E-04    1.56      75.0  T
     SCC iter.                  ...        0 min,  0.068 sec
     gradient                   ...        0 min,  0.055 sec
 * total energy  :  -102.6712854 Eh     change       -0.3986380E-04 Eh
   gradient norm :     0.0026501 Eh/α   predicted    -0.2598143E-04 ( -34.82%)
   displ. norm   :     0.2541722 α      lambda       -0.5672971E-04
   maximum displ.:     0.1470232 α      in ANC's #4, #7, #5, ...

........................................................................
.............................. CYCLE   17 ..............................
........................................................................

 iter      E             dE          RMSdq      gap      omega  full diag
   1   -103.9652363 -0.103965E+03  0.395E-02    1.56       0.0  T
   2   -103.9652372 -0.963432E-06  0.226E-02    1.56       1.0  T
   3   -103.9652371  0.107336E-06  0.342E-03    1.56       3.6  T
   4   -103.9652374 -0.256917E-06  0.147E-03    1.56       8.4  T
   5   -103.9652375 -0.979639E-07  0.562E-04    1.56      21.9  T
   6   -103.9652375 -0.479631E-08  0.166E-04    1.56      74.2  T
     SCC iter.                  ...        0 min,  0.030 sec
     gradient                   ...        0 min,  0.094 sec
 * total energy  :  -102.6713304 Eh     change       -0.4507511E-04 Eh
   gradient norm :     0.0027653 Eh/α   predicted    -0.3020010E-04 ( -33.00%)
   displ. norm   :     0.2865499 α      lambda       -0.6049070E-04
   maximum displ.:     0.1658790 α      in ANC's #4, #5, #7, ...

........................................................................
.............................. CYCLE   18 ..............................
........................................................................

 iter      E             dE          RMSdq      gap      omega  full diag
   1   -103.9648354 -0.103965E+03  0.435E-02    1.57       0.0  T
   2   -103.9648367 -0.134913E-05  0.245E-02    1.57       1.0  T
   3   -103.9648367 -0.800057E-08  0.419E-03    1.57       2.9  T
   4   -103.9648369 -0.179437E-06  0.168E-03    1.57       7.3  T
   5   -103.9648370 -0.108459E-06  0.692E-04    1.57      17.8  T
   6   -103.9648370 -0.113454E-07  0.183E-04    1.57      67.4  T
     SCC iter.                  ...        0 min,  0.070 sec
     gradient                   ...        0 min,  0.088 sec
 * total energy  :  -102.6713779 Eh     change       -0.4747174E-04 Eh
   gradient norm :     0.0030429 Eh/α   predicted    -0.3273020E-04 ( -31.05%)
   displ. norm   :     0.2981069 α      lambda       -0.6085480E-04
   maximum displ.:     0.1722167 α      in ANC's #4, #5, #7, ...

........................................................................
.............................. CYCLE   19 ..............................
........................................................................

 iter      E             dE          RMSdq      gap      omega  full diag
   1   -103.9644866 -0.103964E+03  0.446E-02    1.57       0.0  T
   2   -103.9644881 -0.144652E-05  0.249E-02    1.57       1.0  T
   3   -103.9644880  0.605903E-07  0.467E-03    1.57       2.6  T
   4   -103.9644882 -0.188527E-06  0.215E-03    1.57       5.7  T
   5   -103.9644884 -0.205645E-06  0.844E-04    1.57      14.6  T
   6   -103.9644884 -0.174707E-07  0.201E-04    1.57      61.2  T
     SCC iter.                  ...        0 min,  0.030 sec
     gradient                   ...        0 min,  0.083 sec
 * total energy  :  -102.6714247 Eh     change       -0.4682613E-04 Eh
   gradient norm :     0.0033179 Eh/α   predicted    -0.3313277E-04 ( -29.24%)
   displ. norm   :     0.2826475 α      lambda       -0.5609588E-04
   maximum displ.:     0.1641224 α      in ANC's #4, #5, #7, ...

........................................................................
.............................. CYCLE   20 ..............................
........................................................................

 iter      E             dE          RMSdq      gap      omega  full diag
   1   -103.9641514 -0.103964E+03  0.421E-02    1.56       0.0  T
   2   -103.9641527 -0.127335E-05  0.234E-02    1.57       1.0  T
   3   -103.9641525  0.203527E-06  0.480E-03    1.57       2.6  T
   4   -103.9641528 -0.292404E-06  0.236E-03    1.57       5.2  T
   5   -103.9641530 -0.244128E-06  0.820E-04    1.57      15.0  T
   6   -103.9641530 -0.152010E-07  0.205E-04    1.57      60.1  T
     SCC iter.                  ...        0 min,  0.063 sec
     gradient                   ...        0 min,  0.094 sec
 * total energy  :  -102.6714670 Eh     change       -0.4229037E-04 Eh
   gradient norm :     0.0032546 Eh/α   predicted    -0.3029160E-04 ( -28.37%)
   displ. norm   :     0.2546821 α      lambda       -0.4849755E-04
   maximum displ.:     0.1481005 α      in ANC's #4, #5, #7, ...
 * RMSD in coord.:     0.4180881 α      energy gain  -0.2032248E-01 Eh

generating ANC from exact Hessian ...
Using Lindh-Hessian (1995)
 Shifting diagonal of input Hessian by    9.9060285769611758E-003
 Lowest  eigenvalues of input Hessian
    0.000000    0.000000    0.000000    0.000000    0.000000    0.000000
    0.010000    0.010046    0.010142    0.010469    0.010612    0.010911
    0.011191    0.011604    0.011865    0.012061    0.012450    0.012803
 Highest eigenvalues
    2.099216    2.200818    2.354393    2.434054    2.721216    3.523142


........................................................................
.............................. CYCLE   21 ..............................
........................................................................

 iter      E             dE          RMSdq      gap      omega  full diag
   1   -103.9643140 -0.103964E+03  0.372E-02    1.56       0.0  T
   2   -103.9643149 -0.907725E-06  0.208E-02    1.56       1.0  T
   3   -103.9643146  0.316776E-06  0.434E-03    1.56       2.8  T
   4   -103.9643150 -0.402067E-06  0.219E-03    1.56       5.6  T
   5   -103.9643152 -0.195216E-06  0.645E-04    1.56      19.1  T
   6   -103.9643152 -0.100980E-07  0.186E-04    1.56      66.0  T
     SCC iter.                  ...        0 min,  0.063 sec
     gradient                   ...        0 min,  0.082 sec
 * total energy  :  -102.6715031 Eh     change       -0.3607659E-04 Eh
   gradient norm :     0.0027019 Eh/α   predicted     0.0000000E+00 (-100.00%)
   displ. norm   :     0.0244171 α      lambda       -0.1204282E-04
   maximum displ.:     0.0100347 α      in ANC's #8, #5, #21, ...

........................................................................
.............................. CYCLE   22 ..............................
........................................................................

 iter      E             dE          RMSdq      gap      omega  full diag
   1   -103.9650379 -0.103965E+03  0.475E-03    1.56       0.0  T
   2   -103.9650380 -0.637102E-07  0.271E-03    1.56       4.5  T
   3   -103.9650379  0.593842E-08  0.869E-04    1.56      14.2  T
   4   -103.9650380 -0.116942E-07  0.278E-04    1.56      44.2  T
     SCC iter.                  ...        0 min,  0.020 sec
     gradient                   ...        0 min,  0.094 sec
 * total energy  :  -102.6715180 Eh     change       -0.1493993E-04 Eh
   gradient norm :     0.0016186 Eh/α   predicted    -0.8782969E-05 ( -41.21%)
   displ. norm   :     0.1353363 α      lambda       -0.3867407E-04
   maximum displ.:     0.0583978 α      in ANC's #8, #5, #19, ...

........................................................................
.............................. CYCLE   23 ..............................
........................................................................

 iter      E             dE          RMSdq      gap      omega  full diag
   1   -103.9666833 -0.103967E+03  0.221E-02    1.56       0.0  T
   2   -103.9666843 -0.927527E-06  0.126E-02    1.56       1.0  T
   3   -103.9666842  0.844782E-07  0.343E-03    1.56       3.6  T
   4   -103.9666843 -0.159894E-06  0.121E-03    1.56      10.1  T
   5   -103.9666844 -0.660377E-07  0.504E-04    1.56      24.4  T
   6   -103.9666844 -0.463479E-08  0.156E-04    1.56      78.8  T
     SCC iter.                  ...        0 min,  0.069 sec
     gradient                   ...        0 min,  0.088 sec
 * total energy  :  -102.6715448 Eh     change       -0.2676536E-04 Eh
   gradient norm :     0.0027862 Eh/α   predicted    -0.2098595E-04 ( -21.59%)
   displ. norm   :     0.0226694 α      lambda       -0.9097385E-05
   maximum displ.:     0.0107377 α      in ANC's #5, #19, #8, ...

........................................................................
.............................. CYCLE   24 ..............................
........................................................................

 iter      E             dE          RMSdq      gap      omega  full diag
   1   -103.9662743 -0.103966E+03  0.360E-03    1.56       0.0  T
   2   -103.9662743 -0.246932E-07  0.213E-03    1.56       5.8  T
   3   -103.9662743  0.111300E-07  0.606E-04    1.56      20.3  T
   4   -103.9662743 -0.149947E-07  0.162E-04    1.56      75.9  T
     SCC iter.                  ...        0 min,  0.020 sec
     gradient                   ...        0 min,  0.088 sec
 * total energy  :  -102.6715542 Eh     change       -0.9379806E-05 Eh
   gradient norm :     0.0020490 Eh/α   predicted    -0.5122685E-05 ( -45.39%)
   displ. norm   :     0.1663633 α      lambda       -0.5351933E-04
   maximum displ.:     0.0752849 α      in ANC's #5, #19, #8, ...

........................................................................
.............................. CYCLE   25 ..............................
........................................................................

 iter      E             dE          RMSdq      gap      omega  full diag
   1   -103.9644245 -0.103964E+03  0.244E-02    1.56       0.0  T
   2   -103.9644251 -0.626966E-06  0.144E-02    1.56       1.0  T
   3   -103.9644247  0.365895E-06  0.316E-03    1.56       3.9  T
   4   -103.9644252 -0.474749E-06  0.896E-04    1.56      13.7  T
   5   -103.9644252 -0.296404E-07  0.421E-04    1.56      29.2  T
     SCC iter.                  ...        0 min,  0.064 sec
     gradient                   ...        0 min,  0.095 sec
 * total energy  :  -102.6715882 Eh     change       -0.3404621E-04 Eh
   gradient norm :     0.0021628 Eh/α   predicted    -0.2750057E-04 ( -19.23%)
   displ. norm   :     0.1682559 α      lambda        0.1596889E-04
   maximum displ.:     0.0761562 α      in ANC's #5, #19, #8, ...

........................................................................
.............................. CYCLE   26 ..............................
........................................................................

 iter      E             dE          RMSdq      gap      omega  full diag
   1   -103.9620392 -0.103962E+03  0.248E-02    1.57       0.0  T
   2   -103.9620399 -0.719190E-06  0.146E-02    1.57       1.0  T
   3   -103.9620396  0.311726E-06  0.317E-03    1.57       3.9  T
   4   -103.9620400 -0.427522E-06  0.913E-04    1.57      13.5  T
   5   -103.9620400 -0.279426E-07  0.442E-04    1.57      27.9  T
     SCC iter.                  ...        0 min,  0.025 sec
     gradient                   ...        0 min,  0.076 sec
 * total energy  :  -102.6715756 Eh     change        0.1259595E-04 Eh
   gradient norm :     0.0061789 Eh/α   predicted     0.8208359E-05 ( -34.83%)
   displ. norm   :     0.0646633 α      lambda       -0.4548856E-04
   maximum displ.:     0.0309172 α      in ANC's #19, #8, #5, ...

........................................................................
.............................. CYCLE   27 ..............................
........................................................................

 iter      E             dE          RMSdq      gap      omega  full diag
   1   -103.9642539 -0.103964E+03  0.122E-02    1.56       0.0  T
   2   -103.9642543 -0.449078E-06  0.708E-03    1.56       1.7  T
   3   -103.9642542  0.103183E-06  0.231E-03    1.56       5.3  T
   4   -103.9642544 -0.157710E-06  0.676E-04    1.56      18.2  T
   5   -103.9642544 -0.183296E-07  0.312E-04    1.56      39.4  T
     SCC iter.                  ...        0 min,  0.025 sec
     gradient                   ...        0 min,  0.082 sec
 * total energy  :  -102.6716038 Eh     change       -0.2815357E-04 Eh
   gradient norm :     0.0026749 Eh/α   predicted    -0.2286611E-04 ( -18.78%)
   displ. norm   :     0.0548046 α      lambda       -0.1917614E-04
   maximum displ.:     0.0260726 α      in ANC's #5, #8, #19, ...

........................................................................
.............................. CYCLE   28 ..............................
........................................................................

 iter      E             dE          RMSdq      gap      omega  full diag
   1   -103.9652058 -0.103965E+03  0.764E-03    1.56       0.0  T
   2   -103.9652059 -0.883275E-07  0.447E-03    1.56       2.8  T
   3   -103.9652059  0.257712E-07  0.108E-03    1.56      11.4  T
   4   -103.9652059 -0.399929E-07  0.329E-04    1.56      37.4  T
   5   -103.9652059 -0.132654E-08  0.159E-04    1.56      77.4  T
     SCC iter.                  ...        0 min,  0.025 sec
     gradient                   ...        0 min,  0.100 sec
 * total energy  :  -102.6716200 Eh     change       -0.1619172E-04 Eh
   gradient norm :     0.0013718 Eh/α   predicted    -0.9617145E-05 ( -40.60%)
   displ. norm   :     0.3672415 α      lambda       -0.5059733E-04
   maximum displ.:     0.1722223 α      in ANC's #5, #19, #8, ...

........................................................................
.............................. CYCLE   29 ..............................
........................................................................

 iter      E             dE          RMSdq      gap      omega  full diag
   1   -103.9663492 -0.103966E+03  0.476E-02    1.56       0.0  T
   2   -103.9663501 -0.930248E-06  0.279E-02    1.56       1.0  T
   3   -103.9663499  0.225407E-06  0.369E-03    1.56       3.3  T
   4   -103.9663503 -0.463157E-06  0.148E-03    1.56       8.3  T
   5   -103.9663503 -0.173766E-07  0.581E-04    1.56      21.2  T
   6   -103.9663504 -0.178170E-07  0.198E-04    1.56      62.2  T
     SCC iter.                  ...        0 min,  0.057 sec
     gradient                   ...        0 min,  0.092 sec
 * total energy  :  -102.6716725 Eh     change       -0.5249696E-04 Eh
   gradient norm :     0.0029244 Eh/α   predicted    -0.2681286E-04 ( -48.92%)
   displ. norm   :     0.2592930 α      lambda       -0.4164527E-04
   maximum displ.:     0.1243878 α      in ANC's #5, #19, #8, ...

........................................................................
.............................. CYCLE   30 ..............................
........................................................................

 iter      E             dE          RMSdq      gap      omega  full diag
   1   -103.9654117 -0.103965E+03  0.329E-02    1.56       0.0  T
   2   -103.9654121 -0.367053E-06  0.192E-02    1.56       1.0  T
   3   -103.9654121  0.977394E-09  0.206E-03    1.56       6.0  T
   4   -103.9654122 -0.728420E-07  0.105E-03    1.56      11.7  T
   5   -103.9654122 -0.390202E-07  0.377E-04    1.56      32.7  T
   6   -103.9654122 -0.413721E-08  0.131E-04    1.56      93.9  T
     SCC iter.                  ...        0 min,  0.029 sec
     gradient                   ...        0 min,  0.099 sec
 * total energy  :  -102.6717035 Eh     change       -0.3104529E-04 Eh
   gradient norm :     0.0036925 Eh/α   predicted    -0.2222288E-04 ( -28.42%)
   displ. norm   :     0.2622191 α      lambda       -0.5744094E-04
   maximum displ.:     0.1309938 α      in ANC's #5, #19, #1, ...

........................................................................
.............................. CYCLE   31 ..............................
........................................................................

 iter      E             dE          RMSdq      gap      omega  full diag
   1   -103.9647974 -0.103965E+03  0.332E-02    1.56       0.0  T
   2   -103.9647980 -0.593519E-06  0.191E-02    1.56       1.0  T
   3   -103.9647979  0.958436E-07  0.308E-03    1.56       4.0  T
   4   -103.9647981 -0.141199E-06  0.154E-03    1.56       8.0  T
   5   -103.9647982 -0.110298E-06  0.537E-04    1.56      22.9  T
   6   -103.9647982 -0.634647E-08  0.155E-04    1.56      79.6  T
     SCC iter.                  ...        0 min,  0.051 sec
     gradient                   ...        0 min,  0.055 sec
 * total energy  :  -102.6717448 Eh     change       -0.4125376E-04 Eh
   gradient norm :     0.0031059 Eh/α   predicted    -0.3069273E-04 ( -25.60%)
   displ. norm   :     0.1820025 α      lambda       -0.5204430E-04
   maximum displ.:     0.0922911 α      in ANC's #5, #1, #4, ...

........................................................................
.............................. CYCLE   32 ..............................
........................................................................

 iter      E             dE          RMSdq      gap      omega  full diag
   1   -103.9652811 -0.103965E+03  0.235E-02    1.56       0.0  T
   2   -103.9652817 -0.652593E-06  0.133E-02    1.56       1.0  T
   3   -103.9652817  0.703038E-07  0.287E-03    1.56       4.3  T
   4   -103.9652818 -0.954946E-07  0.136E-03    1.56       9.0  T
   5   -103.9652819 -0.934327E-07  0.486E-04    1.56      25.3  T
   6   -103.9652819 -0.375573E-08  0.132E-04    1.56      93.5  T
     SCC iter.                  ...        0 min,  0.030 sec
     gradient                   ...        0 min,  0.095 sec
 * total energy  :  -102.6717791 Eh     change       -0.3429477E-04 Eh
   gradient norm :     0.0019830 Eh/α   predicted    -0.2688411E-04 ( -21.61%)
   displ. norm   :     0.6802275 α      lambda       -0.5911570E-04
   maximum displ.:     0.3367434 α      in ANC's #5, #1, #19, ...

........................................................................
.............................. CYCLE   33 ..............................
........................................................................

 iter      E             dE          RMSdq      gap      omega  full diag
   1   -103.9585652 -0.103959E+03  0.837E-02    1.56       0.0  T
   2   -103.9585716 -0.634831E-05  0.484E-02    1.56       1.0  T
   3   -103.9585706  0.104369E-05  0.831E-03    1.56       1.5  T
   4   -103.9585722 -0.161968E-05  0.385E-03    1.56       3.2  T
   5   -103.9585729 -0.714734E-06  0.150E-03    1.56       8.2  T
   6   -103.9585729 -0.331054E-07  0.442E-04    1.56      27.9  T
   7   -103.9585729 -0.647562E-08  0.185E-04    1.56      66.4  T
     SCC iter.                  ...        0 min,  0.056 sec
     gradient                   ...        0 min,  0.094 sec
 * total energy  :  -102.6716548 Eh     change        0.1242664E-03 Eh
   gradient norm :     0.0120439 Eh/α   predicted    -0.3563126E-04 (-128.67%)
   displ. norm   :     0.2348239 α      lambda       -0.3118342E-03
   maximum displ.:     0.1116320 α      in ANC's #5, #19, #8, ...

........................................................................
.............................. CYCLE   34 ..............................
........................................................................

 iter      E             dE          RMSdq      gap      omega  full diag
   1   -103.9638923 -0.103964E+03  0.350E-02    1.56       0.0  T
   2   -103.9638950 -0.267537E-05  0.198E-02    1.56       1.0  T
   3   -103.9638950 -0.874745E-07  0.418E-03    1.56       2.9  T
   4   -103.9638951 -0.980631E-07  0.145E-03    1.56       8.5  T
   5   -103.9638952 -0.625567E-07  0.767E-04    1.56      16.0  T
   6   -103.9638952 -0.148094E-07  0.197E-04    1.56      62.6  T
     SCC iter.                  ...        0 min,  0.030 sec
     gradient                   ...        0 min,  0.099 sec
 * total energy  :  -102.6718229 Eh     change       -0.1680950E-03 Eh
   gradient norm :     0.0035904 Eh/α   predicted    -0.1645631E-03 (  -2.10%)
   displ. norm   :     0.0441228 α      lambda       -0.2508511E-04
   maximum displ.:     0.0215728 α      in ANC's #1, #4, #5, ...

........................................................................
.............................. CYCLE   35 ..............................
........................................................................

 iter      E             dE          RMSdq      gap      omega  full diag
   1   -103.9652946 -0.103965E+03  0.700E-03    1.56       0.0  T
   2   -103.9652947 -0.156806E-06  0.391E-03    1.56       3.1  T
   3   -103.9652947 -0.857938E-09  0.102E-03    1.56      12.1  T
   4   -103.9652948 -0.900783E-08  0.364E-04    1.56      33.8  T
   5   -103.9652948 -0.496175E-08  0.169E-04    1.56      72.9  T
     SCC iter.                  ...        0 min,  0.040 sec
     gradient                   ...        0 min,  0.055 sec
 * total energy  :  -102.6718414 Eh     change       -0.1848898E-04 Eh
   gradient norm :     0.0021833 Eh/α   predicted    -0.1256321E-04 ( -32.05%)
   displ. norm   :     0.0975492 α      lambda       -0.2513307E-04
   maximum displ.:     0.0502336 α      in ANC's #1, #4, #5, ...

........................................................................
.............................. CYCLE   36 ..............................
........................................................................

 iter      E             dE          RMSdq      gap      omega  full diag
   1   -103.9664774 -0.103966E+03  0.118E-02    1.56       0.0  T
   2   -103.9664776 -0.204290E-06  0.679E-03    1.56       1.8  T
   3   -103.9664776  0.182493E-08  0.130E-03    1.56       9.4  T
   4   -103.9664776 -0.261160E-07  0.532E-04    1.56      23.2  T
   5   -103.9664776 -0.581623E-08  0.238E-04    1.56      51.7  T
     SCC iter.                  ...        0 min,  0.025 sec
     gradient                   ...        0 min,  0.092 sec
 * total energy  :  -102.6718605 Eh     change       -0.1908929E-04 Eh
   gradient norm :     0.0015374 Eh/α   predicted    -0.1268158E-04 ( -33.57%)
   displ. norm   :     0.3433431 α      lambda       -0.3601128E-04
   maximum displ.:     0.1754995 α      in ANC's #1, #4, #5, ...

........................................................................
.............................. CYCLE   37 ..............................
........................................................................

 iter      E             dE          RMSdq      gap      omega  full diag
   1   -103.9669136 -0.103967E+03  0.369E-02    1.56       0.0  T
   2   -103.9669146 -0.946735E-06  0.217E-02    1.55       1.0  T
   3   -103.9669144  0.139432E-06  0.320E-03    1.55       3.8  T
   4   -103.9669148 -0.323082E-06  0.142E-03    1.55       8.6  T
   5   -103.9669148 -0.487811E-07  0.640E-04    1.55      19.2  T
   6   -103.9669148 -0.114047E-07  0.184E-04    1.55      66.8  T
     SCC iter.                  ...        0 min,  0.030 sec
     gradient                   ...        0 min,  0.082 sec
 * total energy  :  -102.6719009 Eh     change       -0.4038720E-04 Eh
   gradient norm :     0.0021676 Eh/α   predicted    -0.1889065E-04 ( -53.23%)
   displ. norm   :     0.3484276 α      lambda       -0.3891898E-04
   maximum displ.:     0.1782335 α      in ANC's #1, #4, #5, ...

........................................................................
.............................. CYCLE   38 ..............................
........................................................................

 iter      E             dE          RMSdq      gap      omega  full diag
   1   -103.9646069 -0.103965E+03  0.367E-02    1.55       0.0  T
   2   -103.9646078 -0.912826E-06  0.215E-02    1.55       1.0  T
   3   -103.9646077  0.424019E-07  0.267E-03    1.55       4.6  T
   4   -103.9646080 -0.216405E-06  0.129E-03    1.55       9.6  T
   5   -103.9646080 -0.475081E-07  0.607E-04    1.55      20.3  T
   6   -103.9646080 -0.858542E-08  0.161E-04    1.55      76.4  T
     SCC iter.                  ...        0 min,  0.029 sec
     gradient                   ...        0 min,  0.073 sec
 * total energy  :  -102.6719165 Eh     change       -0.1560050E-04 Eh
   gradient norm :     0.0041812 Eh/α   predicted    -0.2169573E-04 (  39.07%)
   displ. norm   :     0.0563498 α      lambda       -0.2460405E-04
   maximum displ.:     0.0283418 α      in ANC's #5, #19, #1, ...

........................................................................
.............................. CYCLE   39 ..............................
........................................................................

 iter      E             dE          RMSdq      gap      omega  full diag
   1   -103.9653854 -0.103965E+03  0.873E-03    1.55       0.0  T
   2   -103.9653856 -0.187117E-06  0.501E-03    1.55       2.5  T
   3   -103.9653855  0.670853E-07  0.157E-03    1.55       7.8  T
   4   -103.9653856 -0.924333E-07  0.461E-04    1.55      26.7  T
   5   -103.9653857 -0.978562E-08  0.189E-04    1.55      65.1  T
     SCC iter.                  ...        0 min,  0.025 sec
     gradient                   ...        0 min,  0.085 sec
 * total energy  :  -102.6719337 Eh     change       -0.1725126E-04 Eh
   gradient norm :     0.0023261 Eh/α   predicted    -0.1242655E-04 ( -27.97%)
   displ. norm   :     0.1523402 α      lambda       -0.3529175E-04
   maximum displ.:     0.0810088 α      in ANC's #1, #4, #7, ...

........................................................................
.............................. CYCLE   40 ..............................
........................................................................

 iter      E             dE          RMSdq      gap      omega  full diag
   1   -103.9656138 -0.103966E+03  0.197E-02    1.55       0.0  T
   2   -103.9656142 -0.442456E-06  0.114E-02    1.55       1.1  T
   3   -103.9656139  0.343934E-06  0.294E-03    1.55       4.2  T
   4   -103.9656143 -0.458123E-06  0.738E-04    1.55      16.7  T
   5   -103.9656143 -0.139528E-07  0.333E-04    1.55      37.0  T
     SCC iter.                  ...        0 min,  0.052 sec
     gradient                   ...        0 min,  0.055 sec
 * total energy  :  -102.6719608 Eh     change       -0.2708975E-04 Eh
   gradient norm :     0.0019277 Eh/α   predicted    -0.1755958E-04 ( -35.18%)
   displ. norm   :     0.4733953 α      lambda       -0.9599435E-04
   maximum displ.:     0.2568819 α      in ANC's #1, #4, #19, ...

........................................................................
.............................. CYCLE   41 ..............................
........................................................................

 iter      E             dE          RMSdq      gap      omega  full diag
   1   -103.9641076 -0.103964E+03  0.577E-02    1.55       0.0  T
   2   -103.9641101 -0.245159E-05  0.335E-02    1.55       1.0  T
   3   -103.9641082  0.187078E-05  0.703E-03    1.55       1.8  T
   4   -103.9641108 -0.260606E-05  0.210E-03    1.55       5.9  T
   5   -103.9641109 -0.831717E-07  0.880E-04    1.55      14.0  T
   6   -103.9641109 -0.199351E-07  0.268E-04    1.55      46.0  T
     SCC iter.                  ...        0 min,  0.055 sec
     gradient                   ...        0 min,  0.103 sec
 * total energy  :  -102.6720035 Eh     change       -0.4272570E-04 Eh
   gradient norm :     0.0034925 Eh/α   predicted    -0.2667137E-04 ( -37.58%)
   displ. norm   :     0.1335877 α      lambda       -0.7361984E-04
   maximum displ.:     0.0684674 α      in ANC's #1, #4, #7, ...

........................................................................
.............................. CYCLE   42 ..............................
........................................................................

 iter      E             dE          RMSdq      gap      omega  full diag
   1   -103.9648558 -0.103965E+03  0.215E-02    1.55       0.0  T
   2   -103.9648563 -0.503269E-06  0.123E-02    1.55       1.0  T
   3   -103.9648560  0.342184E-06  0.322E-03    1.55       3.8  T
   4   -103.9648564 -0.461711E-06  0.962E-04    1.55      12.8  T
   5   -103.9648565 -0.285699E-07  0.390E-04    1.55      31.5  T
     SCC iter.                  ...        0 min,  0.056 sec
     gradient                   ...        0 min,  0.056 sec
 * total energy  :  -102.6720246 Eh     change       -0.2104691E-04 Eh
   gradient norm :     0.0025229 Eh/α   predicted    -0.1343450E-04 ( -36.17%)
   displ. norm   :     0.2129626 α      lambda       -0.1545007E-03
   maximum displ.:     0.1173893 α      in ANC's #1, #4, #7, ...
 * RMSD in coord.:     0.4053665 α      energy gain  -0.5575562E-03 Eh

generating ANC from exact Hessian ...
Using Lindh-Hessian (1995)
 Shifting diagonal of input Hessian by    9.9080454675270647E-003
 Lowest  eigenvalues of input Hessian
    0.000000    0.000000    0.000000    0.000000    0.000000    0.000000
    0.010000    0.010046    0.010145    0.010491    0.010645    0.010935
    0.011195    0.011587    0.011813    0.012090    0.012498    0.012825
 Highest eigenvalues
    2.099257    2.200834    2.356386    2.433632    2.728469    3.539480


........................................................................
.............................. CYCLE   43 ..............................
........................................................................

 iter      E             dE          RMSdq      gap      omega  full diag
   1   -103.9656630 -0.103966E+03  0.311E-02    1.55       0.0  T
   2   -103.9656638 -0.813112E-06  0.179E-02    1.55       1.0  T
   3   -103.9656634  0.402464E-06  0.380E-03    1.55       3.2  T
   4   -103.9656640 -0.587765E-06  0.126E-03    1.55       9.8  T
   5   -103.9656641 -0.471003E-07  0.492E-04    1.55      25.0  T
   6   -103.9656641 -0.415058E-08  0.147E-04    1.55      83.6  T
     SCC iter.                  ...        0 min,  0.073 sec
     gradient                   ...        0 min,  0.057 sec
 * total energy  :  -102.6720459 Eh     change       -0.2128939E-04 Eh
   gradient norm :     0.0016505 Eh/α   predicted     0.0000000E+00 (-100.00%)
   displ. norm   :     0.0292540 α      lambda       -0.2732648E-05
   maximum displ.:     0.0104733 α      in ANC's #8, #18, #4, ...

........................................................................
.............................. CYCLE   44 ..............................
........................................................................

 iter      E             dE          RMSdq      gap      omega  full diag
   1   -103.9664270 -0.103966E+03  0.603E-03    1.55       0.0  T
   2   -103.9664271 -0.108764E-06  0.338E-03    1.55       3.6  T
   3   -103.9664271  0.194394E-07  0.108E-03    1.55      11.4  T
   4   -103.9664271 -0.278329E-07  0.378E-04    1.55      32.5  T
   5   -103.9664272 -0.650230E-08  0.141E-04    1.55      87.2  T
     SCC iter.                  ...        0 min,  0.028 sec
     gradient                   ...        0 min,  0.093 sec
 * total energy  :  -102.6720570 Eh     change       -0.1109374E-04 Eh
   gradient norm :     0.0006416 Eh/α   predicted    -0.5279274E-05 ( -52.41%)
   displ. norm   :     0.0640218 α      lambda       -0.1151035E-04
   maximum displ.:     0.0232095 α      in ANC's #4, #8, #19, ...

........................................................................
.............................. CYCLE   45 ..............................
........................................................................

 iter      E             dE          RMSdq      gap      omega  full diag
   1   -103.9666578 -0.103967E+03  0.106E-02    1.55       0.0  T
   2   -103.9666579 -0.104659E-06  0.614E-03    1.55       2.0  T
   3   -103.9666579  0.494848E-07  0.135E-03    1.55       9.1  T
   4   -103.9666579 -0.645980E-07  0.491E-04    1.55      25.1  T
   5   -103.9666579 -0.950104E-08  0.183E-04    1.55      67.4  T
     SCC iter.                  ...        0 min,  0.062 sec
     gradient                   ...        0 min,  0.056 sec
 * total energy  :  -102.6720697 Eh     change       -0.1275887E-04 Eh
   gradient norm :     0.0010541 Eh/α   predicted    -0.5766696E-05 ( -54.80%)
   displ. norm   :     0.1222792 α      lambda       -0.1557799E-04
   maximum displ.:     0.0476744 α      in ANC's #19, #4, #8, ...

........................................................................
.............................. CYCLE   46 ..............................
........................................................................

 iter      E             dE          RMSdq      gap      omega  full diag
   1   -103.9662777 -0.103966E+03  0.182E-02    1.55       0.0  T
   2   -103.9662779 -0.151802E-06  0.106E-02    1.55       1.2  T
   3   -103.9662778  0.434122E-07  0.161E-03    1.55       7.6  T
   4   -103.9662779 -0.687940E-07  0.749E-04    1.55      16.4  T
   5   -103.9662779 -0.214841E-07  0.275E-04    1.55      44.8  T
     SCC iter.                  ...        0 min,  0.036 sec
     gradient                   ...        0 min,  0.057 sec
 * total energy  :  -102.6720844 Eh     change       -0.1464506E-04 Eh
   gradient norm :     0.0015563 Eh/α   predicted    -0.7841076E-05 ( -46.46%)
   displ. norm   :     0.1215059 α      lambda       -0.1256895E-04
   maximum displ.:     0.0545214 α      in ANC's #19, #4, #8, ...

........................................................................
.............................. CYCLE   47 ..............................
........................................................................

 iter      E             dE          RMSdq      gap      omega  full diag
   1   -103.9657895 -0.103966E+03  0.184E-02    1.55       0.0  T
   2   -103.9657897 -0.118940E-06  0.108E-02    1.55       1.1  T
   3   -103.9657897  0.491929E-08  0.130E-03    1.55       9.5  T
   4   -103.9657897 -0.262525E-07  0.643E-04    1.55      19.1  T
   5   -103.9657897 -0.165589E-07  0.248E-04    1.55      49.6  T
     SCC iter.                  ...        0 min,  0.030 sec
     gradient                   ...        0 min,  0.079 sec
 * total energy  :  -102.6720968 Eh     change       -0.1241577E-04 Eh
   gradient norm :     0.0016096 Eh/α   predicted    -0.6326669E-05 ( -49.04%)
   displ. norm   :     0.1118038 α      lambda       -0.1201718E-04
   maximum displ.:     0.0552913 α      in ANC's #19, #4, #1, ...

........................................................................
.............................. CYCLE   48 ..............................
........................................................................

 iter      E             dE          RMSdq      gap      omega  full diag
   1   -103.9655056 -0.103966E+03  0.160E-02    1.55       0.0  T
   2   -103.9655058 -0.152649E-06  0.932E-03    1.55       1.3  T
   3   -103.9655057  0.988371E-07  0.178E-03    1.54       6.9  T
   4   -103.9655058 -0.128361E-06  0.666E-04    1.54      18.5  T
   5   -103.9655058 -0.157751E-07  0.258E-04    1.54      47.7  T
     SCC iter.                  ...        0 min,  0.031 sec
     gradient                   ...        0 min,  0.082 sec
 * total energy  :  -102.6721106 Eh     change       -0.1378616E-04 Eh
   gradient norm :     0.0016051 Eh/α   predicted    -0.6047448E-05 ( -56.13%)
   displ. norm   :     0.1297921 α      lambda       -0.1748619E-04
   maximum displ.:     0.0655768 α      in ANC's #19, #4, #1, ...

........................................................................
.............................. CYCLE   49 ..............................
........................................................................

 iter      E             dE          RMSdq      gap      omega  full diag
   1   -103.9656126 -0.103966E+03  0.184E-02    1.54       0.0  T
   2   -103.9656129 -0.301425E-06  0.107E-02    1.54       1.2  T
   3   -103.9656127  0.245972E-06  0.258E-03    1.54       4.8  T
   4   -103.9656130 -0.315476E-06  0.758E-04    1.54      16.2  T
   5   -103.9656130 -0.171378E-07  0.301E-04    1.54      40.9  T
     SCC iter.                  ...        0 min,  0.053 sec
     gradient                   ...        0 min,  0.056 sec
 * total energy  :  -102.6721276 Eh     change       -0.1705989E-04 Eh
   gradient norm :     0.0016888 Eh/α   predicted    -0.8808769E-05 ( -48.37%)
   displ. norm   :     0.0836836 α      lambda       -0.8595181E-05
   maximum displ.:     0.0420764 α      in ANC's #19, #4, #1, ...

........................................................................
.............................. CYCLE   50 ..............................
........................................................................

 iter      E             dE          RMSdq      gap      omega  full diag
   1   -103.9657909 -0.103966E+03  0.103E-02    1.54       0.0  T
   2   -103.9657909 -0.431527E-07  0.606E-03    1.54       2.0  T
   3   -103.9657909  0.353912E-07  0.927E-04    1.54      13.3  T
   4   -103.9657910 -0.502248E-07  0.274E-04    1.54      45.0  T
     SCC iter.                  ...        0 min,  0.027 sec
     gradient                   ...        0 min,  0.057 sec
 * total energy  :  -102.6721379 Eh     change       -0.1026757E-04 Eh
   gradient norm :     0.0015521 Eh/α   predicted    -0.4312062E-05 ( -58.00%)
   displ. norm   :     0.1533152 α      lambda       -0.1429306E-04
   maximum displ.:     0.0773500 α      in ANC's #19, #1, #4, ...

........................................................................
.............................. CYCLE   51 ..............................
........................................................................

 iter      E             dE          RMSdq      gap      omega  full diag
   1   -103.9658749 -0.103966E+03  0.178E-02    1.54       0.0  T
   2   -103.9658749 -0.710369E-07  0.106E-02    1.55       1.2  T
   3   -103.9658749  0.710749E-07  0.131E-03    1.55       9.4  T
   4   -103.9658750 -0.102696E-06  0.398E-04    1.55      30.9  T
   5   -103.9658750 -0.236294E-08  0.196E-04    1.55      62.7  T
     SCC iter.                  ...        0 min,  0.029 sec
     gradient                   ...        0 min,  0.056 sec
 * total energy  :  -102.6721538 Eh     change       -0.1593279E-04 Eh
   gradient norm :     0.0014301 Eh/α   predicted    -0.7233072E-05 ( -54.60%)
   displ. norm   :     0.1533365 α      lambda       -0.1478206E-04
   maximum displ.:     0.0807341 α      in ANC's #1, #4, #19, ...

........................................................................
.............................. CYCLE   52 ..............................
........................................................................

 iter      E             dE          RMSdq      gap      omega  full diag
   1   -103.9663132 -0.103966E+03  0.169E-02    1.55       0.0  T
   2   -103.9663134 -0.171933E-06  0.991E-03    1.55       1.2  T
   3   -103.9663133  0.790319E-07  0.170E-03    1.55       7.2  T
   4   -103.9663134 -0.953873E-07  0.685E-04    1.55      18.0  T
   5   -103.9663134 -0.205829E-07  0.255E-04    1.55      48.2  T
     SCC iter.                  ...        0 min,  0.028 sec
     gradient                   ...        0 min,  0.056 sec
 * total energy  :  -102.6721686 Eh     change       -0.1478281E-04 Eh
   gradient norm :     0.0009874 Eh/α   predicted    -0.7474008E-05 ( -49.44%)
   displ. norm   :     0.3830285 α      lambda       -0.2198635E-04
   maximum displ.:     0.1973552 α      in ANC's #19, #1, #4, ...

........................................................................
.............................. CYCLE   53 ..............................
........................................................................

 iter      E             dE          RMSdq      gap      omega  full diag
   1   -103.9632154 -0.103963E+03  0.461E-02    1.55       0.0  T
   2   -103.9632174 -0.197276E-05  0.271E-02    1.55       1.0  T
   3   -103.9632174  0.185955E-07  0.321E-03    1.55       3.8  T
   4   -103.9632176 -0.221395E-06  0.140E-03    1.55       8.8  T
   5   -103.9632177 -0.671008E-07  0.653E-04    1.55      18.8  T
   6   -103.9632177 -0.437616E-08  0.211E-04    1.55      58.3  T
     SCC iter.                  ...        0 min,  0.030 sec
     gradient                   ...        0 min,  0.072 sec
 * total energy  :  -102.6721146 Eh     change        0.5400180E-04 Eh
   gradient norm :     0.0075352 Eh/α   predicted    -0.1171766E-04 (-121.70%)
   displ. norm   :     0.1643657 α      lambda       -0.1253631E-03
   maximum displ.:     0.0886747 α      in ANC's #19, #4, #1, ...

........................................................................
.............................. CYCLE   54 ..............................
........................................................................

 iter      E             dE          RMSdq      gap      omega  full diag
   1   -103.9654659 -0.103965E+03  0.225E-02    1.55       0.0  T
   2   -103.9654668 -0.953302E-06  0.131E-02    1.55       1.0  T
   3   -103.9654669 -0.428175E-07  0.212E-03    1.55       5.8  T
   4   -103.9654669 -0.308738E-07  0.690E-04    1.55      17.8  T
   5   -103.9654669 -0.109002E-07  0.376E-04    1.55      32.8  T
     SCC iter.                  ...        0 min,  0.025 sec
     gradient                   ...        0 min,  0.071 sec
 * total energy  :  -102.6721821 Eh     change       -0.6743388E-04 Eh
   gradient norm :     0.0020266 Eh/α   predicted    -0.6437901E-04 (  -4.53%)
   displ. norm   :     0.0308137 α      lambda       -0.1104609E-04
   maximum displ.:     0.0175531 α      in ANC's #1, #4, #10, ...

........................................................................
.............................. CYCLE   55 ..............................
........................................................................

 iter      E             dE          RMSdq      gap      omega  full diag
   1   -103.9659861 -0.103966E+03  0.483E-03    1.55       0.0  T
   2   -103.9659862 -0.738722E-07  0.269E-03    1.55       4.6  T
   3   -103.9659862 -0.308290E-09  0.709E-04    1.55      17.4  T
   4   -103.9659862 -0.326096E-08  0.245E-04    1.55      50.3  T
     SCC iter.                  ...        0 min,  0.020 sec
     gradient                   ...        0 min,  0.071 sec
 * total energy  :  -102.6721901 Eh     change       -0.8057997E-05 Eh
   gradient norm :     0.0008158 Eh/α   predicted    -0.5528599E-05 ( -31.39%)
   displ. norm   :     0.0934272 α      lambda       -0.8295699E-05
   maximum displ.:     0.0569464 α      in ANC's #1, #4, #19, ...

........................................................................
.............................. CYCLE   56 ..............................
........................................................................

 iter      E             dE          RMSdq      gap      omega  full diag
   1   -103.9665074 -0.103967E+03  0.114E-02    1.55       0.0  T
   2   -103.9665075 -0.120820E-06  0.666E-03    1.54       1.8  T
   3   -103.9665075  0.218883E-07  0.102E-03    1.54      12.0  T
   4   -103.9665075 -0.302607E-07  0.438E-04    1.54      28.1  T
   5   -103.9665076 -0.953325E-08  0.168E-04    1.54      73.1  T
     SCC iter.                  ...        0 min,  0.025 sec
     gradient                   ...        0 min,  0.065 sec
 * total energy  :  -102.6721975 Eh     change       -0.7424997E-05 Eh
   gradient norm :     0.0010500 Eh/α   predicted    -0.4165435E-05 ( -43.90%)
   displ. norm   :     0.1255287 α      lambda       -0.6112595E-05
   maximum displ.:     0.0746311 α      in ANC's #1, #4, #19, ...

........................................................................
.............................. CYCLE   57 ..............................
........................................................................

 iter      E             dE          RMSdq      gap      omega  full diag
   1   -103.9662217 -0.103966E+03  0.144E-02    1.54       0.0  T
   2   -103.9662217 -0.612669E-07  0.853E-03    1.54       1.4  T
   3   -103.9662217 -0.171404E-08  0.686E-04    1.54      17.9  T
   4   -103.9662217 -0.114179E-07  0.345E-04    1.54      35.7  T
     SCC iter.                  ...        0 min,  0.020 sec
     gradient                   ...        0 min,  0.065 sec
 * total energy  :  -102.6722051 Eh     change       -0.7575419E-05 Eh
   gradient norm :     0.0005776 Eh/α   predicted    -0.3079811E-05 ( -59.34%)
   displ. norm   :     0.1627363 α      lambda       -0.5705531E-05
   maximum displ.:     0.0978364 α      in ANC's #1, #4, #19, ...

........................................................................
.............................. CYCLE   58 ..............................
........................................................................

 iter      E             dE          RMSdq      gap      omega  full diag
   1   -103.9656370 -0.103966E+03  0.190E-02    1.54       0.0  T
   2   -103.9656372 -0.151273E-06  0.112E-02    1.54       1.1  T
   3   -103.9656372 -0.134416E-07  0.933E-04    1.54      13.2  T
   4   -103.9656372 -0.133096E-07  0.437E-04    1.54      28.1  T
     SCC iter.                  ...        0 min,  0.020 sec
     gradient                   ...        0 min,  0.065 sec
 * total energy  :  -102.6722089 Eh     change       -0.3750237E-05 Eh
   gradient norm :     0.0013960 Eh/α   predicted    -0.2889400E-05 ( -22.95%)
   displ. norm   :     0.0159199 α      lambda       -0.2310252E-05
   maximum displ.:     0.0084245 α      in ANC's #19, #4, #5, ...

........................................................................
.............................. CYCLE   59 ..............................
........................................................................

 iter      E             dE          RMSdq      gap      omega  full diag
   1   -103.9659764 -0.103966E+03  0.270E-03    1.54       0.0  T
   2   -103.9659764 -0.209230E-07  0.151E-03    1.54       8.1  T
   3   -103.9659764  0.136690E-08  0.481E-04    1.54      25.6  T
   4   -103.9659764 -0.275118E-08  0.176E-04    1.54      69.9  T
     SCC iter.                  ...        0 min,  0.042 sec
     gradient                   ...        0 min,  0.056 sec
 * total energy  :  -102.6722114 Eh     change       -0.2552370E-05 Eh
   gradient norm :     0.0006759 Eh/α   predicted    -0.1156405E-05 ( -54.69%)
   displ. norm   :     0.0648959 α      lambda       -0.3019370E-05
   maximum displ.:     0.0465444 α      in ANC's #1, #4, #19, ...

   *** GEOMETRY OPTIMIZATION CONVERGED AFTER 59 ITERATIONS ***

------------------------------------------------------------------------
 total energy gain   :        -0.0210669 Eh      -13.2197 kcal/mol
 total RMSD          :         0.7394954 a0        0.3913 Å
 total power (kW/mol):        -0.9374753 (step)   -6.1008 (real)
------------------------------------------------------------------------

 ANCopt (total)                0 d,  0 h,  0 min,  9.066 sec
 optimizer setup                ...        0 min,  0.000 sec (  0.001%)
 model hessian                  ...        0 min,  0.108 sec (  1.189%)
 ANC generation                 ...        0 min,  0.012 sec (  0.130%)
 coordinate transformation      ...        0 min,  0.002 sec (  0.020%)
 single point calculation       ...        0 min,  8.919 sec ( 98.375%)
 optimization log               ...        0 min,  0.012 sec (  0.133%)
 hessian update                 ...        0 min,  0.002 sec (  0.021%)
 rational function              ...        0 min,  0.009 sec (  0.100%)

================
 final structure:
================
66
 xtb: 6.7.1 (edcfbbe)
C           -2.95291584120242       -2.60606454754866        5.83464490785578
C           -2.41302873038687       -3.20433827362626        4.54252727144381
C           -3.42805871717340       -3.07274486661504        3.39712461221498
C           -3.69878122966906       -1.65364224933227        3.04971117924063
N           -4.79147767847029       -0.97423208122993        3.32552563909857
C           -4.63022879380339        0.28081340530716        2.84597199361573
C           -5.66337836552818        1.33536791100864        2.98128760452335
C           -3.38666788821258        0.38594036606259        2.24669475873518
N           -2.81678978748519       -0.86789038227106        2.39557281904835
[...]
          coordinate file            : /rds/general/user/hgt20/home/callum/QDESCP/Vardenafil_rdkit_conf_18/Vardenafil_rdkit_conf_18.xyz
          omp threads                :                     1


           -------------------------------------------------
          |                 G F N 2 - x T B                 |
           -------------------------------------------------

        Reference                      10.1021/acs.jctc.8b01176
      * Hamiltonian:
        H0-scaling (s, p, d)           1.850000    2.230000    2.230000
        zeta-weighting                 0.500000
      * Dispersion:
        s8                             2.700000
        a1                             0.520000
        a2                             5.000000
        s9                             5.000000
      * Repulsion:
        kExp                           1.500000    1.000000
        rExp                           1.000000
      * Coulomb:
        alpha                          2.000000
        third order                    shell-resolved
        anisotropic                    true
        a3                             3.000000
        a5                             4.000000
        cn-shift                       1.200000
        cn-exp                         4.000000
        max-rad                        5.000000


          ...................................................
          :                      SETUP                      :
          :.................................................:
          :  # basis functions                 174          :
          :  # atomic orbitals                 173          :
          :  # shells                          101          :
          :  # electrons                       184          :
          :  max. iterations                   250          :
          :  Hamiltonian                  GFN2-xTB          :
          :  restarted?                      false          :
          :  GBSA solvation                  false          :
          :  PC potential                    false          :
          :  electronic temp.          300.0000000     K    :
          :  accuracy                    1.0000000          :
          :  -> integral cutoff          0.2500000E+02      :
          :  -> integral neglect         0.1000000E-07      :
          :  -> SCF convergence          0.1000000E-05 Eh   :
          :  -> wf. convergence          0.1000000E-03 e    :
          :  Broyden damping             0.4000000          :
          :  net charge                          0          :
          :  unpaired electrons                  2          :
          ...................................................

 iter      E             dE          RMSdq      gap      omega  full diag
   1   -103.5376002 -0.103538E+03  0.413E+00    0.76       0.0  T
   2   -103.7518038 -0.214204E+00  0.280E+00    0.47       1.0  T
   3   -103.6499834  0.101820E+00  0.193E+00    0.69       1.0  T
   4   -103.6967826 -0.467992E-01  0.146E+00    0.48       1.0  T
   5   -103.8012568 -0.104474E+00  0.902E-01    0.93       1.0  T
   6   -103.8208615 -0.196048E-01  0.713E-01    0.68       1.0  T
   7   -103.8517485 -0.308870E-01  0.447E-01    0.83       1.0  T
   8   -103.8627075 -0.109590E-01  0.321E-01    0.72       1.0  T
   9   -103.7426383  0.120069E+00  0.830E-01    0.70       1.0  T
  10   -103.8607327 -0.118094E+00  0.318E-01    0.73       1.0  T
  11   -103.8645460 -0.381325E-02  0.237E-01    0.73       1.0  T
  12   -103.8446094  0.199366E-01  0.404E-01    0.71       1.0  T
  13   -103.8743288 -0.297194E-01  0.414E-02    0.71       1.0  T
  14   -103.8721269  0.220182E-02  0.113E-01    0.72       1.0  T
  15   -103.8744588 -0.233189E-02  0.569E-03    0.72       2.2  T
  16   -103.8738409  0.617904E-03  0.575E-02    0.72       1.0  T
  17   -103.8744245 -0.583596E-03  0.144E-02    0.72       1.0  T
  18   -103.8744568 -0.322548E-04  0.396E-03    0.72       3.1  T
  19   -103.8744595 -0.266937E-05  0.992E-04    0.72      12.4  T
  20   -103.8744596 -0.137987E-06  0.341E-04    0.72      36.0  T
  21   -103.8744596 -0.129650E-07  0.165E-04    0.72      74.5  T

   *** convergence criteria satisfied after 21 iterations ***

         #    Occupation            Energy/Eh            Energy/eV
      -------------------------------------------------------------
         1        2.0000           -0.7618302             -20.7305
       ...           ...                  ...                  ...
        87        2.0000           -0.4008112             -10.9066
        88        2.0000           -0.3951262             -10.7519
        89        2.0000           -0.3908178             -10.6347
        90        1.9621           -0.3829595             -10.4209
        91        1.7818           -0.3810996             -10.3702
        92        1.2562           -0.3788747             -10.3097
        93        1.0000           -0.2697080              -7.3391 (HOMO)
        94        0.0000           -0.2431761              -6.6172 (LUMO)
        95                         -0.2311052              -6.2887
        96                         -0.2073543              -5.6424
        97                         -0.1802088              -4.9037
        98                         -0.1239592              -3.3731
       ...                                ...                  ...
       173                          1.2484171              33.9712
      -------------------------------------------------------------
                  HL-Gap            0.0265319 Eh            0.7220 eV
             Fermi-level           -0.3181647 Eh           -8.6577 eV

 transition dipole moment (au) for excitation:          92          93
     X       Y       Z   
   0.1662   0.0837  -0.0451  total (au/Debye):    0.191   0.487
 dE (eV)             :    2.971
 oscillator strength :  0.37740E-02

 SCC (total)                   0 d,  0 h,  0 min,  0.271 sec
 SCC setup                      ...        0 min,  0.001 sec (  0.271%)
 Dispersion                     ...        0 min,  0.001 sec (  0.390%)
 classical contributions        ...        0 min,  0.000 sec (  0.126%)
 integral evaluation            ...        0 min,  0.015 sec (  5.610%)
 iterations                     ...        0 min,  0.146 sec ( 53.958%)
 molecular gradient             ...        0 min,  0.094 sec ( 34.719%)
 printout                       ...        0 min,  0.013 sec (  4.921%)

         :::::::::::::::::::::::::::::::::::::::::::::::::::::
         ::                     SUMMARY                     ::
         :::::::::::::::::::::::::::::::::::::::::::::::::::::
         :: total energy            -102.580694632180 Eh    ::
         :: gradient norm              0.131329631953 Eh/a0 ::
         :: HOMO-LUMO gap              0.721968414074 eV    ::
         ::.................................................::
         :: SCC energy              -103.873888031348 Eh    ::
         :: -> isotropic ES            0.134557161544 Eh    ::
         :: -> anisotropic ES          0.001932815254 Eh    ::
         :: -> anisotropic XC          0.041121990087 Eh    ::
         :: -> dispersion             -0.075891472724 Eh    ::
         :: repulsion energy           1.293193399168 Eh    ::
         :: add. restraining           0.000000000000 Eh    ::
         :: total charge              -0.000000000003 e     ::
         :::::::::::::::::::::::::::::::::::::::::::::::::::::

           -------------------------------------------------
          |                Property Printout                |
           -------------------------------------------------

    * Orbital Energies and Occupations

         #    Occupation            Energy/Eh            Energy/eV
      -------------------------------------------------------------
         1        2.0000           -0.7618302             -20.7305
       ...           ...                  ...                  ...
        81        2.0000           -0.4311519             -11.7322
        82        2.0000           -0.4253055             -11.5732
        83        2.0000           -0.4142653             -11.2727
        84        2.0000           -0.4078160             -11.0972
        85        2.0000           -0.4070573             -11.0766
        86        2.0000           -0.4047921             -11.0150
        87        2.0000           -0.4008112             -10.9066
        88        2.0000           -0.3951262             -10.7519
        89        2.0000           -0.3908178             -10.6347
        90        1.9621           -0.3829595             -10.4209
        91        1.7818           -0.3810996             -10.3702
        92        1.2562           -0.3788747             -10.3097
        93        1.0000           -0.2697080              -7.3391 (HOMO)
        94        0.0000           -0.2431761              -6.6172 (LUMO)
        95                         -0.2311052              -6.2887
        96                         -0.2073543              -5.6424
        97                         -0.1802088              -4.9037
        98                         -0.1239592              -3.3731
        99                         -0.1126286              -3.0648
       100                         -0.0967405              -2.6324
       101                         -0.0691108              -1.8806
       102                         -0.0595314              -1.6199
       103                         -0.0443034              -1.2056
       104                         -0.0306439              -0.8339
       ...                                ...                  ...
       173                          1.2484171              33.9712
      -------------------------------------------------------------
                  HL-Gap            0.0265319 Eh            0.7220 eV
             Fermi-level           -0.3181647 Eh           -8.6577 eV

     #   Z          covCN         q      C6AA      α(0)
     1   6 C        3.752    -0.107    22.604     6.780
     2   6 C        3.801    -0.051    21.487     6.600
     3   6 C        3.805    -0.070    21.829     6.651
     4   6 C        3.128     0.107    25.453     8.260
     5   7 N        1.927    -0.266    27.745     7.810
     6   6 C        3.149     0.076    26.051     8.349
     7   6 C        3.755    -0.116    22.772     6.804
     8   6 C        3.063    -0.013    28.266     8.718
     9   7 N        2.950     0.054    20.302     6.692
    10   7 N        2.768    -0.114    23.490     7.198
    11   6 C        2.856     0.123    25.285     8.242
    12   6 C        2.981    -0.038    28.944     8.825
    13   6 C        2.857     0.126    25.241     8.235
    14   6 C        2.918    -0.068    29.689     8.935
    15   6 C        2.964    -0.052    29.291     8.877
    16   6 C        2.966    -0.098    30.473     9.055
    17  16 S        3.915     1.090   104.116    17.174
    18   8 O        0.860    -0.566    25.298     6.744
    19   7 N        2.737    -0.285    27.343     7.766
    20   6 C        3.876     0.005    20.442     6.429
    21   6 C        3.766     0.002    20.579     6.466
    22   7 N        2.732    -0.124    23.691     7.229
    23   6 C        3.766     0.002    20.590     6.467
    24   6 C        3.864     0.010    20.371     6.418
    25   6 C        3.748    -0.004    20.708     6.490
    26   6 C        3.750    -0.114    22.742     6.801
    27   8 O        0.860    -0.560    25.148     6.724
    28   6 C        2.960    -0.042    29.051     8.841
    29   8 O        1.704    -0.291    18.845     5.861
    30   6 C        3.685     0.083    19.380     6.302
    31   6 C        3.751    -0.113    22.733     6.800
    32   7 N        1.844    -0.237    27.038     7.706
    33   6 C        2.777     0.266    22.517     7.772
    34   8 O        0.859    -0.377    21.219     6.176
    35   1 H        0.925     0.044     2.401     2.423
    36   1 H        0.925     0.044     2.398     2.421
    37   1 H        0.925     0.040     2.452     2.449
    38   1 H        0.924     0.037     2.496     2.470
    39   1 H        0.924     0.032     2.564     2.504
    40   1 H        0.925     0.071     2.073     2.252
    41   1 H        0.924     0.040     2.456     2.451
    42   1 H        0.925     0.065     2.140     2.288
    43   1 H        0.925     0.067     2.123     2.279
    44   1 H        0.925     0.074     2.046     2.237
    45   1 H        0.860     0.209     1.063     1.615
    46   1 H        0.926     0.040     2.448     2.447
    47   1 H        0.926     0.050     2.325     2.385
    48   1 H        0.924     0.054     2.276     2.359
    49   1 H        0.924     0.056     2.249     2.345
    50   1 H        0.924     0.057     2.236     2.339
    51   1 H        0.923     0.042     2.425     2.435
    52   1 H        0.923     0.043     2.406     2.426
    53   1 H        0.924     0.054     2.274     2.358
    54   1 H        0.925     0.069     2.097     2.264
    55   1 H        0.923     0.042     2.420     2.433
    56   1 H        0.924     0.049     2.330     2.387
    57   1 H        0.924     0.050     2.315     2.379
    58   1 H        0.925     0.042     2.427     2.436
    59   1 H        0.925     0.048     2.342     2.393
    60   1 H        0.925     0.042     2.420     2.433
    61   1 H        0.926     0.070     2.082     2.256
    62   1 H        0.924     0.037     2.486     2.466
    63   1 H        0.924     0.037     2.484     2.465
    64   1 H        0.925     0.053     2.283     2.363
    65   1 H        0.925     0.052     2.292     2.367
    66   1 H        0.925     0.054     2.271     2.357

 Mol. C6AA /au·bohr⁶  :      48274.569478
 Mol. C8AA /au·bohr⁸  :    1143760.641844
 Mol. α(0) /au        :        335.679610


Wiberg/Mayer (AO) data.
largest (>0.10) Wiberg bond orders for each atom

 ---------------------------------------------------------------------------
     #   Z sym  total        # sym  WBO       # sym  WBO       # sym  WBO
 ---------------------------------------------------------------------------
     1   6 C    3.995 --     2 C    1.021    36 H    0.987    37 H    0.987
                            35 H    0.986
     2   6 C    3.993 --     1 C    1.021     3 C    0.985    38 H    0.978
                            39 H    0.977
     3   6 C    3.992 --     4 C    1.017     2 C    0.985    40 H    0.969
                            41 H    0.962
     4   6 C    3.929 --     5 N    1.428     9 N    1.241     3 C    1.017
     5   7 N    3.044 --     4 C    1.428     6 C    1.295
     6   6 C    3.926 --     8 C    1.407     5 N    1.295     7 C    1.038
     7   6 C    3.987 --     6 C    1.038    44 H    0.976    43 H    0.964
                            42 H    0.963
     8   6 C    3.844 --     6 C    1.407     9 N    1.125    33 C    0.993
     9   7 N    3.635 --     4 C    1.241     8 C    1.125    10 N    1.033
    10   7 N    3.361 --    11 C    1.117     9 N    1.033    45 H    0.899
    11   6 C    3.904 --    32 N    1.405    12 C    1.133    10 N    1.117
    12   6 C    3.946 --    28 C    1.308    13 C    1.235    11 C    1.133
    13   6 C    3.910 --    14 C    1.418    12 C    1.235    29 O    1.045
    14   6 C    3.973 --    13 C    1.418    15 C    1.388    46 H    0.964
    15   6 C    3.916 --    14 C    1.388    16 C    1.368    47 H    0.966
    16   6 C    3.954 --    28 C    1.459    15 C    1.368    17 S    0.750
    17  16 S    4.972 --    27 O    1.637    18 O    1.620    19 N    0.880
                            16 C    0.750
    18   8 O    1.926 --    17 S    1.620    27 O    0.110
    19   7 N    3.158 --    20 C    0.997    24 C    0.990    17 S    0.880
    20   6 C    3.966 --    19 N    0.997    21 C    0.991    49 H    0.968
                            48 H    0.962
    21   6 C    3.976 --    22 N    1.009    20 C    0.991    50 H    0.970
                            51 H    0.953
    22   7 N    3.115 --    21 C    1.009    23 C    1.008    25 C    1.004
    23   6 C    3.976 --    22 N    1.008    24 C    0.992    53 H    0.970
                            52 H    0.953
    24   6 C    3.965 --    23 C    0.992    19 N    0.990    54 H    0.968
                            55 H    0.964
    25   6 C    3.972 --    22 N    1.004    26 C    0.996    56 H    0.970
                            57 H    0.970
    26   6 C    3.976 --    25 C    0.996    58 H    0.986    60 H    0.986
                            59 H    0.984
    27   8 O    1.930 --    17 S    1.637    18 O    0.110
    28   6 C    3.971 --    16 C    1.459    12 C    1.308    61 H    0.957
    29   8 O    2.223 --    13 C    1.045    30 C    0.956
    30   6 C    3.943 --    31 C    1.016    62 H    0.969    63 H    0.968
                            29 O    0.956
    31   6 C    3.992 --    30 C    1.016    66 H    0.986    65 H    0.985
                            64 H    0.984
    32   7 N    3.053 --    11 C    1.405    33 C    1.164    34 O    0.203
    33   6 C    3.901 --    34 O    1.586    32 N    1.164     8 C    0.993
    34   8 O    2.013 --    33 C    1.586    32 N    0.203
    35   1 H    0.998 --     1 C    0.986
    36   1 H    0.998 --     1 C    0.987
    37   1 H    0.998 --     1 C    0.987
    38   1 H    0.998 --     2 C    0.978
    39   1 H    0.999 --     2 C    0.977
    40   1 H    0.994 --     3 C    0.969
    41   1 H    0.997 --     3 C    0.962
    42   1 H    0.991 --     7 C    0.963
    43   1 H    0.989 --     7 C    0.964
    44   1 H    0.993 --     7 C    0.976
    45   1 H    0.955 --    10 N    0.899
    46   1 H    0.997 --    14 C    0.964
    47   1 H    0.997 --    15 C    0.966
    48   1 H    0.991 --    20 C    0.962
    49   1 H    0.997 --    20 C    0.968
    50   1 H    0.996 --    21 C    0.970
    51   1 H    0.979 --    21 C    0.953
    52   1 H    0.980 --    23 C    0.953
    53   1 H    0.996 --    23 C    0.970
    54   1 H    0.995 --    24 C    0.968
    55   1 H    0.992 --    24 C    0.964
    56   1 H    0.995 --    25 C    0.970
    57   1 H    0.995 --    25 C    0.970
    58   1 H    0.998 --    26 C    0.986
    59   1 H    0.997 --    26 C    0.984
    60   1 H    0.998 --    26 C    0.986
    61   1 H    0.994 --    28 C    0.957
    62   1 H    0.998 --    30 C    0.969
    63   1 H    0.998 --    30 C    0.968
    64   1 H    0.997 --    31 C    0.984
    65   1 H    0.997 --    31 C    0.985
    66   1 H    0.997 --    31 C    0.986
 ---------------------------------------------------------------------------

Topologies differ in total number of bonds
Writing topology from bond orders to xtbtopo.mol

molecular dipole:
                 x           y           z       tot (Debye)
 q only:       -0.641      -2.470      -2.193
   full:       -0.216      -2.945      -2.482       9.806
molecular quadrupole (traceless):
                xx          xy          yy          xz          yz          zz
 q only:      -33.935       5.673       3.479     -23.614     -34.896      30.455
  q+dip:      -38.410       5.677       7.284     -20.498     -33.175      31.125
   full:      -39.564       5.991       5.430     -18.379     -33.368      34.134


           -------------------------------------------------
          | TOTAL ENERGY             -102.580694632180 Eh   |
          | GRADIENT NORM               0.131329631953 Eh/α |
          | HOMO-LUMO GAP               0.721968414074 eV   |
           -------------------------------------------------

------------------------------------------------------------------------
 * finished run on 2025/05/15 at 16:20:12.342     
------------------------------------------------------------------------
 total:
 * wall-time:     0 d,  0 h,  0 min,  0.293 sec
 *  cpu-time:     0 d,  0 h,  0 min,  0.216 sec
 * ratio c/w:     0.739 speedup
 SCF:
 * wall-time:     0 d,  0 h,  0 min,  0.272 sec
 *  cpu-time:     0 d,  0 h,  0 min,  0.197 sec
 * ratio c/w:     0.724 speedup


