----- Optimization -----
      -----------------------------------------------------------      
     |                   =====================                   |     
     |                           x T B                           |     
     |                   =====================                   |     
     |                         S. Grimme                         |     
     |          Mulliken Center for Theoretical Chemistry        |     
     |                    University of Bonn                     |     
      -----------------------------------------------------------      

   * xtb version 6.7.1 (edcfbbe) compiled by 'conda@3ef47c1a292c' on 2024-11-25

   xtb is free software: you can redistribute it and/or modify it under
   the terms of the GNU Lesser General Public License as published by
   the Free Software Foundation, either version 3 of the License, or
   (at your option) any later version.
   
   xtb is distributed in the hope that it will be useful,
   but WITHOUT ANY WARRANTY; without even the implied warranty of
   MERCHANTABILITY or FITNESS FOR A PARTICULAR PURPOSE.  See the
   GNU Lesser General Public License for more details.
   
   Cite this work as:
   * C. Bannwarth, E. Caldeweyher, S. Ehlert, A. Hansen, P. Pracht,
     J. Seibert, S. Spicher, S. Grimme, WIREs Comput. Mol. Sci., 2020, 11,
     e01493. DOI: 10.1002/wcms.1493
   
   for GFN2-xTB:
   * C. Bannwarth, S. Ehlert and S. Grimme., J. Chem. Theory Comput., 2019,
     15, 1652-1671. DOI: 10.1021/acs.jctc.8b01176
   for GFN1-xTB:
   * S. Grimme, C. Bannwarth, P. Shushkov, J. Chem. Theory Comput., 2017,
     13, 1989-2009. DOI: 10.1021/acs.jctc.7b00118
   for GFN0-xTB:
   * P. Pracht, E. Caldeweyher, S. Ehlert, S. Grimme, ChemRxiv, 2019, preprint.
     DOI: 10.26434/chemrxiv.8326202.v1
   for GFN-FF:
   * S. Spicher and S. Grimme, Angew. Chem. Int. Ed., 2020, 59, 15665-15673.
     DOI: 10.1002/anie.202004239
   
   for ALPB and GBSA implicit solvation:
   * S. Ehlert, M. Stahn, S. Spicher, S. Grimme, J. Chem. Theory Comput.,
     2021, 17, 4250-4261. DOI: 10.1021/acs.jctc.1c00471
   
   for ddCOSMO and CPCM-X implicit solvation:
   * M. Stahn, S. Ehlert, S. Grimme, J. Phys. Chem. A,
     2023, XX, XXXX-XXXX. DOI: 10.1021/acs.jpca.3c04382
   
   for DFT-D4:
   * E. Caldeweyher, C. Bannwarth and S. Grimme, J. Chem. Phys., 2017,
     147, 034112. DOI: 10.1063/1.4993215
   * E. Caldeweyher, S. Ehlert, A. Hansen, H. Neugebauer, S. Spicher,
     C. Bannwarth and S. Grimme, J. Chem. Phys., 2019, 150, 154122.
     DOI: 10.1063/1.5090222
   * E. Caldeweyher, J.-M. Mewes, S. Ehlert and S. Grimme, Phys. Chem. Chem. Phys.
     2020, 22, 8499-8512. DOI: 10.1039/D0CP00502A
   
   for sTDA-xTB:
   * S. Grimme and C. Bannwarth, J. Chem. Phys., 2016, 145, 054103.
     DOI: 10.1063/1.4959605
   
   in the mass-spec context:
   * V. Asgeirsson, C. Bauer and S. Grimme, Chem. Sci., 2017, 8, 4879.
     DOI: 10.1039/c7sc00601b
   * J. Koopman and S. Grimme, ACS Omega 2019, 4, 12, 15120-15133.
     DOI: 10.1021/acsomega.9b02011
   
   for metadynamics refer to:
   * S. Grimme, J. Chem. Theory Comput., 2019, 155, 2847-2862
     DOI: 10.1021/acs.jctc.9b00143
   
   for SPH calculations refer to:
   * S. Spicher and S. Grimme, J. Chem. Theory Comput., 2021, 17, 1701-1714
     DOI: 10.1021/acs.jctc.0c01306
   
   for ONIOM refer to:
   * C. Plett, A. Katbashev, S. Ehlert, S. Grimme, M. Bursch,
     Phys. Chem. Chem. Phys., 2023, 25, 17860-17868. DOI: 10.1039/D3CP02178E
   
   for DIPRO refer to:
   * J. Kohn, N. Gildemeister, S. Grimme, D. Fazzi, A. Hansen,
     J. Chem. Phys., 2023, just accepted.
   
   for PTB refer to:
   * S. Grimme, M. Mueller, A. Hansen, J. Chem. Phys., 2023, 158, 124111.
     DOI: 10.1063/5.0137838
   
   with help from (in alphabetical order)
   P. Atkinson, C. Bannwarth, F. Bohle, G. Brandenburg, E. Caldeweyher
   M. Checinski, S. Dohm, S. Ehlert, S. Ehrlich, I. Gerasimov, C. Hölzer
   A. Katbashev, J. Kohn, J. Koopman, C. Lavigne, S. Lehtola, F. März, M. Müller,
   F. Musil, H. Neugebauer, J. Pisarek, C. Plett, P. Pracht, F. Pultar,
   J. Seibert, P. Shushkov, S. Spicher, M. Stahn, M. Steiner, T. Strunk,
   J. Stückrath, T. Rose, and J. Unsleber
   
 * started run on 2025/05/15 at 16:33:04.886     
   ID    Z sym.   atoms
    1    6 C      1-3, 5-8, 10, 11, 13, 15, 16, 18-20, 22, 23
    2    8 O      4, 21, 24
    3    7 N      9, 14, 17
    4   16 S      12
    5    1 H      25-43

           -------------------------------------------------
          |                Calculation Setup                |
           -------------------------------------------------

          program call               : xtb /rds/general/user/hgt20/home/callum/QDESCP/Omeprazole_rdkit_conf_14/Omeprazole_rdkit_conf_14.xyz --opt normal --acc 1 --gfn 2 --chrg 0 --uhf 0 -P 1
          hostname                   : login-c
          coordinate file            : /rds/general/user/hgt20/home/callum/QDESCP/Omeprazole_rdkit_conf_14/Omeprazole_rdkit_conf_14.xyz
          omp threads                :                     1


           -------------------------------------------------
          |                 G F N 2 - x T B                 |
           -------------------------------------------------

        Reference                      10.1021/acs.jctc.8b01176
      * Hamiltonian:
        H0-scaling (s, p, d)           1.850000    2.230000    2.230000
        zeta-weighting                 0.500000
      * Dispersion:
        s8                             2.700000
        a1                             0.520000
        a2                             5.000000
        s9                             5.000000
      * Repulsion:
        kExp                           1.500000    1.000000
        rExp                           1.000000
      * Coulomb:
        alpha                          2.000000
        third order                    shell-resolved
        anisotropic                    true
        a3                             3.000000
        a5                             4.000000
        cn-shift                       1.200000
        cn-exp                         4.000000
        max-rad                        5.000000


          ...................................................
          :                      SETUP                      :
          :.................................................:
          :  # basis functions                 121          :
          :  # atomic orbitals                 120          :
          :  # shells                           68          :
          :  # electrons                       126          :
          :  max. iterations                   250          :
          :  Hamiltonian                  GFN2-xTB          :
          :  restarted?                      false          :
          :  GBSA solvation                  false          :
          :  PC potential                    false          :
          :  electronic temp.          300.0000000     K    :
          :  accuracy                    1.0000000          :
          :  -> integral cutoff          0.2500000E+02      :
          :  -> integral neglect         0.1000000E-07      :
          :  -> SCF convergence          0.1000000E-05 Eh   :
          :  -> wf. convergence          0.1000000E-03 e    :
          :  Broyden damping             0.4000000          :
          :  net charge                          0          :
          :  unpaired electrons                  0          :
          ...................................................

 iter      E             dE          RMSdq      gap      omega  full diag
   1    -71.0597476 -0.710597E+02  0.453E+00    3.04       0.0  T
   2    -71.1630015 -0.103254E+00  0.259E+00    3.16       1.0  T
   3    -71.1527624  0.102390E-01  0.127E+00    3.01       1.0  T
   4    -71.1725013 -0.197388E-01  0.530E-01    2.98       1.0  T
   5    -71.1809287 -0.842746E-02  0.168E-01    2.95       1.0  T
   6    -71.1811111 -0.182376E-03  0.826E-02    2.94       1.0  T
   7    -71.1811873 -0.761972E-04  0.350E-02    2.95       1.0  T
   8    -71.1812022 -0.149465E-04  0.199E-02    2.95       1.0  T
   9    -71.1812045 -0.230549E-05  0.843E-03    2.95       1.8  T
  10    -71.1812056 -0.101335E-05  0.334E-03    2.95       4.6  T
  11    -71.1812056 -0.560328E-07  0.168E-03    2.95       9.1  T
  12    -71.1812056 -0.216872E-07  0.663E-04    2.95      23.0  T
  13    -71.1812056 -0.625172E-08  0.248E-04    2.95      61.5  T

   *** convergence criteria satisfied after 13 iterations ***

         #    Occupation            Energy/Eh            Energy/eV
      -------------------------------------------------------------
         1        2.0000           -0.7577026             -20.6181
       ...           ...                  ...                  ...
        57        2.0000           -0.4091861             -11.1345
        58        2.0000           -0.4041142             -10.9965
        59        2.0000           -0.3999685             -10.8837
        60        2.0000           -0.3938467             -10.7171
        61        2.0000           -0.3843286             -10.4581
        62        2.0000           -0.3769559             -10.2575
        63        2.0000           -0.3728319             -10.1453 (HOMO)
        64                         -0.2643887              -7.1944 (LUMO)
        65                         -0.2513173              -6.8387
        66                         -0.2364193              -6.4333
        67                         -0.2109022              -5.7389
        68                         -0.2027813              -5.5180
       ...                                ...                  ...
       120                          0.8013739              21.8065
      -------------------------------------------------------------
                  HL-Gap            0.1084432 Eh            2.9509 eV
             Fermi-level           -0.3186103 Eh           -8.6698 eV

 SCC (total)                   0 d,  0 h,  0 min,  0.115 sec
 SCC setup                      ...        0 min,  0.000 sec (  0.344%)
 Dispersion                     ...        0 min,  0.001 sec (  0.436%)
 classical contributions        ...        0 min,  0.000 sec (  0.133%)
 integral evaluation            ...        0 min,  0.008 sec (  7.191%)
 iterations                     ...        0 min,  0.081 sec ( 70.315%)
 molecular gradient             ...        0 min,  0.025 sec ( 21.404%)
 printout                       ...        0 min,  0.000 sec (  0.170%)

         :::::::::::::::::::::::::::::::::::::::::::::::::::::
         ::                     SUMMARY                     ::
         :::::::::::::::::::::::::::::::::::::::::::::::::::::
         :: total energy             -70.298298216791 Eh    ::
         :: gradient norm              0.101691737669 Eh/a0 ::
         :: HOMO-LUMO gap              2.950890830081 eV    ::
         ::.................................................::
         :: SCC energy               -71.181440158678 Eh    ::
         :: -> isotropic ES            0.095413643092 Eh    ::
         :: -> anisotropic ES          0.008188052023 Eh    ::
         :: -> anisotropic XC          0.030978458747 Eh    ::
         :: -> dispersion             -0.046715326839 Eh    ::
         :: repulsion energy           0.883141941886 Eh    ::
         :: add. restraining           0.000000000000 Eh    ::
         :: total charge               0.000000000000 e     ::
         :::::::::::::::::::::::::::::::::::::::::::::::::::::

      ----------------------------------------------------------- 
     |                   =====================                   |
     |                        A N C O P T                        |
     |                   =====================                   |
     |               Approximate Normal Coordinate               |
     |                Rational Function Optimizer                |
      ----------------------------------------------------------- 
      ----------------------------------------------------------- 
     |                   =====================                   |
     |                        A N C O P T                        |
     |                   =====================                   |
     |               Approximate Normal Coordinate               |
     |                Rational Function Optimizer                |
      ----------------------------------------------------------- 

          ...................................................
          :                      SETUP                      :
          :.................................................:
          :   optimization level            normal          :
          :   max. optcycles                   200          :
          :   ANC micro-cycles                  20          :
          :   degrees of freedom               123          :
          :.................................................:
          :   RF solver                   davidson          :
          :   write xtbopt.log                true          :
          :   linear?                        false          :
          :   energy convergence         0.5000000E-05 Eh   :
          :   grad. convergence          0.1000000E-02 Eh/α :
          :   maxmium RF displ.          1.0000000          :
          :   Hlow (freq-cutoff)         0.1000000E-01      :
          :   Hmax (freq-cutoff)         5.0000000          :
          :   S6 in model hess.         20.0000000          :
          ...................................................

generating ANC from exact Hessian ...
Using Lindh-Hessian (1995)
 Shifting diagonal of input Hessian by    9.8521250074709195E-003
 Lowest  eigenvalues of input Hessian
    0.000000    0.000000    0.000000    0.000000    0.000000    0.000000
    0.010000    0.010125    0.010432    0.010672    0.011458    0.012009
    0.012267    0.013026    0.014757    0.014832    0.015670    0.016108
 Highest eigenvalues
    1.986214    2.033827    2.038556    2.106068    2.228187    2.270952


........................................................................
.............................. CYCLE    1 ..............................
........................................................................

 iter      E             dE          RMSdq      gap      omega  full diag
   1    -71.1812056 -0.711812E+02  0.973E-05    2.95       0.0  T
   2    -71.1812056 -0.546549E-10  0.559E-05    2.95     272.7  T
   3    -71.1812056 -0.181473E-10  0.384E-05    2.95     397.2  T
     SCC iter.                  ...        0 min,  0.008 sec
     gradient                   ...        0 min,  0.024 sec
 * total energy  :   -70.2982982 Eh     change       -0.6104699E-09 Eh
   gradient norm :     0.1016923 Eh/α   predicted     0.0000000E+00 (-100.00%)
   displ. norm   :     0.2756123 α      lambda       -0.1281971E-01
   maximum displ.:     0.0853726 α      in ANC's #48, #35, #30, ...

........................................................................
.............................. CYCLE    2 ..............................
........................................................................

 iter      E             dE          RMSdq      gap      omega  full diag
   1    -71.2154457 -0.712154E+02  0.201E-01    2.94       0.0  T
   2    -71.2155460 -0.100258E-03  0.125E-01    2.98       1.0  T
   3    -71.2154831  0.628580E-04  0.604E-02    2.95       1.0  T
   4    -71.2155976 -0.114473E-03  0.157E-02    2.96       1.0  T
   5    -71.2156007 -0.314875E-05  0.738E-03    2.96       2.1  T
   6    -71.2156009 -0.172822E-06  0.270E-03    2.96       5.6  T
   7    -71.2156010 -0.124779E-06  0.140E-03    2.96      10.9  T
   8    -71.2156010 -0.143763E-07  0.731E-04    2.96      20.9  T
   9    -71.2156010 -0.389061E-08  0.257E-04    2.96      59.3  T
     SCC iter.                  ...        0 min,  0.074 sec
     gradient                   ...        0 min,  0.024 sec
 * total energy  :   -70.3072352 Eh     change       -0.8936978E-02 Eh
   gradient norm :     0.0477960 Eh/α   predicted    -0.6902852E-02 ( -22.76%)
   displ. norm   :     0.2652974 α      lambda       -0.4139305E-02
   maximum displ.:     0.1073814 α      in ANC's #7, #11, #6, ...

........................................................................
.............................. CYCLE    3 ..............................
........................................................................

 iter      E             dE          RMSdq      gap      omega  full diag
   1    -71.2355126 -0.712355E+02  0.130E-01    2.96       0.0  T
   2    -71.2355991 -0.865017E-04  0.861E-02    2.98       1.0  T
   3    -71.2356095 -0.103513E-04  0.435E-02    2.96       1.0  T
   4    -71.2356189 -0.938957E-05  0.133E-02    2.97       1.1  T
   5    -71.2356244 -0.548220E-05  0.396E-03    2.96       3.9  T
   6    -71.2356244 -0.566849E-07  0.235E-03    2.96       6.5  T
   7    -71.2356245 -0.240587E-07  0.768E-04    2.96      19.9  T
   8    -71.2356245 -0.110224E-07  0.424E-04    2.96      36.0  T
     SCC iter.                  ...        0 min,  0.018 sec
     gradient                   ...        0 min,  0.024 sec
 * total energy  :   -70.3096375 Eh     change       -0.2402295E-02 Eh
   gradient norm :     0.0130555 Eh/α   predicted    -0.2215990E-02 (  -7.76%)
   displ. norm   :     0.1967908 α      lambda       -0.6295289E-03
   maximum displ.:     0.1058023 α      in ANC's #7, #6, #11, ...

........................................................................
.............................. CYCLE    4 ..............................
........................................................................

 iter      E             dE          RMSdq      gap      omega  full diag
   1    -71.2373510 -0.712374E+02  0.602E-02    2.97       0.0  T
   2    -71.2373634 -0.124163E-04  0.345E-02    2.97       1.0  T
   3    -71.2373639 -0.523522E-06  0.157E-02    2.97       1.0  T
   4    -71.2373645 -0.641211E-06  0.556E-03    2.96       2.7  T
   5    -71.2373651 -0.537020E-06  0.216E-03    2.96       7.0  T
   6    -71.2373651 -0.407642E-07  0.944E-04    2.96      16.2  T
   7    -71.2373651 -0.182657E-07  0.290E-04    2.96      52.6  T
     SCC iter.                  ...        0 min,  0.016 sec
     gradient                   ...        0 min,  0.025 sec
 * total energy  :   -70.3101200 Eh     change       -0.4825311E-03 Eh
   gradient norm :     0.0071121 Eh/α   predicted    -0.3269768E-03 ( -32.24%)
   displ. norm   :     0.3152550 α      lambda       -0.6113089E-03
   maximum displ.:     0.1884400 α      in ANC's #7, #6, #11, ...

........................................................................
.............................. CYCLE    5 ..............................
........................................................................

 iter      E             dE          RMSdq      gap      omega  full diag
   1    -71.2371182 -0.712371E+02  0.832E-02    2.98       0.0  T
   2    -71.2371295 -0.112910E-04  0.455E-02    2.97       1.0  T
   3    -71.2371282  0.128038E-05  0.163E-02    2.97       1.0  T
   4    -71.2371306 -0.237236E-05  0.738E-03    2.97       2.1  T
   5    -71.2371316 -0.103348E-05  0.268E-03    2.97       5.7  T
   6    -71.2371317 -0.636011E-07  0.913E-04    2.97      16.7  T
   7    -71.2371317 -0.163033E-07  0.372E-04    2.97      41.0  T
     SCC iter.                  ...        0 min,  0.016 sec
     gradient                   ...        0 min,  0.024 sec
 * total energy  :   -70.3105260 Eh     change       -0.4059351E-03 Eh
   gradient norm :     0.0075102 Eh/α   predicted    -0.3360332E-03 ( -17.22%)
   displ. norm   :     0.2131377 α      lambda       -0.2239210E-03
   maximum displ.:     0.1381563 α      in ANC's #7, #6, #11, ...

........................................................................
.............................. CYCLE    6 ..............................
........................................................................

 iter      E             dE          RMSdq      gap      omega  full diag
   1    -71.2370661 -0.712371E+02  0.462E-02    2.98       0.0  T
   2    -71.2370673 -0.115383E-05  0.251E-02    2.97       1.0  T
   3    -71.2370666  0.658381E-06  0.648E-03    2.97       2.4  T
   4    -71.2370675 -0.903629E-06  0.343E-03    2.97       4.4  T
   5    -71.2370677 -0.164140E-06  0.837E-04    2.97      18.2  T
   6    -71.2370677 -0.140402E-07  0.316E-04    2.97      48.3  T
     SCC iter.                  ...        0 min,  0.059 sec
     gradient                   ...        0 min,  0.024 sec
 * total energy  :   -70.3106929 Eh     change       -0.1669580E-03 Eh
   gradient norm :     0.0072727 Eh/α   predicted    -0.1170469E-03 ( -29.89%)
   displ. norm   :     0.1903595 α      lambda       -0.1723853E-03
   maximum displ.:     0.1246606 α      in ANC's #7, #6, #8, ...

........................................................................
.............................. CYCLE    7 ..............................
........................................................................

 iter      E             dE          RMSdq      gap      omega  full diag
   1    -71.2374939 -0.712375E+02  0.387E-02    2.98       0.0  T
   2    -71.2374968 -0.293515E-05  0.217E-02    2.98       1.0  T
   3    -71.2374966  0.206697E-06  0.843E-03    2.98       1.8  T
   4    -71.2374971 -0.466733E-06  0.324E-03    2.98       4.7  T
   5    -71.2374973 -0.192638E-06  0.123E-03    2.98      12.4  T
   6    -71.2374973 -0.194539E-07  0.501E-04    2.98      30.5  T
   7    -71.2374973 -0.300010E-08  0.159E-04    2.98      96.1  T
     SCC iter.                  ...        0 min,  0.067 sec
     gradient                   ...        0 min,  0.025 sec
 * total energy  :   -70.3108175 Eh     change       -0.1245992E-03 Eh
   gradient norm :     0.0046517 Eh/α   predicted    -0.8931645E-04 ( -28.32%)
   displ. norm   :     0.1474669 α      lambda       -0.9744662E-04
   maximum displ.:     0.0959427 α      in ANC's #7, #8, #11, ...

........................................................................
.............................. CYCLE    8 ..............................
........................................................................

 iter      E             dE          RMSdq      gap      omega  full diag
   1    -71.2380722 -0.712381E+02  0.306E-02    2.99       0.0  T
   2    -71.2380751 -0.283679E-05  0.178E-02    2.99       1.0  T
   3    -71.2380751  0.387777E-08  0.810E-03    2.99       1.9  T
   4    -71.2380753 -0.195307E-06  0.283E-03    2.99       5.4  T
   5    -71.2380754 -0.195395E-06  0.958E-04    2.99      15.9  T
   6    -71.2380755 -0.108297E-07  0.479E-04    2.99      31.8  T
     SCC iter.                  ...        0 min,  0.059 sec
     gradient                   ...        0 min,  0.025 sec
 * total energy  :   -70.3108833 Eh     change       -0.6579422E-04 Eh
   gradient norm :     0.0029203 Eh/α   predicted    -0.4978351E-04 ( -24.33%)
   displ. norm   :     0.0886543 α      lambda       -0.4330553E-04
   maximum displ.:     0.0524510 α      in ANC's #7, #10, #8, ...

........................................................................
.............................. CYCLE    9 ..............................
........................................................................

 iter      E             dE          RMSdq      gap      omega  full diag
   1    -71.2384727 -0.712385E+02  0.200E-02    2.99       0.0  T
   2    -71.2384734 -0.762054E-06  0.118E-02    2.99       1.3  T
   3    -71.2384733  0.820600E-07  0.447E-03    2.99       3.4  T
   4    -71.2384735 -0.140138E-06  0.139E-03    2.99      11.0  T
   5    -71.2384735 -0.516440E-07  0.540E-04    2.99      28.2  T
   6    -71.2384735 -0.308877E-08  0.285E-04    2.99      53.5  T
     SCC iter.                  ...        0 min,  0.071 sec
     gradient                   ...        0 min,  0.025 sec
 * total energy  :   -70.3109142 Eh     change       -0.3094131E-04 Eh
   gradient norm :     0.0023564 Eh/α   predicted    -0.2182583E-04 ( -29.46%)
   displ. norm   :     0.0796964 α      lambda       -0.3229433E-04
   maximum displ.:     0.0403422 α      in ANC's #10, #7, #16, ...

........................................................................
.............................. CYCLE   10 ..............................
........................................................................

 iter      E             dE          RMSdq      gap      omega  full diag
   1    -71.2386004 -0.712386E+02  0.189E-02    3.00       0.0  T
   2    -71.2386006 -0.155916E-06  0.111E-02    3.00       1.4  T
   3    -71.2386005  0.426343E-07  0.192E-03    3.00       8.0  T
   4    -71.2386006 -0.722956E-07  0.636E-04    3.00      24.0  T
   5    -71.2386006 -0.348743E-08  0.359E-04    3.00      42.4  T
     SCC iter.                  ...        0 min,  0.063 sec
     gradient                   ...        0 min,  0.024 sec
 * total energy  :   -70.3109370 Eh     change       -0.2275471E-04 Eh
   gradient norm :     0.0020106 Eh/α   predicted    -0.1625024E-04 ( -28.59%)
   displ. norm   :     0.0732456 α      lambda       -0.2251881E-04
   maximum displ.:     0.0336719 α      in ANC's #10, #16, #6, ...

........................................................................
.............................. CYCLE   11 ..............................
........................................................................

 iter      E             dE          RMSdq      gap      omega  full diag
   1    -71.2384676 -0.712385E+02  0.172E-02    3.00       0.0  T
   2    -71.2384677 -0.807581E-07  0.997E-03    3.00       1.5  T
   3    -71.2384676  0.723265E-07  0.196E-03    3.00       7.8  T
   4    -71.2384677 -0.877013E-07  0.822E-04    3.00      18.6  T
   5    -71.2384677 -0.131657E-07  0.261E-04    3.00      58.4  T
     SCC iter.                  ...        0 min,  0.063 sec
     gradient                   ...        0 min,  0.025 sec
 * total energy  :   -70.3109535 Eh     change       -0.1651728E-04 Eh
   gradient norm :     0.0017910 Eh/α   predicted    -0.1132329E-04 ( -31.45%)
   displ. norm   :     0.1194694 α      lambda       -0.2005096E-04
   maximum displ.:     0.0567184 α      in ANC's #6, #16, #10, ...

........................................................................
.............................. CYCLE   12 ..............................
........................................................................

 iter      E             dE          RMSdq      gap      omega  full diag
   1    -71.2380353 -0.712380E+02  0.279E-02    3.01       0.0  T
   2    -71.2380358 -0.472207E-06  0.157E-02    3.01       1.0  T
   3    -71.2380355  0.244214E-06  0.457E-03    3.01       3.3  T
   4    -71.2380358 -0.284765E-06  0.202E-03    3.01       7.5  T
   5    -71.2380359 -0.805964E-07  0.667E-04    3.01      22.9  T
   6    -71.2380359 -0.651627E-08  0.203E-04    3.01      75.1  T
     SCC iter.                  ...        0 min,  0.065 sec
     gradient                   ...        0 min,  0.025 sec
 * total energy  :   -70.3109726 Eh     change       -0.1905343E-04 Eh
   gradient norm :     0.0020471 Eh/α   predicted    -0.1009152E-04 ( -47.04%)
   displ. norm   :     0.0472641 α      lambda       -0.1375853E-04
   maximum displ.:     0.0280927 α      in ANC's #6, #16, #11, ...

........................................................................
.............................. CYCLE   13 ..............................
........................................................................

 iter      E             dE          RMSdq      gap      omega  full diag
   1    -71.2381712 -0.712382E+02  0.110E-02    3.01       0.0  T
   2    -71.2381713 -0.939370E-07  0.605E-03    3.01       2.5  T
   3    -71.2381713  0.278851E-07  0.182E-03    3.01       8.4  T
   4    -71.2381713 -0.410586E-07  0.870E-04    3.00      17.5  T
   5    -71.2381713 -0.105397E-07  0.306E-04    3.01      49.8  T
     SCC iter.                  ...        0 min,  0.011 sec
     gradient                   ...        0 min,  0.076 sec
 * total energy  :   -70.3109841 Eh     change       -0.1156304E-04 Eh
   gradient norm :     0.0016148 Eh/α   predicted    -0.6895928E-05 ( -40.36%)
   displ. norm   :     0.2085264 α      lambda       -0.2929177E-04
   maximum displ.:     0.0998158 α      in ANC's #6, #16, #11, ...

........................................................................
.............................. CYCLE   14 ..............................
........................................................................

 iter      E             dE          RMSdq      gap      omega  full diag
   1    -71.2373576 -0.712374E+02  0.457E-02    3.00       0.0  T
   2    -71.2373584 -0.781307E-06  0.253E-02    3.00       1.0  T
   3    -71.2373582  0.227912E-06  0.569E-03    3.00       2.7  T
   4    -71.2373585 -0.316915E-06  0.317E-03    3.00       4.8  T
   5    -71.2373587 -0.173831E-06  0.733E-04    3.00      20.8  T
   6    -71.2373587 -0.136370E-07  0.291E-04    3.00      52.5  T
     SCC iter.                  ...        0 min,  0.014 sec
     gradient                   ...        0 min,  0.070 sec
 * total energy  :   -70.3109988 Eh     change       -0.1463005E-04 Eh
   gradient norm :     0.0026849 Eh/α   predicted    -0.1493469E-04 (   2.08%)
   displ. norm   :     0.0358199 α      lambda       -0.1512534E-04
   maximum displ.:     0.0160726 α      in ANC's #10, #7, #11, ...

........................................................................
.............................. CYCLE   15 ..............................
........................................................................

 iter      E             dE          RMSdq      gap      omega  full diag
   1    -71.2382976 -0.712383E+02  0.108E-02    3.00       0.0  T
   2    -71.2382977 -0.156393E-06  0.582E-03    3.00       2.6  T
   3    -71.2382977  0.213031E-07  0.163E-03    3.00       9.4  T
   4    -71.2382977 -0.312879E-07  0.802E-04    3.00      19.0  T
   5    -71.2382977 -0.115083E-07  0.286E-04    3.00      53.4  T
     SCC iter.                  ...        0 min,  0.012 sec
     gradient                   ...        0 min,  0.070 sec
 * total energy  :   -70.3110069 Eh     change       -0.8127944E-05 Eh
   gradient norm :     0.0013819 Eh/α   predicted    -0.7573818E-05 (  -6.82%)
   displ. norm   :     0.0275726 α      lambda       -0.6374583E-05
   maximum displ.:     0.0106888 α      in ANC's #6, #7, #17, ...

........................................................................
.............................. CYCLE   16 ..............................
........................................................................

 iter      E             dE          RMSdq      gap      omega  full diag
   1    -71.2385290 -0.712385E+02  0.797E-03    3.00       0.0  T
   2    -71.2385291 -0.139044E-06  0.448E-03    3.00       3.4  T
   3    -71.2385291  0.256818E-07  0.196E-03    3.00       7.8  T
   4    -71.2385291 -0.544324E-07  0.857E-04    3.00      17.8  T
   5    -71.2385291 -0.120840E-07  0.323E-04    3.00      47.2  T
     SCC iter.                  ...        0 min,  0.012 sec
     gradient                   ...        0 min,  0.025 sec
 * total energy  :   -70.3110136 Eh     change       -0.6676021E-05 Eh
   gradient norm :     0.0004794 Eh/α   predicted    -0.3191503E-05 ( -52.19%)
   displ. norm   :     0.0655637 α      lambda       -0.5911440E-05
   maximum displ.:     0.0357797 α      in ANC's #16, #15, #11, ...

........................................................................
.............................. CYCLE   17 ..............................
........................................................................

 iter      E             dE          RMSdq      gap      omega  full diag
   1    -71.2384500 -0.712384E+02  0.126E-02    3.00       0.0  T
   2    -71.2384500 -0.739870E-07  0.757E-03    3.00       2.0  T
   3    -71.2384499  0.990241E-07  0.200E-03    3.00       7.6  T
   4    -71.2384501 -0.124221E-06  0.518E-04    3.00      29.4  T
   5    -71.2384501 -0.306194E-08  0.240E-04    3.00      63.6  T
     SCC iter.                  ...        0 min,  0.012 sec
     gradient                   ...        0 min,  0.025 sec
 * total energy  :   -70.3110198 Eh     change       -0.6185465E-05 Eh
   gradient norm :     0.0007257 Eh/α   predicted    -0.2961888E-05 ( -52.12%)
   displ. norm   :     0.0663967 α      lambda       -0.3903320E-05
   maximum displ.:     0.0369675 α      in ANC's #16, #15, #1, ...

........................................................................
.............................. CYCLE   18 ..............................
........................................................................

 iter      E             dE          RMSdq      gap      omega  full diag
   1    -71.2383964 -0.712384E+02  0.127E-02    3.00       0.0  T
   2    -71.2383964 -0.346310E-07  0.755E-03    3.01       2.0  T
   3    -71.2383964  0.190381E-07  0.101E-03    3.01      15.1  T
   4    -71.2383965 -0.325199E-07  0.385E-04    3.01      39.6  T
   5    -71.2383965 -0.102216E-08  0.137E-04    3.01     111.7  T
     SCC iter.                  ...        0 min,  0.013 sec
     gradient                   ...        0 min,  0.024 sec
 * total energy  :   -70.3110238 Eh     change       -0.4051334E-05 Eh
   gradient norm :     0.0008655 Eh/α   predicted    -0.1960201E-05 ( -51.62%)
   displ. norm   :     0.0551056 α      lambda       -0.3137671E-05
   maximum displ.:     0.0296018 α      in ANC's #16, #15, #1, ...

   *** GEOMETRY OPTIMIZATION CONVERGED AFTER 18 ITERATIONS ***

------------------------------------------------------------------------
 total energy gain   :        -0.0127256 Eh       -7.9854 kcal/mol
 total RMSD          :         0.2526906 a0        0.1337 Å
 total power (kW/mol):        -1.8561687 (step)  -19.4819 (real)
------------------------------------------------------------------------

 ANCopt (total)                0 d,  0 h,  0 min,  1.715 sec
 optimizer setup                ...        0 min,  0.000 sec (  0.004%)
 model hessian                  ...        0 min,  0.009 sec (  0.550%)
 ANC generation                 ...        0 min,  0.002 sec (  0.090%)
 coordinate transformation      ...        0 min,  0.000 sec (  0.008%)
 single point calculation       ...        0 min,  1.698 sec ( 98.995%)
 optimization log               ...        0 min,  0.004 sec (  0.230%)
 hessian update                 ...        0 min,  0.000 sec (  0.014%)
 rational function              ...        0 min,  0.001 sec (  0.074%)

================
 final structure:
================
43
 xtb: 6.7.1 (edcfbbe)
C           -6.29765352517106        1.91655085092078        0.43202069077550
C           -4.84148086050351        1.57845527042515        0.36850860176765
C           -4.38015816322409        0.27773874166695        0.58983630189512
O           -5.27710823126254       -0.73154726338013        0.89410297623322
C           -5.77281091985538       -1.41073467952956       -0.24097226727504
C           -3.01240991343961       -0.00112513846491        0.54324721905714
C           -2.50919081340823       -1.38458071768542        0.81757742835598
C           -3.88095600552908        2.54280461116678        0.09224186664285
N           -2.58888061523445        2.29513364664978        0.02280625457175
C           -2.15471034391479        1.06350379758509        0.24574316370800
C           -0.68301052746338        0.86905270987884        0.13348873975615
S           -0.30379892088623       -0.27310999910302       -1.29077061187495
C            1.44553014263847       -0.35037231507229       -0.87470661457744
N            1.96929295000906       -0.84402474006474        0.20855373714251
C            3.32642874462633       -0.70604090966476        0.04159670620974
C            3.58783756350077       -0.10209347458514       -1.21581071912570
N            2.35255551619400        0.10462972869676       -1.77646862349902
C            4.87924275116969        0.15409268784211       -1.63613453920352
C            5.91114969609845       -0.20229718960759       -0.78972445638484
C            5.66672541428766       -0.80186790530511        0.45517891106081
O            6.65108604075850       -1.17439798807795        1.32432850626713
C            7.99405779215099       -0.95512199286845        0.97041614666173
C            4.37005538224355       -1.05715472186381        0.88296282888826
O           -0.31110610833580        0.52514555132845       -2.52024288240303
H           -6.43577179127209        2.92052985102395        0.82704989438740
H           -6.73940965612800        1.88324956634222       -0.56510252263198
H           -6.82063136335094        1.20370439531415        1.06607842077070
H           -6.44529728460137       -2.17909901343698        0.13614715062020
H           -4.96381833102167       -1.87949919096392       -0.81107052798524
H           -6.32478118514435       -0.73491595769987       -0.90244792092447
H           -2.27098325187002       -1.90088417235186       -0.11158188356031
H           -1.60875543379932       -1.35936408071518        1.42675181836357
H           -3.27497877425019       -1.94998364206898        1.34399692743589
H           -4.16893706431850        3.57056798191014       -0.08624344139631
H           -0.19998221416343        1.82339201809453       -0.06473892332548
H           -0.25116727003183        0.37850650529531        1.00356788583047
H            2.10658701857287        0.52755239359732       -2.65776860441497
H            5.08142067753238        0.61435200377064       -2.59100868611947
H            6.92289106870954       -0.00910287040873       -1.10759305318701
H            8.58127959378023       -1.33067969010136        1.80698900098432
H            8.20731905152558        0.10985606730308        0.83093459816057
H            8.26861468305534       -1.50400075223526        0.06352313073230
H            4.19581448132600       -1.51721997355649        1.84023737160993

 Bond Distances (Angstroems)
 ---------------------------
C1-C2=1.4963         C1-H25=1.0877        C1-H26=1.0911        C1-H27=1.0880        C2-C1=1.4963         C2-C3=1.3977         
C2-C8=1.3888         C3-C2=1.3977         C3-O4=1.3841         C3-C6=1.3967         O4-C3=1.3841         O4-C5=1.4126         
C5-O4=1.4126         C5-H28=1.0885        C5-H29=1.0951        C5-H30=1.0950        C6-C3=1.3967         C6-C7=1.4975         
C6-C10=1.3991        C7-C6=1.4975         C7-H31=1.0893        C7-H32=1.0874        C7-H33=1.0878        C8-C2=1.3888         
C8-N9=1.3174         C8-H34=1.0822        N9-C8=1.3174         N9-C10=1.3248        C10-C6=1.3991        C10-N9=1.3248        
C10-C11=1.4887       C11-C10=1.4887       C11-S12=1.8646       C11-H35=1.0878       C11-H36=1.0882       S12-C11=1.8646       
S12-C13=1.7998       S12-O24=1.4659       C13-S12=1.7998       C13-N14=1.3006       C13-N17=1.3575       N14-C13=1.3006       
N14-C15=1.3743       C15-N14=1.3743       C15-C16=1.4192       C15-C23=1.3858       C16-C15=1.4192       C16-N17=1.3722       
C16-C18=1.3820       N17-C13=1.3575       N17-C16=1.3722       N17-H37=1.0080       C18-C16=1.3820       C18-C19=1.3814       
C18-H38=1.0791       C19-C18=1.3814       C19-C20=1.4032       C19-H39=1.0780       C20-C19=1.4032       C20-O21=1.3650       
C20-C23=1.3891       O21-C20=1.3650       O21-C22=1.4060       C22-O21=1.4060       C22-H40=1.0889       C22-H41=1.0950       
C22-H42=1.0950       C23-C15=1.3858       C23-C20=1.3891       C23-H43=1.0763       O24-S12=1.4659       H25-C1=1.0877        
H26-C1=1.0911        H27-C1=1.0880        H28-C5=1.0885        H29-C5=1.0951        H30-C5=1.0950        H31-C7=1.0893        
H32-C7=1.0874        H33-C7=1.0878        H34-C8=1.0822        H35-C11=1.0878       H36-C11=1.0882       H37-N17=1.0080       
H38-C18=1.0791       H39-C19=1.0780       H40-C22=1.0889       H41-C22=1.0950       H42-C22=1.0950       H43-C23=1.0763       
 C  H  Rav=1.0878 sigma=0.0056  Rmin=1.0763  Rmax=1.0951    18
 C  C  Rav=1.4173 sigma=0.0432  Rmin=1.3814  Rmax=1.4975    13
 N  H  Rav=1.0080 sigma=0.0000  Rmin=1.0080  Rmax=1.0080     1
 N  C  Rav=1.3411 sigma=0.0283  Rmin=1.3006  Rmax=1.3743     6
 O  C  Rav=1.3919 sigma=0.0188  Rmin=1.3650  Rmax=1.4126     4
 S  C  Rav=1.8322 sigma=0.0324  Rmin=1.7998  Rmax=1.8646     2
 S  O  Rav=1.4659 sigma=0.0000  Rmin=1.4659  Rmax=1.4659     1

 selected bond angles (degree)
 --------------------
H25-C1-C2=110.34               H26-C1-C2=110.39               H26-C1-H25=107.98              H27-C1-C2=110.15               
H27-C1-H25=109.39              H27-C1-H26=108.54              C3-C2-C1=121.65                C8-C2-C1=121.64                
C8-C2-C3=116.70                O4-C3-C2=119.97                C6-C3-C2=120.25                C6-C3-O4=119.76                
C5-O4-C3=113.66                H28-C5-O4=106.13               H29-C5-O4=111.40               H29-C5-H28=109.55              
H30-C5-O4=111.44               H30-C5-H28=109.48              H30-C5-H29=108.79              C7-C6-C3=120.49                
C10-C6-C3=117.10               C10-C6-C7=122.41               H31-C7-C6=110.80               H32-C7-C6=111.07               
H32-C7-H31=107.92              H33-C7-C6=109.41               H33-C7-H31=108.69              H33-C7-H32=108.90              
N9-C8-C2=123.93                H34-C8-C2=120.54               H34-C8-N9=115.52               C10-N9-C8=119.16               
N9-C10-C6=122.84               C11-C10-C6=121.51              C11-C10-N9=115.64              

 selected dihedral angles (degree)
 ---------------------------------
C3-C2-C1-H25=145.90           C3-C2-C1-H26=265.17           C3-C2-C1-H27= 25.02           C8-C2-C1-H25=326.18           
C8-C2-C1-H26= 85.45           C8-C2-C1-H27=205.30           O4-C3-C2-C1=359.12            O4-C3-C2-C8=178.86            
C6-C3-C2-C1=180.97            C6-C3-C2-C8=  0.71            C5-O4-C3-C2= 90.28            C5-O4-C3-C6=268.44            
H28-C5-O4-C3=179.09           H29-C5-O4-C3= 59.91           H30-C5-O4-C3=298.20           C7-C6-C3-C2=178.27            
C7-C6-C3-O4=  0.11            C10-C6-C3-C2=358.88           C10-C6-C3-O4=180.73           H31-C7-C6-C3=101.24           
H31-C7-C6-C10=280.59          H32-C7-C6-C3=221.18           H32-C7-C6-C10= 40.53          H33-C7-C6-C3=341.43           
H33-C7-C6-C10=160.78          N9-C8-C2-C1=180.14            N9-C8-C2-C3=  0.40            H34-C8-C2-C1=359.92           
H34-C8-C2-C3=180.18           C10-N9-C8-C2=358.95           C10-N9-C8-H34=179.17          N9-C10-C6-C3=  0.49           
N9-C10-C6-C7=181.12           C11-C10-C6-C3=181.73          C11-C10-C6-C7=  2.36          C6-C10-N9-C8=  0.58           
C11-C10-N9-C8=179.40          
           -------------------------------------------------
          |                Final Singlepoint                |
           -------------------------------------------------

          ...................................................
          :                      SETUP                      :
          :.................................................:
          :  # basis functions                 121          :
          :  # atomic orbitals                 120          :
          :  # shells                           68          :
          :  # electrons                       126          :
          :  max. iterations                   250          :
          :  Hamiltonian                  GFN2-xTB          :
          :  restarted?                      false          :
          :  GBSA solvation                  false          :
          :  PC potential                    false          :
          :  electronic temp.          300.0000000     K    :
          :  accuracy                    1.0000000          :
          :  -> integral cutoff          0.2500000E+02      :
          :  -> integral neglect         0.1000000E-07      :
          :  -> SCF convergence          0.1000000E-05 Eh   :
          :  -> wf. convergence          0.1000000E-03 e    :
          :  Broyden damping             0.4000000          :
          :  net charge                          0          :
          :  unpaired electrons                  0          :
          ...................................................

 iter      E             dE          RMSdq      gap      omega  full diag
   1    -71.2383965 -0.712384E+02  0.503E-05    3.01       0.0  T
   2    -71.2383965 -0.131166E-10  0.316E-05    3.01     482.6  T
   3    -71.2383965 -0.591172E-11  0.200E-05    3.01     761.6  T

   *** convergence criteria satisfied after 3 iterations ***

         #    Occupation            Energy/Eh            Energy/eV
      -------------------------------------------------------------
         1        2.0000           -0.7615841             -20.7238
       ...           ...                  ...                  ...
        57        2.0000           -0.4082805             -11.1099
        58        2.0000           -0.4054223             -11.0321
        59        2.0000           -0.3989489             -10.8560
        60        2.0000           -0.3923594             -10.6766
        61        2.0000           -0.3856409             -10.4938
        62        2.0000           -0.3758800             -10.2282
        63        2.0000           -0.3705961             -10.0844 (HOMO)
        64                         -0.2601509              -7.0791 (LUMO)
        65                         -0.2439815              -6.6391
        66                         -0.2350272              -6.3954
        67                         -0.2098399              -5.7100
        68                         -0.2045390              -5.5658
       ...                                ...                  ...
       120                          0.9074024              24.6917
      -------------------------------------------------------------
                  HL-Gap            0.1104452 Eh            3.0054 eV
             Fermi-level           -0.3153735 Eh           -8.5817 eV

 SCC (total)                   0 d,  0 h,  0 min,  0.085 sec
 SCC setup                      ...        0 min,  0.000 sec (  0.376%)
 Dispersion                     ...        0 min,  0.000 sec (  0.370%)
 classical contributions        ...        0 min,  0.000 sec (  0.172%)
 integral evaluation            ...        0 min,  0.008 sec (  9.348%)
 iterations                     ...        0 min,  0.051 sec ( 60.425%)
 molecular gradient             ...        0 min,  0.025 sec ( 29.118%)
 printout                       ...        0 min,  0.000 sec (  0.184%)

         :::::::::::::::::::::::::::::::::::::::::::::::::::::
         ::                     SUMMARY                     ::
         :::::::::::::::::::::::::::::::::::::::::::::::::::::
         :: total energy             -70.311023808764 Eh    ::
         :: gradient norm              0.000865569928 Eh/a0 ::
         :: HOMO-LUMO gap              3.005365892571 eV    ::
         ::.................................................::
         :: SCC energy               -71.238636410919 Eh    ::
         :: -> isotropic ES            0.092241596919 Eh    ::
         :: -> anisotropic ES          0.005877205539 Eh    ::
         :: -> anisotropic XC          0.029539506892 Eh    ::
         :: -> dispersion             -0.047366399764 Eh    ::
         :: repulsion energy           0.927612602156 Eh    ::
         :: add. restraining           0.000000000000 Eh    ::
         :: total charge              -0.000000000000 e     ::
         :::::::::::::::::::::::::::::::::::::::::::::::::::::

           -------------------------------------------------
          |                Property Printout                |
           -------------------------------------------------

    * Orbital Energies and Occupations

         #    Occupation            Energy/Eh            Energy/eV
      -------------------------------------------------------------
         1        2.0000           -0.7615841             -20.7238
       ...           ...                  ...                  ...
        51        2.0000           -0.4555737             -12.3968
        52        2.0000           -0.4498792             -12.2418
        53        2.0000           -0.4429822             -12.0542
        54        2.0000           -0.4364990             -11.8777
        55        2.0000           -0.4224675             -11.4959
        56        2.0000           -0.4165227             -11.3342
        57        2.0000           -0.4082805             -11.1099
        58        2.0000           -0.4054223             -11.0321
        59        2.0000           -0.3989489             -10.8560
        60        2.0000           -0.3923594             -10.6766
        61        2.0000           -0.3856409             -10.4938
        62        2.0000           -0.3758800             -10.2282
        63        2.0000           -0.3705961             -10.0844 (HOMO)
        64                         -0.2601509              -7.0791 (LUMO)
        65                         -0.2439815              -6.6391
        66                         -0.2350272              -6.3954
        67                         -0.2098399              -5.7100
        68                         -0.2045390              -5.5658
        69                         -0.1839198              -5.0047
        70                         -0.1687476              -4.5919
        71                         -0.1169296              -3.1818
        72                         -0.0849919              -2.3127
        73                         -0.0473497              -1.2884
        74                         -0.0016059              -0.0437
       ...                                ...                  ...
       120                          0.9074024              24.6917
      -------------------------------------------------------------
                  HL-Gap            0.1104452 Eh            3.0054 eV
             Fermi-level           -0.3153735 Eh           -8.5817 eV

     #   Z          covCN         q      C6AA      α(0)
     1   6 C        3.757    -0.104    22.549     6.770
     2   6 C        2.958    -0.015    28.376     8.737
     3   6 C        2.897     0.136    25.033     8.203
     4   8 O        1.703    -0.308    19.129     5.905
     5   6 C        3.657     0.045    20.100     6.435
     6   6 C        2.960    -0.023    28.573     8.768
     7   6 C        3.757    -0.116    22.776     6.804
     8   6 C        2.911     0.043    27.044     8.527
     9   7 N        1.843    -0.235    26.990     7.699
    10   6 C        2.997     0.080    26.195     8.396
    11   6 C        3.802    -0.088    22.168     6.703
    12  16 S        2.870     0.410   125.465    18.852
    13   6 C        3.207     0.107    25.071     8.154
    14   7 N        1.894    -0.291    28.387     7.899
    15   6 C        3.219     0.069    25.775     8.256
    16   6 C        3.100     0.034    27.117     8.534
    17   7 N        2.798    -0.110    23.402     7.185
    18   6 C        2.907    -0.052    29.296     8.875
    19   6 C        2.924    -0.069    29.709     8.938
    20   6 C        2.866     0.137    25.002     8.196
    21   8 O        1.706    -0.268    18.448     5.799
    22   6 C        3.642     0.037    20.297     6.477
    23   6 C        2.911    -0.068    29.688     8.935
    24   8 O        0.860    -0.487    23.507     6.500
    25   1 H        0.925     0.047     2.359     2.402
    26   1 H        0.924     0.049     2.337     2.390
    27   1 H        0.925     0.060     2.201     2.320
    28   1 H        0.925     0.058     2.220     2.330
    29   1 H        0.924     0.034     2.532     2.489
    30   1 H        0.924     0.033     2.538     2.491
    31   1 H        0.925     0.050     2.319     2.381
    32   1 H        0.925     0.054     2.276     2.359
    33   1 H        0.925     0.067     2.117     2.276
    34   1 H        0.925     0.046     2.372     2.409
    35   1 H        0.925     0.084     1.936     2.176
    36   1 H        0.925     0.074     2.038     2.232
    37   1 H        0.860     0.190     1.156     1.685
    38   1 H        0.926     0.038     2.475     2.460
    39   1 H        0.926     0.042     2.416     2.431
    40   1 H        0.925     0.063     2.161     2.299
    41   1 H        0.924     0.040     2.452     2.449
    42   1 H        0.924     0.040     2.452     2.449
    43   1 H        0.926     0.065     2.141     2.288

 Mol. C6AA /au·bohr⁶  :      23681.264981
 Mol. C8AA /au·bohr⁸  :     592274.591068
 Mol. α(0) /au        :        239.864314


Wiberg/Mayer (AO) data.
largest (>0.10) Wiberg bond orders for each atom

 ---------------------------------------------------------------------------
     #   Z sym  total        # sym  WBO       # sym  WBO       # sym  WBO
 ---------------------------------------------------------------------------
     1   6 C    3.994 --     2 C    1.028    27 H    0.980    25 H    0.979
                            26 H    0.965
     2   6 C    3.984 --     8 C    1.397     3 C    1.364     1 C    1.028
     3   6 C    3.945 --     6 C    1.381     2 C    1.364     4 O    1.001
     4   8 O    2.104 --     3 C    1.001     5 C    0.970
     5   6 C    3.947 --    28 H    0.980    29 H    0.979    30 H    0.979
                             4 O    0.970
     6   6 C    3.987 --     3 C    1.381    10 C    1.355     7 C    1.029
                             8 C    0.103
     7   6 C    3.993 --     6 C    1.029    33 H    0.978    32 H    0.972
                            31 H    0.963
     8   6 C    3.982 --     9 N    1.440     2 C    1.397    34 H    0.961
                             6 C    0.103
     9   7 N    3.063 --     8 C    1.440    10 C    1.405
    10   6 C    3.982 --     9 N    1.405     6 C    1.355    11 C    1.027
    11   6 C    3.978 --    10 C    1.027    35 H    0.966    36 H    0.955
                            12 S    0.881
    12  16 S    3.779 --    24 O    1.818    13 C    0.930    11 C    0.881
    13   6 C    3.948 --    14 N    1.547    17 N    1.232    12 S    0.930
    14   7 N    3.012 --    13 C    1.547    15 C    1.199    17 N    0.127
    15   6 C    3.977 --    23 C    1.353    16 C    1.236    14 N    1.199
    16   6 C    3.951 --    18 C    1.356    15 C    1.236    17 N    1.148
    17   7 N    3.562 --    13 C    1.232    16 C    1.148    37 H    0.931
                            14 N    0.127
    18   6 C    3.988 --    19 C    1.475    16 C    1.356    38 H    0.968
                            23 C    0.115
    19   6 C    3.981 --    18 C    1.475    20 C    1.327    39 H    0.966
    20   6 C    3.935 --    23 C    1.403    19 C    1.327    21 O    1.058
    21   8 O    2.224 --    20 C    1.058    22 C    0.987
    22   6 C    3.947 --    21 O    0.987    40 H    0.979    42 H    0.976
                            41 H    0.976
    23   6 C    3.982 --    20 C    1.403    15 C    1.353    43 H    0.964
                            18 C    0.115
    24   8 O    1.994 --    12 S    1.818
    25   1 H    0.997 --     1 C    0.979
    26   1 H    0.997 --     1 C    0.965
    27   1 H    0.996 --     1 C    0.980
    28   1 H    0.996 --     5 C    0.980
    29   1 H    0.999 --     5 C    0.979
    30   1 H    0.999 --     5 C    0.979
    31   1 H    0.997 --     7 C    0.963
    32   1 H    0.997 --     7 C    0.972
    33   1 H    0.995 --     7 C    0.978
    34   1 H    0.997 --     8 C    0.961
    35   1 H    0.992 --    11 C    0.966
    36   1 H    0.994 --    11 C    0.955
    37   1 H    0.963 --    17 N    0.931
    38   1 H    0.999 --    18 C    0.968
    39   1 H    0.998 --    19 C    0.966
    40   1 H    0.996 --    22 C    0.979
    41   1 H    0.998 --    22 C    0.976
    42   1 H    0.998 --    22 C    0.976
    43   1 H    0.995 --    23 C    0.964
 ---------------------------------------------------------------------------

Topologies differ in total number of bonds
Writing topology from bond orders to xtbtopo.mol

molecular dipole:
                 x           y           z       tot (Debye)
 q only:        0.266      -0.460       0.071
   full:        0.406      -0.209      -0.421       1.579
molecular quadrupole (traceless):
                xx          xy          yy          xz          yz          zz
 q only:       28.030       4.212      -9.539      -2.326       4.539     -18.491
  q+dip:       34.973       6.128     -14.323      -6.781       2.441     -20.650
   full:       33.995       5.778     -14.350      -6.192       5.354     -19.646

           -------------------------------------------------
          |                Geometry Summary                 |
           -------------------------------------------------

      molecular mass/u    :      345.4164963
   center of mass at/Å    :        0.2002534       0.0196373      -0.1638757
  moments of inertia/u·Å² :        0.7219515E+03   0.6544659E+04   0.6701537E+04
rotational constants/cm⁻¹ :        0.2335009E-01   0.2575785E-02   0.2515488E-02

 * 42 selected distances

     #   Z          #   Z                                           value/Å
     2   6 C        3   6 C                                       1.3977369
     3   6 C        4   8 O                                       1.3841085
     4   8 O        5   6 C                                       1.4125908
     3   6 C        6   6 C                                       1.3966643
     2   6 C        8   6 C                                       1.3888489
     8   6 C        9   7 N                                       1.3174298
     6   6 C       10   6 C                                       1.3991399
     9   7 N       10   6 C                                       1.3248083
    10   6 C       11   6 C                                       1.4887287
    12  16 S       13   6 C                                       1.7997865 (max)
    13   6 C       14   7 N                                       1.3005666
    14   7 N       15   6 C                                       1.3743115
    15   6 C       16   6 C                                       1.4192114
    13   6 C       17   7 N                                       1.3575334
    16   6 C       17   7 N                                       1.3722222
    16   6 C       18   6 C                                       1.3820388
    18   6 C       19   6 C                                       1.3813964
    19   6 C       20   6 C                                       1.4032152
    20   6 C       21   8 O                                       1.3649783
    21   8 O       22   6 C                                       1.4060261
    15   6 C       23   6 C                                       1.3857614
    20   6 C       23   6 C                                       1.3890731
    12  16 S       24   8 O                                       1.4659017
     1   6 C       25   1 H                                       1.0877034
     1   6 C       26   1 H                                       1.0911060
     1   6 C       27   1 H                                       1.0879730
     5   6 C       28   1 H                                       1.0885040
     5   6 C       29   1 H                                       1.0950897
     5   6 C       30   1 H                                       1.0949668
     7   6 C       31   1 H                                       1.0893344
     7   6 C       32   1 H                                       1.0874343
     7   6 C       33   1 H                                       1.0877635
     8   6 C       34   1 H                                       1.0821681
    11   6 C       35   1 H                                       1.0878301
    11   6 C       36   1 H                                       1.0881921
    17   7 N       37   1 H                                       1.0079950 (min)
    18   6 C       38   1 H                                       1.0791197
    19   6 C       39   1 H                                       1.0779542
    22   6 C       40   1 H                                       1.0889111
    22   6 C       41   1 H                                       1.0950406
    22   6 C       42   1 H                                       1.0950363
    23   6 C       43   1 H                                       1.0762875

 * 7 distinct bonds (by element types)

   Z      Z             #   av. dist./Å        max./Å        min./Å
   1 H    6 C          18     1.0878008     1.0950897     1.0762875
   6 C    6 C          11     1.4028923     1.4887287     1.3813964
   1 H    7 N           1     1.0079950     1.0079950     1.0079950
   6 C    7 N           6     1.3411453     1.3743115     1.3005666
   6 C    8 O           4     1.3919259     1.4125908     1.3649783
   6 C   16 S           1     1.7997865     1.7997865     1.7997865
   8 O   16 S           1     1.4659017     1.4659017     1.4659017


optimized geometry written to: xtbopt.xyz


           -------------------------------------------------
          | TOTAL ENERGY              -70.311023808764 Eh   |
          | GRADIENT NORM               0.000865569928 Eh/α |
          | HOMO-LUMO GAP               3.005365892571 eV   |
           -------------------------------------------------

------------------------------------------------------------------------
 * finished run on 2025/05/15 at 16:33:06.816     
------------------------------------------------------------------------
 total:
 * wall-time:     0 d,  0 h,  0 min,  1.930 sec
 *  cpu-time:     0 d,  0 h,  0 min,  0.975 sec
 * ratio c/w:     0.505 speedup
 SCF:
 * wall-time:     0 d,  0 h,  0 min,  0.115 sec
 *  cpu-time:     0 d,  0 h,  0 min,  0.066 sec
 * ratio c/w:     0.570 speedup
 ANC optimizer:
 * wall-time:     0 d,  0 h,  0 min,  1.801 sec
 *  cpu-time:     0 d,  0 h,  0 min,  0.897 sec
 * ratio c/w:     0.498 speedup



----- Single-point -----
      -----------------------------------------------------------      
     |                   =====================                   |     
     |                           x T B                           |     
     |                   =====================                   |     
     |                         S. Grimme                         |     
     |          Mulliken Center for Theoretical Chemistry        |     
     |                    University of Bonn                     |     
      -----------------------------------------------------------      

   * xtb version 6.7.1 (edcfbbe) compiled by 'conda@3ef47c1a292c' on 2024-11-25

   xtb is free software: you can redistribute it and/or modify it under
   the terms of the GNU Lesser General Public License as published by
   the Free Software Foundation, either version 3 of the License, or
   (at your option) any later version.
   
   xtb is distributed in the hope that it will be useful,
   but WITHOUT ANY WARRANTY; without even the implied warranty of
   MERCHANTABILITY or FITNESS FOR A PARTICULAR PURPOSE.  See the
   GNU Lesser General Public License for more details.
   
   Cite this work as:
   * C. Bannwarth, E. Caldeweyher, S. Ehlert, A. Hansen, P. Pracht,
     J. Seibert, S. Spicher, S. Grimme, WIREs Comput. Mol. Sci., 2020, 11,
     e01493. DOI: 10.1002/wcms.1493
   
   for GFN2-xTB:
   * C. Bannwarth, S. Ehlert and S. Grimme., J. Chem. Theory Comput., 2019,
     15, 1652-1671. DOI: 10.1021/acs.jctc.8b01176
   for GFN1-xTB:
   * S. Grimme, C. Bannwarth, P. Shushkov, J. Chem. Theory Comput., 2017,
     13, 1989-2009. DOI: 10.1021/acs.jctc.7b00118
   for GFN0-xTB:
   * P. Pracht, E. Caldeweyher, S. Ehlert, S. Grimme, ChemRxiv, 2019, preprint.
     DOI: 10.26434/chemrxiv.8326202.v1
   for GFN-FF:
   * S. Spicher and S. Grimme, Angew. Chem. Int. Ed., 2020, 59, 15665-15673.
     DOI: 10.1002/anie.202004239
   
   for ALPB and GBSA implicit solvation:
   * S. Ehlert, M. Stahn, S. Spicher, S. Grimme, J. Chem. Theory Comput.,
     2021, 17, 4250-4261. DOI: 10.1021/acs.jctc.1c00471
   
   for ddCOSMO and CPCM-X implicit solvation:
   * M. Stahn, S. Ehlert, S. Grimme, J. Phys. Chem. A,
     2023, XX, XXXX-XXXX. DOI: 10.1021/acs.jpca.3c04382
   
   for DFT-D4:
   * E. Caldeweyher, C. Bannwarth and S. Grimme, J. Chem. Phys., 2017,
     147, 034112. DOI: 10.1063/1.4993215
   * E. Caldeweyher, S. Ehlert, A. Hansen, H. Neugebauer, S. Spicher,
     C. Bannwarth and S. Grimme, J. Chem. Phys., 2019, 150, 154122.
     DOI: 10.1063/1.5090222
   * E. Caldeweyher, J.-M. Mewes, S. Ehlert and S. Grimme, Phys. Chem. Chem. Phys.
     2020, 22, 8499-8512. DOI: 10.1039/D0CP00502A
   
   for sTDA-xTB:
   * S. Grimme and C. Bannwarth, J. Chem. Phys., 2016, 145, 054103.
     DOI: 10.1063/1.4959605
   
   in the mass-spec context:
   * V. Asgeirsson, C. Bauer and S. Grimme, Chem. Sci., 2017, 8, 4879.
     DOI: 10.1039/c7sc00601b
   * J. Koopman and S. Grimme, ACS Omega 2019, 4, 12, 15120-15133.
     DOI: 10.1021/acsomega.9b02011
   
   for metadynamics refer to:
   * S. Grimme, J. Chem. Theory Comput., 2019, 155, 2847-2862
     DOI: 10.1021/acs.jctc.9b00143
   
   for SPH calculations refer to:
   * S. Spicher and S. Grimme, J. Chem. Theory Comput., 2021, 17, 1701-1714
     DOI: 10.1021/acs.jctc.0c01306
   
   for ONIOM refer to:
   * C. Plett, A. Katbashev, S. Ehlert, S. Grimme, M. Bursch,
     Phys. Chem. Chem. Phys., 2023, 25, 17860-17868. DOI: 10.1039/D3CP02178E
   
   for DIPRO refer to:
   * J. Kohn, N. Gildemeister, S. Grimme, D. Fazzi, A. Hansen,
     J. Chem. Phys., 2023, just accepted.
   
   for PTB refer to:
   * S. Grimme, M. Mueller, A. Hansen, J. Chem. Phys., 2023, 158, 124111.
     DOI: 10.1063/5.0137838
   
   with help from (in alphabetical order)
   P. Atkinson, C. Bannwarth, F. Bohle, G. Brandenburg, E. Caldeweyher
   M. Checinski, S. Dohm, S. Ehlert, S. Ehrlich, I. Gerasimov, C. Hölzer
   A. Katbashev, J. Kohn, J. Koopman, C. Lavigne, S. Lehtola, F. März, M. Müller,
   F. Musil, H. Neugebauer, J. Pisarek, C. Plett, P. Pracht, F. Pultar,
   J. Seibert, P. Shushkov, S. Spicher, M. Stahn, M. Steiner, T. Strunk,
   J. Stückrath, T. Rose, and J. Unsleber
   
 * started run on 2025/05/15 at 16:33:06.884     
   ID    Z sym.   atoms
    1    6 C      1-3, 5-8, 10, 11, 13, 15, 16, 18-20, 22, 23
    2    8 O      4, 21, 24
    3    7 N      9, 14, 17
    4   16 S      12
    5    1 H      25-43

           -------------------------------------------------
          |                Calculation Setup                |
           -------------------------------------------------

          program call               : xtb /rds/general/user/hgt20/home/callum/QDESCP/Omeprazole_rdkit_conf_14/Omeprazole_rdkit_conf_14.xyz --acc 1 --gfn 2 --chrg 0 --uhf 0 --etemp 300 --input /rds/general/user/hgt20/home/callum/QDESCP/Omeprazole_rdkit_conf_14/Omeprazole_rdkit_conf_14_xtb.inp -P 1
          hostname                   : login-c
          coordinate file            : /rds/general/user/hgt20/home/callum/QDESCP/Omeprazole_rdkit_conf_14/Omeprazole_rdkit_conf_14.xyz
          omp threads                :                     1


           -------------------------------------------------
          |                 G F N 2 - x T B                 |
           -------------------------------------------------

        Reference                      10.1021/acs.jctc.8b01176
      * Hamiltonian:
        H0-scaling (s, p, d)           1.850000    2.230000    2.230000
        zeta-weighting                 0.500000
      * Dispersion:
        s8                             2.700000
        a1                             0.520000
        a2                             5.000000
        s9                             5.000000
      * Repulsion:
        kExp                           1.500000    1.000000
        rExp                           1.000000
      * Coulomb:
        alpha                          2.000000
        third order                    shell-resolved
        anisotropic                    true
        a3                             3.000000
        a5                             4.000000
        cn-shift                       1.200000
        cn-exp                         4.000000
        max-rad                        5.000000

q/qsh data taken from xtbrestart
CAMM data taken from xtbrestart

          ...................................................
          :                      SETUP                      :
          :.................................................:
          :  # basis functions                 121          :
          :  # atomic orbitals                 120          :
          :  # shells                           68          :
          :  # electrons                       126          :
          :  max. iterations                   250          :
          :  Hamiltonian                  GFN2-xTB          :
          :  restarted?                       true          :
          :  GBSA solvation                  false          :
          :  PC potential                    false          :
          :  electronic temp.          300.0000000     K    :
          :  accuracy                    1.0000000          :
          :  -> integral cutoff          0.2500000E+02      :
          :  -> integral neglect         0.1000000E-07      :
          :  -> SCF convergence          0.1000000E-05 Eh   :
          :  -> wf. convergence          0.1000000E-03 e    :
          :  Broyden damping             0.4000000          :
          :  net charge                          0          :
          :  unpaired electrons                  0          :
          ...................................................

 iter      E             dE          RMSdq      gap      omega  full diag
   1    -71.2383965 -0.712384E+02  0.526E-06    3.01       0.0  T
   2    -71.2383965 -0.440536E-12  0.338E-06    3.01    4514.2  T
   3    -71.2383965 -0.142109E-13  0.214E-06    3.01    7120.7  T

   *** convergence criteria satisfied after 3 iterations ***

         #    Occupation            Energy/Eh            Energy/eV
      -------------------------------------------------------------
         1        2.0000           -0.7615840             -20.7238
       ...           ...                  ...                  ...
        57        2.0000           -0.4082805             -11.1099
        58        2.0000           -0.4054222             -11.0321
        59        2.0000           -0.3989489             -10.8560
        60        2.0000           -0.3923594             -10.6766
        61        2.0000           -0.3856409             -10.4938
        62        2.0000           -0.3758800             -10.2282
        63        2.0000           -0.3705961             -10.0844 (HOMO)
        64                         -0.2601508              -7.0791 (LUMO)
        65                         -0.2439815              -6.6391
        66                         -0.2350272              -6.3954
        67                         -0.2098398              -5.7100
        68                         -0.2045390              -5.5658
       ...                                ...                  ...
       120                          0.9074025              24.6917
      -------------------------------------------------------------
                  HL-Gap            0.1104452 Eh            3.0054 eV
             Fermi-level           -0.3153735 Eh           -8.5817 eV

 SCC (total)                   0 d,  0 h,  0 min,  0.094 sec
 SCC setup                      ...        0 min,  0.000 sec (  0.411%)
 Dispersion                     ...        0 min,  0.000 sec (  0.530%)
 classical contributions        ...        0 min,  0.000 sec (  0.166%)
 integral evaluation            ...        0 min,  0.008 sec (  8.871%)
 iterations                     ...        0 min,  0.008 sec (  8.871%)
 molecular gradient             ...        0 min,  0.076 sec ( 80.902%)
 printout                       ...        0 min,  0.000 sec (  0.243%)

         :::::::::::::::::::::::::::::::::::::::::::::::::::::
         ::                     SUMMARY                     ::
         :::::::::::::::::::::::::::::::::::::::::::::::::::::
         :: total energy             -70.311023808768 Eh    ::
         :: gradient norm              0.000865509141 Eh/a0 ::
         :: HOMO-LUMO gap              3.005367383699 eV    ::
         ::.................................................::
         :: SCC energy               -71.238636410923 Eh    ::
         :: -> isotropic ES            0.092241762448 Eh    ::
         :: -> anisotropic ES          0.005877231706 Eh    ::
         :: -> anisotropic XC          0.029539492080 Eh    ::
         :: -> dispersion             -0.047366399960 Eh    ::
         :: repulsion energy           0.927612602156 Eh    ::
         :: add. restraining           0.000000000000 Eh    ::
         :: total charge              -0.000000000000 e     ::
         :::::::::::::::::::::::::::::::::::::::::::::::::::::

           -------------------------------------------------
          |                Property Printout                |
           -------------------------------------------------

    * Orbital Energies and Occupations

         #    Occupation            Energy/Eh            Energy/eV
      -------------------------------------------------------------
         1        2.0000           -0.7615840             -20.7238
       ...           ...                  ...                  ...
        51        2.0000           -0.4555736             -12.3968
        52        2.0000           -0.4498792             -12.2418
        53        2.0000           -0.4429821             -12.0542
        54        2.0000           -0.4364991             -11.8777
        55        2.0000           -0.4224675             -11.4959
        56        2.0000           -0.4165227             -11.3342
        57        2.0000           -0.4082805             -11.1099
        58        2.0000           -0.4054222             -11.0321
        59        2.0000           -0.3989489             -10.8560
        60        2.0000           -0.3923594             -10.6766
        61        2.0000           -0.3856409             -10.4938
        62        2.0000           -0.3758800             -10.2282
        63        2.0000           -0.3705961             -10.0844 (HOMO)
        64                         -0.2601508              -7.0791 (LUMO)
        65                         -0.2439815              -6.6391
        66                         -0.2350272              -6.3954
        67                         -0.2098398              -5.7100
        68                         -0.2045390              -5.5658
        69                         -0.1839197              -5.0047
        70                         -0.1687475              -4.5919
        71                         -0.1169296              -3.1818
        72                         -0.0849919              -2.3127
        73                         -0.0473496              -1.2884
        74                         -0.0016058              -0.0437
       ...                                ...                  ...
       120                          0.9074025              24.6917
      -------------------------------------------------------------
                  HL-Gap            0.1104452 Eh            3.0054 eV
             Fermi-level           -0.3153735 Eh           -8.5817 eV

     #   Z          covCN         q      C6AA      α(0)
     1   6 C        3.757    -0.104    22.549     6.770
     2   6 C        2.958    -0.015    28.376     8.737
     3   6 C        2.897     0.136    25.033     8.203
     4   8 O        1.703    -0.308    19.129     5.905
     5   6 C        3.657     0.045    20.100     6.435
     6   6 C        2.960    -0.023    28.573     8.768
     7   6 C        3.757    -0.116    22.776     6.804
     8   6 C        2.911     0.043    27.044     8.527
     9   7 N        1.843    -0.235    26.990     7.699
    10   6 C        2.997     0.080    26.195     8.396
    11   6 C        3.802    -0.088    22.168     6.703
    12  16 S        2.870     0.410   125.465    18.852
    13   6 C        3.207     0.107    25.071     8.154
    14   7 N        1.894    -0.291    28.387     7.899
    15   6 C        3.219     0.069    25.775     8.256
    16   6 C        3.100     0.034    27.117     8.534
    17   7 N        2.798    -0.110    23.402     7.185
    18   6 C        2.907    -0.052    29.296     8.875
    19   6 C        2.924    -0.069    29.709     8.938
    20   6 C        2.866     0.137    25.002     8.196
    21   8 O        1.706    -0.268    18.448     5.799
    22   6 C        3.642     0.037    20.297     6.477
    23   6 C        2.911    -0.068    29.688     8.935
    24   8 O        0.860    -0.487    23.507     6.500
    25   1 H        0.925     0.047     2.359     2.402
    26   1 H        0.924     0.049     2.337     2.390
    27   1 H        0.925     0.060     2.201     2.320
    28   1 H        0.925     0.058     2.220     2.330
    29   1 H        0.924     0.034     2.532     2.489
    30   1 H        0.924     0.033     2.538     2.491
    31   1 H        0.925     0.050     2.319     2.381
    32   1 H        0.925     0.054     2.276     2.359
    33   1 H        0.925     0.067     2.117     2.276
    34   1 H        0.925     0.046     2.372     2.409
    35   1 H        0.925     0.084     1.936     2.176
    36   1 H        0.925     0.074     2.038     2.232
    37   1 H        0.860     0.190     1.156     1.685
    38   1 H        0.926     0.038     2.475     2.460
    39   1 H        0.926     0.042     2.416     2.431
    40   1 H        0.925     0.063     2.161     2.299
    41   1 H        0.924     0.040     2.452     2.449
    42   1 H        0.924     0.040     2.452     2.449
    43   1 H        0.926     0.065     2.141     2.288

 Mol. C6AA /au·bohr⁶  :      23681.264864
 Mol. C8AA /au·bohr⁸  :     592274.591079
 Mol. α(0) /au        :        239.864313


Wiberg/Mayer (AO) data.
largest (>0.10) Wiberg bond orders for each atom

 ---------------------------------------------------------------------------
     #   Z sym  total        # sym  WBO       # sym  WBO       # sym  WBO
 ---------------------------------------------------------------------------
     1   6 C    3.994 --     2 C    1.028    27 H    0.980    25 H    0.979
                            26 H    0.965
     2   6 C    3.984 --     8 C    1.397     3 C    1.364     1 C    1.028
     3   6 C    3.945 --     6 C    1.381     2 C    1.364     4 O    1.001
     4   8 O    2.104 --     3 C    1.001     5 C    0.970
     5   6 C    3.947 --    28 H    0.980    29 H    0.979    30 H    0.979
                             4 O    0.970
     6   6 C    3.987 --     3 C    1.381    10 C    1.355     7 C    1.029
                             8 C    0.103
     7   6 C    3.993 --     6 C    1.029    33 H    0.978    32 H    0.972
                            31 H    0.963
     8   6 C    3.982 --     9 N    1.440     2 C    1.397    34 H    0.961
                             6 C    0.103
     9   7 N    3.063 --     8 C    1.440    10 C    1.405
    10   6 C    3.982 --     9 N    1.405     6 C    1.355    11 C    1.027
    11   6 C    3.978 --    10 C    1.027    35 H    0.966    36 H    0.955
                            12 S    0.881
    12  16 S    3.779 --    24 O    1.818    13 C    0.930    11 C    0.881
    13   6 C    3.948 --    14 N    1.547    17 N    1.232    12 S    0.930
    14   7 N    3.012 --    13 C    1.547    15 C    1.199    17 N    0.127
[...]
   
   for ddCOSMO and CPCM-X implicit solvation:
   * M. Stahn, S. Ehlert, S. Grimme, J. Phys. Chem. A,
     2023, XX, XXXX-XXXX. DOI: 10.1021/acs.jpca.3c04382
   
   for DFT-D4:
   * E. Caldeweyher, C. Bannwarth and S. Grimme, J. Chem. Phys., 2017,
     147, 034112. DOI: 10.1063/1.4993215
   * E. Caldeweyher, S. Ehlert, A. Hansen, H. Neugebauer, S. Spicher,
     C. Bannwarth and S. Grimme, J. Chem. Phys., 2019, 150, 154122.
     DOI: 10.1063/1.5090222
   * E. Caldeweyher, J.-M. Mewes, S. Ehlert and S. Grimme, Phys. Chem. Chem. Phys.
     2020, 22, 8499-8512. DOI: 10.1039/D0CP00502A
   
   for sTDA-xTB:
   * S. Grimme and C. Bannwarth, J. Chem. Phys., 2016, 145, 054103.
     DOI: 10.1063/1.4959605
   
   in the mass-spec context:
   * V. Asgeirsson, C. Bauer and S. Grimme, Chem. Sci., 2017, 8, 4879.
     DOI: 10.1039/c7sc00601b
   * J. Koopman and S. Grimme, ACS Omega 2019, 4, 12, 15120-15133.
     DOI: 10.1021/acsomega.9b02011
   
   for metadynamics refer to:
   * S. Grimme, J. Chem. Theory Comput., 2019, 155, 2847-2862
     DOI: 10.1021/acs.jctc.9b00143
   
   for SPH calculations refer to:
   * S. Spicher and S. Grimme, J. Chem. Theory Comput., 2021, 17, 1701-1714
     DOI: 10.1021/acs.jctc.0c01306
   
   for ONIOM refer to:
   * C. Plett, A. Katbashev, S. Ehlert, S. Grimme, M. Bursch,
     Phys. Chem. Chem. Phys., 2023, 25, 17860-17868. DOI: 10.1039/D3CP02178E
   
   for DIPRO refer to:
   * J. Kohn, N. Gildemeister, S. Grimme, D. Fazzi, A. Hansen,
     J. Chem. Phys., 2023, just accepted.
   
   for PTB refer to:
   * S. Grimme, M. Mueller, A. Hansen, J. Chem. Phys., 2023, 158, 124111.
     DOI: 10.1063/5.0137838
   
   with help from (in alphabetical order)
   P. Atkinson, C. Bannwarth, F. Bohle, G. Brandenburg, E. Caldeweyher
   M. Checinski, S. Dohm, S. Ehlert, S. Ehrlich, I. Gerasimov, C. Hölzer
   A. Katbashev, J. Kohn, J. Koopman, C. Lavigne, S. Lehtola, F. März, M. Müller,
   F. Musil, H. Neugebauer, J. Pisarek, C. Plett, P. Pracht, F. Pultar,
   J. Seibert, P. Shushkov, S. Spicher, M. Stahn, M. Steiner, T. Strunk,
   J. Stückrath, T. Rose, and J. Unsleber
   
 * started run on 2025/05/15 at 16:33:09.797     
   ID    Z sym.   atoms
    1    6 C      1-3, 5-8, 10, 11, 13, 15, 16, 18-20, 22, 23
    2    8 O      4, 21, 24
    3    7 N      9, 14, 17
    4   16 S      12
    5    1 H      25-43

           -------------------------------------------------
          |                Calculation Setup                |
           -------------------------------------------------

          program call               : xtb /rds/general/user/hgt20/home/callum/QDESCP/Omeprazole_rdkit_conf_14/Omeprazole_rdkit_conf_14.xyz --acc 1 --gfn 2 --chrg 0 --uhf 2 --etemp 300 --input /rds/general/user/hgt20/home/callum/QDESCP/Omeprazole_rdkit_conf_14/Omeprazole_rdkit_conf_14_xtb.inp -P 1
          hostname                   : login-c
          coordinate file            : /rds/general/user/hgt20/home/callum/QDESCP/Omeprazole_rdkit_conf_14/Omeprazole_rdkit_conf_14.xyz
          omp threads                :                     1


           -------------------------------------------------
          |                 G F N 2 - x T B                 |
           -------------------------------------------------

        Reference                      10.1021/acs.jctc.8b01176
      * Hamiltonian:
        H0-scaling (s, p, d)           1.850000    2.230000    2.230000
        zeta-weighting                 0.500000
      * Dispersion:
        s8                             2.700000
        a1                             0.520000
        a2                             5.000000
        s9                             5.000000
      * Repulsion:
        kExp                           1.500000    1.000000
        rExp                           1.000000
      * Coulomb:
        alpha                          2.000000
        third order                    shell-resolved
        anisotropic                    true
        a3                             3.000000
        a5                             4.000000
        cn-shift                       1.200000
        cn-exp                         4.000000
        max-rad                        5.000000


          ...................................................
          :                      SETUP                      :
          :.................................................:
          :  # basis functions                 121          :
          :  # atomic orbitals                 120          :
          :  # shells                           68          :
          :  # electrons                       126          :
          :  max. iterations                   250          :
          :  Hamiltonian                  GFN2-xTB          :
          :  restarted?                      false          :
          :  GBSA solvation                  false          :
          :  PC potential                    false          :
          :  electronic temp.          300.0000000     K    :
          :  accuracy                    1.0000000          :
          :  -> integral cutoff          0.2500000E+02      :
          :  -> integral neglect         0.1000000E-07      :
          :  -> SCF convergence          0.1000000E-05 Eh   :
          :  -> wf. convergence          0.1000000E-03 e    :
          :  Broyden damping             0.4000000          :
          :  net charge                          0          :
          :  unpaired electrons                  2          :
          ...................................................

 iter      E             dE          RMSdq      gap      omega  full diag
   1    -70.9588735 -0.709589E+02  0.441E+00    0.44       0.0  T
   2    -70.8917615  0.671120E-01  0.297E+00    0.29       1.0  T
   3    -70.7062865  0.185475E+00  0.253E+00    1.05       1.0  T
   4    -71.0540903 -0.347804E+00  0.133E+00    0.36       1.0  T
   5    -71.0294703  0.246200E-01  0.123E+00    0.29       1.0  T
   6    -71.0680163 -0.385460E-01  0.813E-01    0.24       1.0  T
   7    -70.9591070  0.108909E+00  0.114E+00    0.64       1.0  T
   8    -71.0967324 -0.137625E+00  0.674E-01    0.32       1.0  T
   9    -70.9975451  0.991874E-01  0.104E+00    0.37       1.0  T
  10    -71.0979708 -0.100426E+00  0.444E-01    0.24       1.0  T
  11    -71.1154487 -0.174779E-01  0.190E-01    0.26       1.0  T
  12    -71.1131945  0.225425E-02  0.192E-01    0.24       1.0  T
  13    -71.1169066 -0.371211E-02  0.792E-02    0.25       1.0  T
  14    -71.1167787  0.127925E-03  0.797E-02    0.25       1.0  T
  15    -71.1162519  0.526751E-03  0.879E-02    0.26       1.0  T
  16    -71.1164848 -0.232862E-03  0.762E-02    0.24       1.0  T
  17    -71.1171971 -0.712272E-03  0.206E-02    0.25       1.0  T
  18    -71.1172476 -0.505413E-04  0.508E-03    0.25       3.0  T
  19    -71.1172486 -0.990548E-06  0.276E-03    0.25       5.5  T
  20    -71.1172494 -0.776639E-06  0.545E-04    0.25      28.0  T
  21    -71.1172486  0.795718E-06  0.254E-03    0.25       6.0  T
  22    -71.1172493 -0.769646E-06  0.555E-04    0.25      27.5  T

   *** convergence criteria satisfied after 22 iterations ***

         #    Occupation            Energy/Eh            Energy/eV
      -------------------------------------------------------------
         1        2.0000           -0.7517669             -20.4566
       ...           ...                  ...                  ...
        58        2.0000           -0.3994840             -10.8705
        59        2.0000           -0.3934347             -10.7059
        60        1.9864           -0.3825165             -10.4088
        61        1.8868           -0.3804040             -10.3513
        62        1.7536           -0.3795102             -10.3270
        63        1.3732           -0.3779555             -10.2847
        64        0.9919           -0.2509597              -6.8290 (HOMO)
        65        0.0081           -0.2418310              -6.5806 (LUMO)
        66        0.0000           -0.2314459              -6.2980
        67                         -0.2082350              -5.6664
        68                         -0.1999759              -5.4416
        69                         -0.1717333              -4.6731
       ...                                ...                  ...
       120                          0.9145138              24.8852
      -------------------------------------------------------------
                  HL-Gap            0.0091287 Eh            0.2484 eV
             Fermi-level           -0.3124217 Eh           -8.5014 eV

 transition dipole moment (au) for excitation:          63          64
     X       Y       Z   
  -1.5975  -0.0494   0.6205  total (au/Debye):    1.714   4.358
 dE (eV)             :    3.456
 oscillator strength :  0.35194E+00

 SCC (total)                   0 d,  0 h,  0 min,  0.184 sec
 SCC setup                      ...        0 min,  0.000 sec (  0.208%)
 Dispersion                     ...        0 min,  0.001 sec (  0.277%)
 classical contributions        ...        0 min,  0.000 sec (  0.083%)
 integral evaluation            ...        0 min,  0.008 sec (  4.546%)
 iterations                     ...        0 min,  0.095 sec ( 51.542%)
 molecular gradient             ...        0 min,  0.027 sec ( 14.471%)
 printout                       ...        0 min,  0.053 sec ( 28.867%)

         :::::::::::::::::::::::::::::::::::::::::::::::::::::
         ::                     SUMMARY                     ::
         :::::::::::::::::::::::::::::::::::::::::::::::::::::
         :: total energy             -70.189876695357 Eh    ::
         :: gradient norm              0.098482733609 Eh/a0 ::
         :: HOMO-LUMO gap              0.248405818099 eV    ::
         ::.................................................::
         :: SCC energy               -71.117489297512 Eh    ::
         :: -> isotropic ES            0.087476529449 Eh    ::
         :: -> anisotropic ES          0.005181303211 Eh    ::
         :: -> anisotropic XC          0.025277321986 Eh    ::
         :: -> dispersion             -0.047369879373 Eh    ::
         :: repulsion energy           0.927612602156 Eh    ::
         :: add. restraining           0.000000000000 Eh    ::
         :: total charge               0.000000000005 e     ::
         :::::::::::::::::::::::::::::::::::::::::::::::::::::

           -------------------------------------------------
          |                Property Printout                |
           -------------------------------------------------

    * Orbital Energies and Occupations

         #    Occupation            Energy/Eh            Energy/eV
      -------------------------------------------------------------
         1        2.0000           -0.7517669             -20.4566
       ...           ...                  ...                  ...
        52        2.0000           -0.4458584             -12.1324
        53        2.0000           -0.4430816             -12.0569
        54        2.0000           -0.4363191             -11.8728
        55        2.0000           -0.4184841             -11.3875
        56        2.0000           -0.4133118             -11.2468
        57        2.0000           -0.4043147             -11.0020
        58        2.0000           -0.3994840             -10.8705
        59        2.0000           -0.3934347             -10.7059
        60        1.9864           -0.3825165             -10.4088
        61        1.8868           -0.3804040             -10.3513
        62        1.7536           -0.3795102             -10.3270
        63        1.3732           -0.3779555             -10.2847
        64        0.9919           -0.2509597              -6.8290 (HOMO)
        65        0.0081           -0.2418310              -6.5806 (LUMO)
        66        0.0000           -0.2314459              -6.2980
        67                         -0.2082350              -5.6664
        68                         -0.1999759              -5.4416
        69                         -0.1717333              -4.6731
        70                         -0.1615269              -4.3954
        71                         -0.1142647              -3.1093
        72                         -0.0836247              -2.2755
        73                         -0.0390957              -1.0638
        74                          0.0054435               0.1481
        75                          0.0161881               0.4405
       ...                                ...                  ...
       120                          0.9145138              24.8852
      -------------------------------------------------------------
                  HL-Gap            0.0091287 Eh            0.2484 eV
             Fermi-level           -0.3124217 Eh           -8.5014 eV

     #   Z          covCN         q      C6AA      α(0)
     1   6 C        3.757    -0.103    22.520     6.766
     2   6 C        2.958    -0.021    28.521     8.760
     3   6 C        2.897     0.126    25.245     8.238
     4   8 O        1.703    -0.308    19.131     5.905
     5   6 C        3.657     0.045    20.108     6.436
     6   6 C        2.960    -0.017    28.434     8.746
     7   6 C        3.757    -0.115    22.754     6.801
     8   6 C        2.911     0.041    27.091     8.535
     9   7 N        1.843    -0.200    26.169     7.581
    10   6 C        2.997     0.066    26.519     8.447
    11   6 C        3.802    -0.084    22.109     6.694
    12  16 S        2.870     0.377   126.639    18.940
    13   6 C        3.207     0.080    25.633     8.245
    14   7 N        1.894    -0.302    28.684     7.940
    15   6 C        3.219     0.072    25.705     8.244
    16   6 C        3.100     0.054    26.658     8.461
    17   7 N        2.798    -0.111    23.427     7.189
    18   6 C        2.907    -0.065    29.623     8.925
    19   6 C        2.924    -0.080    29.988     8.980
    20   6 C        2.866     0.149    24.757     8.156
    21   8 O        1.706    -0.236    17.907     5.713
    22   6 C        3.642     0.031    20.393     6.493
    23   6 C        2.911    -0.078    29.952     8.974
    24   8 O        0.860    -0.472    23.171     6.454
    25   1 H        0.925     0.045     2.381     2.413
    26   1 H        0.924     0.047     2.356     2.401
    27   1 H        0.925     0.062     2.181     2.309
    28   1 H        0.925     0.057     2.234     2.338
    29   1 H        0.924     0.033     2.539     2.492
    30   1 H        0.924     0.033     2.545     2.495
    31   1 H        0.925     0.054     2.275     2.358
    32   1 H        0.925     0.056     2.245     2.343
    33   1 H        0.925     0.069     2.098     2.265
    34   1 H        0.925     0.050     2.315     2.379
    35   1 H        0.925     0.079     1.989     2.205
    36   1 H        0.925     0.074     2.043     2.235
    37   1 H        0.860     0.187     1.173     1.697
    38   1 H        0.926     0.034     2.531     2.488
    39   1 H        0.926     0.036     2.499     2.472
    40   1 H        0.925     0.069     2.091     2.261
    41   1 H        0.924     0.052     2.296     2.370
    42   1 H        0.924     0.052     2.297     2.370
    43   1 H        0.926     0.061     2.182     2.310

 Mol. C6AA /au·bohr⁶  :      23666.213964
 Mol. C8AA /au·bohr⁸  :     592395.986095
 Mol. α(0) /au        :        239.826675


Wiberg/Mayer (AO) data.
largest (>0.10) Wiberg bond orders for each atom

 ---------------------------------------------------------------------------
     #   Z sym  total        # sym  WBO       # sym  WBO       # sym  WBO
 ---------------------------------------------------------------------------
     1   6 C    3.987 --     2 C    1.026    25 H    0.979    27 H    0.977
                            26 H    0.966
     2   6 C    3.879 --     8 C    1.390     3 C    1.300     1 C    1.026
     3   6 C    3.880 --     6 C    1.399     2 C    1.300     4 O    0.997
     4   8 O    2.095 --     3 C    0.997     5 C    0.971
     5   6 C    3.944 --    28 H    0.979    29 H    0.979    30 H    0.979
                             4 O    0.971
     6   6 C    3.943 --     3 C    1.399    10 C    1.309     7 C    1.029
     7   6 C    3.984 --     6 C    1.029    33 H    0.976    32 H    0.971
                            31 H    0.961
     8   6 C    3.946 --     9 N    1.425     2 C    1.390    34 H    0.955
     9   7 N    2.959 --     8 C    1.425    10 C    1.322
    10   6 C    3.894 --     9 N    1.322     6 C    1.309    11 C    1.056
    11   6 C    3.924 --    10 C    1.056    35 H    0.966    36 H    0.954
                            12 S    0.798
    12  16 S    3.795 --    24 O    1.784    13 C    0.993    11 C    0.798
    13   6 C    3.833 --    14 N    1.435    17 N    1.128    12 S    0.993
    14   7 N    2.932 --    13 C    1.435    15 C    1.232
    15   6 C    3.938 --    23 C    1.333    14 N    1.232    16 C    1.192
    16   6 C    3.882 --    18 C    1.297    17 N    1.208    15 C    1.192
    17   7 N    3.487 --    16 C    1.208    13 C    1.128    37 H    0.932
    18   6 C    3.848 --    19 C    1.406    16 C    1.297    38 H    0.968
    19   6 C    3.884 --    18 C    1.406    20 C    1.320    39 H    0.966
    20   6 C    3.817 --    19 C    1.320    23 C    1.273    21 O    1.097
    21   8 O    2.219 --    20 C    1.097    22 C    0.986
    22   6 C    3.938 --    21 O    0.986    40 H    0.978    42 H    0.971
                            41 H    0.971
    23   6 C    3.797 --    15 C    1.333    20 C    1.273    43 H    0.965
    24   8 O    1.956 --    12 S    1.784
    25   1 H    0.996 --     1 C    0.979
    26   1 H    0.992 --     1 C    0.966
    27   1 H    0.992 --     1 C    0.977
    28   1 H    0.995 --     5 C    0.979
    29   1 H    0.999 --     5 C    0.979
    30   1 H    0.999 --     5 C    0.979
    31   1 H    0.994 --     7 C    0.961
    32   1 H    0.995 --     7 C    0.971
    33   1 H    0.992 --     7 C    0.976
    34   1 H    0.988 --     8 C    0.955
    35   1 H    0.991 --    11 C    0.966
    36   1 H    0.992 --    11 C    0.954
    37   1 H    0.964 --    17 N    0.932
    38   1 H    0.998 --    18 C    0.968
    39   1 H    0.998 --    19 C    0.966
    40   1 H    0.995 --    22 C    0.978
    41   1 H    0.990 --    22 C    0.971
    42   1 H    0.990 --    22 C    0.971
    43   1 H    0.995 --    23 C    0.965
 ---------------------------------------------------------------------------

Topologies differ in total number of bonds
Writing topology from bond orders to xtbtopo.mol

molecular dipole:
                 x           y           z       tot (Debye)
 q only:        0.722      -0.425       0.276
   full:        0.920      -0.093      -0.206       2.407
molecular quadrupole (traceless):
                xx          xy          yy          xz          yz          zz
 q only:       35.633       1.314     -12.743       0.962       4.075     -22.890
  q+dip:       42.171       2.582     -16.784      -2.397       1.867     -25.387
   full:       41.142       2.346     -16.665      -1.995       4.602     -24.477


           -------------------------------------------------
          | TOTAL ENERGY              -70.189876695357 Eh   |
          | GRADIENT NORM               0.098482733609 Eh/α |
          | HOMO-LUMO GAP               0.248405818099 eV   |
           -------------------------------------------------

------------------------------------------------------------------------
 * finished run on 2025/05/15 at 16:33:09.996     
------------------------------------------------------------------------
 total:
 * wall-time:     0 d,  0 h,  0 min,  0.199 sec
 *  cpu-time:     0 d,  0 h,  0 min,  0.109 sec
 * ratio c/w:     0.546 speedup
 SCF:
 * wall-time:     0 d,  0 h,  0 min,  0.184 sec
 *  cpu-time:     0 d,  0 h,  0 min,  0.096 sec
 * ratio c/w:     0.523 speedup


