43
 energy: -70.311023808764 gnorm: 0.000865569928 xtb: 6.7.1 (edcfbbe)
C           -6.29765352517106        1.91655085092078        0.43202069077550
C           -4.84148086050351        1.57845527042515        0.36850860176765
C           -4.38015816322409        0.27773874166695        0.58983630189512
O           -5.27710823126254       -0.73154726338013        0.89410297623322
C           -5.77281091985538       -1.41073467952956       -0.24097226727504
C           -3.01240991343961       -0.00112513846491        0.54324721905714
C           -2.50919081340823       -1.38458071768542        0.81757742835598
C           -3.88095600552908        2.54280461116678        0.09224186664285
N           -2.58888061523445        2.29513364664978        0.02280625457175
C           -2.15471034391479        1.06350379758509        0.24574316370800
C           -0.68301052746338        0.86905270987884        0.13348873975615
S           -0.30379892088623       -0.27310999910302       -1.29077061187495
C            1.44553014263847       -0.35037231507229       -0.87470661457744
N            1.96929295000906       -0.84402474006474        0.20855373714251
C            3.32642874462633       -0.70604090966476        0.04159670620974
C            3.58783756350077       -0.10209347458514       -1.21581071912570
N            2.35255551619400        0.10462972869676       -1.77646862349902
C            4.87924275116969        0.15409268784211       -1.63613453920352
C            5.91114969609845       -0.20229718960759       -0.78972445638484
C            5.66672541428766       -0.80186790530511        0.45517891106081
O            6.65108604075850       -1.17439798807795        1.32432850626713
C            7.99405779215099       -0.95512199286845        0.97041614666173
C            4.37005538224355       -1.05715472186381        0.88296282888826
O           -0.31110610833580        0.52514555132845       -2.52024288240303
H           -6.43577179127209        2.92052985102395        0.82704989438740
H           -6.73940965612800        1.88324956634222       -0.56510252263198
H           -6.82063136335094        1.20370439531415        1.06607842077070
H           -6.44529728460137       -2.17909901343698        0.13614715062020
H           -4.96381833102167       -1.87949919096392       -0.81107052798524
H           -6.32478118514435       -0.73491595769987       -0.90244792092447
H           -2.27098325187002       -1.90088417235186       -0.11158188356031
H           -1.60875543379932       -1.35936408071518        1.42675181836357
H           -3.27497877425019       -1.94998364206898        1.34399692743589
H           -4.16893706431850        3.57056798191014       -0.08624344139631
H           -0.19998221416343        1.82339201809453       -0.06473892332548
H           -0.25116727003183        0.37850650529531        1.00356788583047
H            2.10658701857287        0.52755239359732       -2.65776860441497
H            5.08142067753238        0.61435200377064       -2.59100868611947
H            6.92289106870954       -0.00910287040873       -1.10759305318701
H            8.58127959378023       -1.33067969010136        1.80698900098432
H            8.20731905152558        0.10985606730308        0.83093459816057
H            8.26861468305534       -1.50400075223526        0.06352313073230
H            4.19581448132600       -1.51721997355649        1.84023737160993
