66
 energy: -102.675029834391 gnorm: 0.000329132817 xtb: 6.7.1 (edcfbbe)
C           -6.64691475073576       -0.38750826095599       -0.33233382966707
C           -5.68102731530955       -0.22024728924019        0.83267822958150
C           -5.36952869191203        1.26245367036003        1.09062509013984
C           -4.57625358503954        1.84668138533646       -0.02108150545574
N           -5.05076409630281        2.49444206539263       -1.06352503741017
C           -4.00716557580135        2.81268014583692       -1.86373043525817
C           -4.16491013058279        3.55708282487331       -3.13604304325543
C           -2.83581731538784        2.34169794900394       -1.29670040247182
N           -3.23462046624873        1.72510765502969       -0.12130257375188
N           -2.31913610448429        1.15816141710065        0.71937229707090
C           -1.00738839288905        1.21222322580740        0.36531527960516
C           -0.01198388186435        0.63026793185899        1.28233117850844
C           -0.29601896163366       -0.31226776324506        2.29256281763136
C            0.75074414136747       -0.82802583482114        3.05628420631969
C            2.05351777052713       -0.41784200152458        2.84069897806394
C            2.32351905880144        0.52502580514746        1.86888617837318
S            4.02428369895953        1.02750039093237        1.57041667041667
O            4.05047042574086        2.42841114947927        1.28661041168811
N            4.47897410460643        0.22333692929802        0.19723290413093
C            3.88069330836368        0.64208358292240       -1.04758552893742
C            4.73309689418812        0.11610982318794       -2.19931799790713
N            4.81563432187045       -1.33336639166162       -2.12442260067247
C            5.43198112304100       -1.72091039283660       -0.86769936572290
C            4.58869417742926       -1.20990912525338        0.29778556175187
C            5.49668804199395       -1.89807025209254       -3.27896957686340
C            5.24259698008337       -3.39505834819243       -3.41793771202402
O            4.82261031607250        0.51866369618306        2.64763835465610
C            1.30724774045330        1.04165679799246        1.09788537829320
O           -1.59359243267929       -0.68287351577822        2.47466899122425
C           -1.91933980502153       -1.65504220861845        3.46092458449451
C           -3.42374871893688       -1.86936139685195        3.41815885869199
N           -0.57654261949003        1.75609858650554       -0.71579828478206
C           -1.42427466357866        2.34418487588913       -1.65459381836274
O           -0.98508146617098        2.80793463030958       -2.68375156285253
H           -6.25990481776947        0.10973244661136       -1.21776756413272
H           -6.79713798177349       -1.44065101079885       -0.55746057609396
H           -7.60961425929633        0.05578317045758       -0.09137431628608
H           -6.11557038199666       -0.65465065156865        1.73570646532632
H           -4.75241576855098       -0.75533600803865        0.61542745569512
H           -4.82218402125441        1.37422270022316        2.03157423179637
H           -6.30423843462423        1.81752390571360        1.16634418871206
H           -4.54867438347391        4.55674560593775       -2.93789865777073
H           -4.87872879139569        3.04774525423900       -3.78094574891766
H           -3.20157920180566        3.62876289717883       -3.63288726235052
H           -2.64629571023800        0.63591049635097        1.52136411004373
H            0.55569338252028       -1.55385415867066        3.82850913621277
H            2.86771142125407       -0.80604981142017        3.43140187524403
H            2.85991887414974        0.24493395812221       -1.14687549565558
H            3.85316850993744        1.73109262563692       -1.04921802325948
H            5.73265705219848        0.58143186093521       -2.14803741012117
H            4.26303208551053        0.39316271259535       -3.14491082985740
H            5.48466942623514       -2.80875832871763       -0.81666732128166
H            6.45287113368374       -1.30956026779681       -0.77663793280389
H            5.06503093099832       -1.43460532035665        1.25217416240627
H            3.59449923065717       -1.68235001137597        0.25953294649843
H            5.09678554354865       -1.39661358423680       -4.16364542296174
H            6.58327474988077       -1.70421281275642       -3.24404023043936
H            4.17742408831114       -3.59316015776393       -3.33906890880935
H            5.59287155361145       -3.73578265784445       -4.38886455034727
H            5.76235170311906       -3.96483440788061       -2.65252347445345
H            1.50863417291146        1.78490385828736        0.34422057202404
H           -1.39708094660567       -2.59432187483792        3.24362119857728
H           -1.61552993936676       -1.29453657059420        4.45141415951373
H           -3.72642570371364       -2.22467230838533        2.43691494446461
H           -3.94628467591942       -0.94076971992649        3.63347254987902
H           -3.70587197018290       -2.60885358668570        4.16136303387912
