----- Optimization -----
      -----------------------------------------------------------      
     |                   =====================                   |     
     |                           x T B                           |     
     |                   =====================                   |     
     |                         S. Grimme                         |     
     |          Mulliken Center for Theoretical Chemistry        |     
     |                    University of Bonn                     |     
      -----------------------------------------------------------      

   * xtb version 6.7.1 (edcfbbe) compiled by 'conda@3ef47c1a292c' on 2024-11-25

   xtb is free software: you can redistribute it and/or modify it under
   the terms of the GNU Lesser General Public License as published by
   the Free Software Foundation, either version 3 of the License, or
   (at your option) any later version.
   
   xtb is distributed in the hope that it will be useful,
   but WITHOUT ANY WARRANTY; without even the implied warranty of
   MERCHANTABILITY or FITNESS FOR A PARTICULAR PURPOSE.  See the
   GNU Lesser General Public License for more details.
   
   Cite this work as:
   * C. Bannwarth, E. Caldeweyher, S. Ehlert, A. Hansen, P. Pracht,
     J. Seibert, S. Spicher, S. Grimme, WIREs Comput. Mol. Sci., 2020, 11,
     e01493. DOI: 10.1002/wcms.1493
   
   for GFN2-xTB:
   * C. Bannwarth, S. Ehlert and S. Grimme., J. Chem. Theory Comput., 2019,
     15, 1652-1671. DOI: 10.1021/acs.jctc.8b01176
   for GFN1-xTB:
   * S. Grimme, C. Bannwarth, P. Shushkov, J. Chem. Theory Comput., 2017,
     13, 1989-2009. DOI: 10.1021/acs.jctc.7b00118
   for GFN0-xTB:
   * P. Pracht, E. Caldeweyher, S. Ehlert, S. Grimme, ChemRxiv, 2019, preprint.
     DOI: 10.26434/chemrxiv.8326202.v1
   for GFN-FF:
   * S. Spicher and S. Grimme, Angew. Chem. Int. Ed., 2020, 59, 15665-15673.
     DOI: 10.1002/anie.202004239
   
   for ALPB and GBSA implicit solvation:
   * S. Ehlert, M. Stahn, S. Spicher, S. Grimme, J. Chem. Theory Comput.,
     2021, 17, 4250-4261. DOI: 10.1021/acs.jctc.1c00471
   
   for ddCOSMO and CPCM-X implicit solvation:
   * M. Stahn, S. Ehlert, S. Grimme, J. Phys. Chem. A,
     2023, XX, XXXX-XXXX. DOI: 10.1021/acs.jpca.3c04382
   
   for DFT-D4:
   * E. Caldeweyher, C. Bannwarth and S. Grimme, J. Chem. Phys., 2017,
     147, 034112. DOI: 10.1063/1.4993215
   * E. Caldeweyher, S. Ehlert, A. Hansen, H. Neugebauer, S. Spicher,
     C. Bannwarth and S. Grimme, J. Chem. Phys., 2019, 150, 154122.
     DOI: 10.1063/1.5090222
   * E. Caldeweyher, J.-M. Mewes, S. Ehlert and S. Grimme, Phys. Chem. Chem. Phys.
     2020, 22, 8499-8512. DOI: 10.1039/D0CP00502A
   
   for sTDA-xTB:
   * S. Grimme and C. Bannwarth, J. Chem. Phys., 2016, 145, 054103.
     DOI: 10.1063/1.4959605
   
   in the mass-spec context:
   * V. Asgeirsson, C. Bauer and S. Grimme, Chem. Sci., 2017, 8, 4879.
     DOI: 10.1039/c7sc00601b
   * J. Koopman and S. Grimme, ACS Omega 2019, 4, 12, 15120-15133.
     DOI: 10.1021/acsomega.9b02011
   
   for metadynamics refer to:
   * S. Grimme, J. Chem. Theory Comput., 2019, 155, 2847-2862
     DOI: 10.1021/acs.jctc.9b00143
   
   for SPH calculations refer to:
   * S. Spicher and S. Grimme, J. Chem. Theory Comput., 2021, 17, 1701-1714
     DOI: 10.1021/acs.jctc.0c01306
   
   for ONIOM refer to:
   * C. Plett, A. Katbashev, S. Ehlert, S. Grimme, M. Bursch,
     Phys. Chem. Chem. Phys., 2023, 25, 17860-17868. DOI: 10.1039/D3CP02178E
   
   for DIPRO refer to:
   * J. Kohn, N. Gildemeister, S. Grimme, D. Fazzi, A. Hansen,
     J. Chem. Phys., 2023, just accepted.
   
   for PTB refer to:
   * S. Grimme, M. Mueller, A. Hansen, J. Chem. Phys., 2023, 158, 124111.
     DOI: 10.1063/5.0137838
   
   with help from (in alphabetical order)
   P. Atkinson, C. Bannwarth, F. Bohle, G. Brandenburg, E. Caldeweyher
   M. Checinski, S. Dohm, S. Ehlert, S. Ehrlich, I. Gerasimov, C. Hölzer
   A. Katbashev, J. Kohn, J. Koopman, C. Lavigne, S. Lehtola, F. März, M. Müller,
   F. Musil, H. Neugebauer, J. Pisarek, C. Plett, P. Pracht, F. Pultar,
   J. Seibert, P. Shushkov, S. Spicher, M. Stahn, M. Steiner, T. Strunk,
   J. Stückrath, T. Rose, and J. Unsleber
   
 * started run on 2025/05/15 at 16:12:38.743     
   ID    Z sym.   atoms
    1    6 C      1-4, 6-8, 11-16, 20, 21, 23-26, 28, 30, 31, 33
    2    7 N      5, 9, 10, 19, 22, 32
    3   16 S      17
    4    8 O      18, 27, 29, 34
    5    1 H      35-66

           -------------------------------------------------
          |                Calculation Setup                |
           -------------------------------------------------

          program call               : xtb /rds/general/user/hgt20/home/callum/QDESCP/Vardenafil_rdkit_conf_2/Vardenafil_rdkit_conf_2.xyz --opt normal --acc 1 --gfn 2 --chrg 0 --uhf 0 -P 1
          hostname                   : login-c
          coordinate file            : /rds/general/user/hgt20/home/callum/QDESCP/Vardenafil_rdkit_conf_2/Vardenafil_rdkit_conf_2.xyz
          omp threads                :                     1


           -------------------------------------------------
          |                 G F N 2 - x T B                 |
           -------------------------------------------------

        Reference                      10.1021/acs.jctc.8b01176
      * Hamiltonian:
        H0-scaling (s, p, d)           1.850000    2.230000    2.230000
        zeta-weighting                 0.500000
      * Dispersion:
        s8                             2.700000
        a1                             0.520000
        a2                             5.000000
        s9                             5.000000
      * Repulsion:
        kExp                           1.500000    1.000000
        rExp                           1.000000
      * Coulomb:
        alpha                          2.000000
        third order                    shell-resolved
        anisotropic                    true
        a3                             3.000000
        a5                             4.000000
        cn-shift                       1.200000
        cn-exp                         4.000000
        max-rad                        5.000000


          ...................................................
          :                      SETUP                      :
          :.................................................:
          :  # basis functions                 174          :
          :  # atomic orbitals                 173          :
          :  # shells                          101          :
          :  # electrons                       184          :
          :  max. iterations                   250          :
          :  Hamiltonian                  GFN2-xTB          :
          :  restarted?                      false          :
          :  GBSA solvation                  false          :
          :  PC potential                    false          :
          :  electronic temp.          300.0000000     K    :
          :  accuracy                    1.0000000          :
          :  -> integral cutoff          0.2500000E+02      :
          :  -> integral neglect         0.1000000E-07      :
          :  -> SCF convergence          0.1000000E-05 Eh   :
          :  -> wf. convergence          0.1000000E-03 e    :
          :  Broyden damping             0.4000000          :
          :  net charge                          0          :
          :  unpaired electrons                  0          :
          ...................................................

 iter      E             dE          RMSdq      gap      omega  full diag
   1   -103.6052456 -0.103605E+03  0.412E+00    2.35       0.0  T
   2   -103.8371754 -0.231930E+00  0.264E+00    1.63       1.0  T
   3   -103.8617058 -0.245304E-01  0.139E+00    2.03       1.0  T
   4   -103.8724303 -0.107245E-01  0.489E-01    1.47       1.0  T
   5   -103.8825776 -0.101473E-01  0.175E-01    1.55       1.0  T
   6   -103.8829639 -0.386265E-03  0.955E-02    1.55       1.0  T
   7   -103.8830598 -0.959396E-04  0.572E-02    1.59       1.0  T
   8   -103.8831461 -0.863052E-04  0.264E-02    1.60       1.0  T
   9   -103.8831524 -0.627966E-05  0.102E-02    1.60       1.2  T
  10   -103.8831553 -0.288905E-05  0.472E-03    1.60       2.6  T
  11   -103.8831556 -0.273781E-06  0.208E-03    1.60       5.9  T
  12   -103.8831556 -0.741689E-07  0.632E-04    1.60      19.5  T
  13   -103.8831557 -0.105204E-07  0.315E-04    1.60      39.1  T

   *** convergence criteria satisfied after 13 iterations ***

         #    Occupation            Energy/Eh            Energy/eV
      -------------------------------------------------------------
         1        2.0000           -0.7728926             -21.0315
       ...           ...                  ...                  ...
        86        2.0000           -0.4124337             -11.2229
        87        2.0000           -0.4086144             -11.1190
        88        2.0000           -0.3935016             -10.7077
        89        2.0000           -0.3883190             -10.5667
        90        2.0000           -0.3792227             -10.3192
        91        2.0000           -0.3726036             -10.1391
        92        2.0000           -0.3613341              -9.8324 (HOMO)
        93                         -0.3026737              -8.2362 (LUMO)
        94                         -0.2697400              -7.3400
        95                         -0.2532842              -6.8922
        96                         -0.2305896              -6.2747
        97                         -0.1921538              -5.2288
       ...                                ...                  ...
       173                          1.1508635              31.3166
      -------------------------------------------------------------
                  HL-Gap            0.0586605 Eh            1.5962 eV
             Fermi-level           -0.3320039 Eh           -9.0343 eV

 SCC (total)                   0 d,  0 h,  0 min,  0.255 sec
 SCC setup                      ...        0 min,  0.001 sec (  0.296%)
 Dispersion                     ...        0 min,  0.001 sec (  0.408%)
 classical contributions        ...        0 min,  0.000 sec (  0.134%)
 integral evaluation            ...        0 min,  0.036 sec ( 14.209%)
 iterations                     ...        0 min,  0.111 sec ( 43.604%)
 molecular gradient             ...        0 min,  0.105 sec ( 41.180%)
 printout                       ...        0 min,  0.000 sec (  0.166%)

         :::::::::::::::::::::::::::::::::::::::::::::::::::::
         ::                     SUMMARY                     ::
         :::::::::::::::::::::::::::::::::::::::::::::::::::::
         :: total energy            -102.654201625268 Eh    ::
         :: gradient norm              0.104428131918 Eh/a0 ::
         :: HOMO-LUMO gap              1.596232214300 eV    ::
         ::.................................................::
         :: SCC energy              -103.882531649553 Eh    ::
         :: -> isotropic ES            0.142879497103 Eh    ::
         :: -> anisotropic ES          0.008229878945 Eh    ::
         :: -> anisotropic XC          0.049795006514 Eh    ::
         :: -> dispersion             -0.075701500435 Eh    ::
         :: repulsion energy           1.228330024285 Eh    ::
         :: add. restraining           0.000000000000 Eh    ::
         :: total charge              -0.000000000000 e     ::
         :::::::::::::::::::::::::::::::::::::::::::::::::::::

      ----------------------------------------------------------- 
     |                   =====================                   |
     |                        A N C O P T                        |
     |                   =====================                   |
     |               Approximate Normal Coordinate               |
     |                Rational Function Optimizer                |
      ----------------------------------------------------------- 
      ----------------------------------------------------------- 
     |                   =====================                   |
     |                        A N C O P T                        |
     |                   =====================                   |
     |               Approximate Normal Coordinate               |
     |                Rational Function Optimizer                |
      ----------------------------------------------------------- 

          ...................................................
          :                      SETUP                      :
          :.................................................:
          :   optimization level            normal          :
          :   max. optcycles                   200          :
          :   ANC micro-cycles                  20          :
          :   degrees of freedom               192          :
          :.................................................:
          :   RF solver                   davidson          :
          :   write xtbopt.log                true          :
          :   linear?                        false          :
          :   energy convergence         0.5000000E-05 Eh   :
          :   grad. convergence          0.1000000E-02 Eh/α :
          :   maxmium RF displ.          1.0000000          :
          :   Hlow (freq-cutoff)         0.1000000E-01      :
          :   Hmax (freq-cutoff)         5.0000000          :
          :   S6 in model hess.         20.0000000          :
          ...................................................

generating ANC from exact Hessian ...
Using Lindh-Hessian (1995)
 Shifting diagonal of input Hessian by    9.9296661237423620E-003
 Lowest  eigenvalues of input Hessian
    0.000000    0.000000    0.000000    0.000000    0.000000    0.000000
    0.010000    0.010078    0.010133    0.010600    0.010726    0.011020
    0.011444    0.011480    0.011664    0.011976    0.012441    0.012702
 Highest eigenvalues
    2.085744    2.105217    2.318837    2.434942    2.521418    3.435992


........................................................................
.............................. CYCLE    1 ..............................
........................................................................

 iter      E             dE          RMSdq      gap      omega  full diag
   1   -103.8831557 -0.103883E+03  0.135E-04    1.60       0.0  T
   2   -103.8831557 -0.169578E-09  0.883E-05    1.60     139.5  T
   3   -103.8831557 -0.111029E-09  0.594E-05    1.60     207.3  T
     SCC iter.                  ...        0 min,  0.016 sec
     gradient                   ...        0 min,  0.092 sec
 * total energy  :  -102.6542016 Eh     change       -0.1689827E-08 Eh
   gradient norm :     0.1044256 Eh/α   predicted     0.0000000E+00 (-100.00%)
   displ. norm   :     0.3332911 α      lambda       -0.1931660E-01
   maximum displ.:     0.1563672 α      in ANC's #64, #49, #45, ...

........................................................................
.............................. CYCLE    2 ..............................
........................................................................

 iter      E             dE          RMSdq      gap      omega  full diag
   1   -103.9352343 -0.103935E+03  0.184E-01    1.64       0.0  T
   2   -103.9354923 -0.258009E-03  0.117E-01    1.69       1.0  T
   3   -103.9354999 -0.760966E-05  0.592E-02    1.68       1.0  T
   4   -103.9355619 -0.620168E-04  0.225E-02    1.69       1.0  T
   5   -103.9355832 -0.212709E-04  0.664E-03    1.69       1.9  T
   6   -103.9355832 -0.314563E-08  0.181E-03    1.69       6.8  T
   7   -103.9355833 -0.126641E-06  0.794E-04    1.68      15.5  T
   8   -103.9355833 -0.110384E-07  0.404E-04    1.69      30.5  T
     SCC iter.                  ...        0 min,  0.084 sec
     gradient                   ...        0 min,  0.111 sec
 * total energy  :  -102.6678066 Eh     change       -0.1360498E-01 Eh
   gradient norm :     0.0455267 Eh/α   predicted    -0.1073629E-01 ( -21.09%)
   displ. norm   :     0.3024833 α      lambda       -0.6602724E-02
   maximum displ.:     0.1044888 α      in ANC's #64, #45, #18, ...

........................................................................
.............................. CYCLE    3 ..............................
........................................................................

 iter      E             dE          RMSdq      gap      omega  full diag
   1   -103.9642193 -0.103964E+03  0.140E-01    1.66       0.0  T
   2   -103.9643777 -0.158389E-03  0.878E-02    1.70       1.0  T
   3   -103.9643863 -0.854523E-05  0.428E-02    1.70       1.0  T
   4   -103.9644196 -0.333708E-04  0.182E-02    1.71       1.0  T
   5   -103.9644322 -0.126145E-04  0.630E-03    1.70       2.0  T
   6   -103.9644322 -0.424552E-08  0.159E-03    1.71       7.8  T
   7   -103.9644324 -0.119346E-06  0.632E-04    1.70      19.5  T
   8   -103.9644324 -0.283927E-08  0.307E-04    1.71      40.1  T
     SCC iter.                  ...        0 min,  0.079 sec
     gradient                   ...        0 min,  0.094 sec
 * total energy  :  -102.6716464 Eh     change       -0.3839763E-02 Eh
   gradient norm :     0.0145271 Eh/α   predicted    -0.3604476E-02 (  -6.13%)
   displ. norm   :     0.1938955 α      lambda       -0.9557437E-03
   maximum displ.:     0.0724926 α      in ANC's #18, #19, #20, ...

........................................................................
.............................. CYCLE    4 ..............................
........................................................................

 iter      E             dE          RMSdq      gap      omega  full diag
   1   -103.9663592 -0.103966E+03  0.519E-02    1.69       0.0  T
   2   -103.9663782 -0.190218E-04  0.303E-02    1.70       1.0  T
   3   -103.9663779  0.280347E-06  0.154E-02    1.70       1.0  T
   4   -103.9663843 -0.637424E-05  0.461E-03    1.71       2.7  T
   5   -103.9663850 -0.756510E-06  0.219E-03    1.71       5.6  T
   6   -103.9663851 -0.565609E-07  0.772E-04    1.71      15.9  T
   7   -103.9663851 -0.253314E-07  0.221E-04    1.71      55.7  T
     SCC iter.                  ...        0 min,  0.080 sec
     gradient                   ...        0 min,  0.104 sec
 * total energy  :  -102.6723913 Eh     change       -0.7448831E-03 Eh
   gradient norm :     0.0123662 Eh/α   predicted    -0.4958417E-03 ( -33.43%)
   displ. norm   :     0.3310831 α      lambda       -0.1124307E-02
   maximum displ.:     0.1349380 α      in ANC's #18, #19, #13, ...

........................................................................
.............................. CYCLE    5 ..............................
........................................................................

 iter      E             dE          RMSdq      gap      omega  full diag
   1   -103.9656449 -0.103966E+03  0.788E-02    1.69       0.0  T
   2   -103.9657021 -0.571203E-04  0.454E-02    1.70       1.0  T
   3   -103.9657079 -0.588496E-05  0.250E-02    1.70       1.0  T
   4   -103.9657195 -0.115218E-04  0.611E-03    1.70       2.0  T
   5   -103.9657216 -0.213528E-05  0.262E-03    1.70       4.7  T
   6   -103.9657217 -0.981869E-07  0.100E-03    1.70      12.2  T
   7   -103.9657217 -0.381587E-07  0.260E-04    1.70      47.3  T
   8   -103.9657217 -0.409599E-09  0.152E-04    1.70      81.1  T
     SCC iter.                  ...        0 min,  0.078 sec
     gradient                   ...        0 min,  0.087 sec
 * total energy  :  -102.6731625 Eh     change       -0.7712200E-03 Eh
   gradient norm :     0.0105780 Eh/α   predicted    -0.6237799E-03 ( -19.12%)
   displ. norm   :     0.2600135 α      lambda       -0.5248999E-03
   maximum displ.:     0.1100560 α      in ANC's #18, #13, #8, ...

........................................................................
.............................. CYCLE    6 ..............................
........................................................................

 iter      E             dE          RMSdq      gap      omega  full diag
   1   -103.9659265 -0.103966E+03  0.578E-02    1.70       0.0  T
   2   -103.9659584 -0.318339E-04  0.332E-02    1.70       1.0  T
   3   -103.9659623 -0.392612E-05  0.187E-02    1.70       1.0  T
   4   -103.9659683 -0.601429E-05  0.474E-03    1.70       2.6  T
   5   -103.9659696 -0.128597E-05  0.161E-03    1.70       7.6  T
   6   -103.9659696 -0.367148E-07  0.788E-04    1.70      15.6  T
   7   -103.9659697 -0.156878E-07  0.208E-04    1.70      59.1  T
     SCC iter.                  ...        0 min,  0.034 sec
     gradient                   ...        0 min,  0.086 sec
 * total energy  :  -102.6735465 Eh     change       -0.3840287E-03 Eh
   gradient norm :     0.0093771 Eh/α   predicted    -0.2802032E-03 ( -27.04%)
   displ. norm   :     0.2609474 α      lambda       -0.4075759E-03
   maximum displ.:     0.1038935 α      in ANC's #18, #13, #4, ...

........................................................................
.............................. CYCLE    7 ..............................
........................................................................

 iter      E             dE          RMSdq      gap      omega  full diag
   1   -103.9676397 -0.103968E+03  0.575E-02    1.71       0.0  T
   2   -103.9676612 -0.214629E-04  0.330E-02    1.70       1.0  T
   3   -103.9676603  0.928158E-06  0.181E-02    1.71       1.0  T
   4   -103.9676687 -0.844381E-05  0.434E-03    1.70       2.8  T
   5   -103.9676696 -0.865228E-06  0.161E-03    1.70       7.6  T
   6   -103.9676696 -0.318494E-07  0.757E-04    1.70      16.3  T
   7   -103.9676696 -0.174011E-07  0.213E-04    1.70      57.7  T
     SCC iter.                  ...        0 min,  0.068 sec
     gradient                   ...        0 min,  0.103 sec
 * total energy  :  -102.6738404 Eh     change       -0.2939449E-03 Eh
   gradient norm :     0.0069236 Eh/α   predicted    -0.2177728E-03 ( -25.91%)
   displ. norm   :     0.2407264 α      lambda       -0.2631118E-03
   maximum displ.:     0.0874579 α      in ANC's #13, #18, #7, ...

........................................................................
.............................. CYCLE    8 ..............................
........................................................................

 iter      E             dE          RMSdq      gap      omega  full diag
   1   -103.9694161 -0.103969E+03  0.517E-02    1.71       0.0  T
   2   -103.9694243 -0.824907E-05  0.296E-02    1.71       1.0  T
   3   -103.9694190  0.533502E-05  0.145E-02    1.71       1.0  T
   4   -103.9694278 -0.881133E-05  0.288E-03    1.71       4.3  T
   5   -103.9694281 -0.270137E-06  0.128E-03    1.71       9.6  T
   6   -103.9694281 -0.271621E-07  0.513E-04    1.71      24.0  T
   7   -103.9694281 -0.913610E-08  0.162E-04    1.71      75.9  T
     SCC iter.                  ...        0 min,  0.062 sec
     gradient                   ...        0 min,  0.059 sec
 * total energy  :  -102.6740290 Eh     change       -0.1885788E-03 Eh
   gradient norm :     0.0049078 Eh/α   predicted    -0.1391799E-03 ( -26.20%)
   displ. norm   :     0.2208788 α      lambda       -0.1652220E-03
   maximum displ.:     0.0815500 α      in ANC's #13, #7, #9, ...

........................................................................
.............................. CYCLE    9 ..............................
........................................................................

 iter      E             dE          RMSdq      gap      omega  full diag
   1   -103.9704357 -0.103970E+03  0.463E-02    1.71       0.0  T
   2   -103.9704386 -0.295087E-05  0.267E-02    1.71       1.0  T
   3   -103.9704350  0.358985E-05  0.945E-03    1.71       1.3  T
   4   -103.9704399 -0.485965E-05  0.180E-03    1.71       6.8  T
   5   -103.9704399 -0.610535E-07  0.928E-04    1.71      13.3  T
   6   -103.9704400 -0.230515E-07  0.332E-04    1.71      37.0  T
     SCC iter.                  ...        0 min,  0.030 sec
     gradient                   ...        0 min,  0.098 sec
 * total energy  :  -102.6741481 Eh     change       -0.1190679E-03 Eh
   gradient norm :     0.0039324 Eh/α   predicted    -0.8669541E-04 ( -27.19%)
   displ. norm   :     0.2089546 α      lambda       -0.1145174E-03
   maximum displ.:     0.0831744 α      in ANC's #7, #9, #4, ...

........................................................................
.............................. CYCLE   10 ..............................
........................................................................

 iter      E             dE          RMSdq      gap      omega  full diag
   1   -103.9707524 -0.103971E+03  0.441E-02    1.71       0.0  T
   2   -103.9707540 -0.158121E-05  0.255E-02    1.71       1.0  T
   3   -103.9707528  0.119322E-05  0.581E-03    1.71       2.1  T
   4   -103.9707546 -0.173006E-05  0.152E-03    1.71       8.1  T
   5   -103.9707546 -0.463529E-07  0.684E-04    1.71      18.0  T
   6   -103.9707546 -0.813137E-08  0.259E-04    1.71      47.5  T
     SCC iter.                  ...        0 min,  0.069 sec
     gradient                   ...        0 min,  0.092 sec
 * total energy  :  -102.6742316 Eh     change       -0.8351123E-04 Eh
   gradient norm :     0.0036592 Eh/α   predicted    -0.5987088E-04 ( -28.31%)
   displ. norm   :     0.1945710 α      lambda       -0.8843402E-04
   maximum displ.:     0.0827287 α      in ANC's #7, #9, #4, ...

........................................................................
.............................. CYCLE   11 ..............................
........................................................................

 iter      E             dE          RMSdq      gap      omega  full diag
   1   -103.9708369 -0.103971E+03  0.424E-02    1.70       0.0  T
   2   -103.9708379 -0.996471E-06  0.245E-02    1.70       1.0  T
   3   -103.9708373  0.578047E-06  0.426E-03    1.70       2.9  T
   4   -103.9708382 -0.844834E-06  0.156E-03    1.70       7.9  T
   5   -103.9708382 -0.705456E-07  0.627E-04    1.70      19.6  T
   6   -103.9708382 -0.705592E-08  0.227E-04    1.70      54.3  T
     SCC iter.                  ...        0 min,  0.030 sec
     gradient                   ...        0 min,  0.059 sec
 * total energy  :  -102.6742954 Eh     change       -0.6375007E-04 Eh
   gradient norm :     0.0033123 Eh/α   predicted    -0.4589191E-04 ( -28.01%)
   displ. norm   :     0.1751767 α      lambda       -0.6530801E-04
   maximum displ.:     0.0777472 α      in ANC's #7, #4, #9, ...

........................................................................
.............................. CYCLE   12 ..............................
........................................................................

 iter      E             dE          RMSdq      gap      omega  full diag
   1   -103.9704610 -0.103970E+03  0.389E-02    1.70       0.0  T
   2   -103.9704617 -0.769939E-06  0.226E-02    1.70       1.0  T
   3   -103.9704611  0.689367E-06  0.412E-03    1.70       3.0  T
   4   -103.9704620 -0.903682E-06  0.133E-03    1.70       9.3  T
   5   -103.9704620 -0.614758E-07  0.557E-04    1.70      22.1  T
   6   -103.9704620 -0.516889E-08  0.193E-04    1.70      63.8  T
     SCC iter.                  ...        0 min,  0.030 sec
     gradient                   ...        0 min,  0.092 sec
 * total energy  :  -102.6743420 Eh     change       -0.4665070E-04 Eh
   gradient norm :     0.0027351 Eh/α   predicted    -0.3365751E-04 ( -27.85%)
   displ. norm   :     0.1449238 α      lambda       -0.5222473E-04
   maximum displ.:     0.0649971 α      in ANC's #7, #4, #9, ...

........................................................................
.............................. CYCLE   13 ..............................
........................................................................

 iter      E             dE          RMSdq      gap      omega  full diag
   1   -103.9709358 -0.103971E+03  0.324E-02    1.70       0.0  T
   2   -103.9709364 -0.538295E-06  0.188E-02    1.70       1.0  T
   3   -103.9709358  0.621649E-06  0.356E-03    1.70       3.5  T
   4   -103.9709365 -0.739382E-06  0.112E-03    1.70      11.0  T
   5   -103.9709366 -0.666698E-07  0.414E-04    1.70      29.7  T
   6   -103.9709366 -0.223211E-08  0.160E-04    1.70      76.8  T
     SCC iter.                  ...        0 min,  0.069 sec
     gradient                   ...        0 min,  0.102 sec
 * total energy  :  -102.6743754 Eh     change       -0.3338338E-04 Eh
   gradient norm :     0.0031460 Eh/α   predicted    -0.2666165E-04 ( -20.13%)
   displ. norm   :     0.1451255 α      lambda       -0.4219725E-04
   maximum displ.:     0.0675607 α      in ANC's #7, #4, #9, ...

........................................................................
.............................. CYCLE   14 ..............................
........................................................................

 iter      E             dE          RMSdq      gap      omega  full diag
   1   -103.9698816 -0.103970E+03  0.312E-02    1.70       0.0  T
   2   -103.9698823 -0.659738E-06  0.181E-02    1.70       1.0  T
   3   -103.9698815  0.758309E-06  0.404E-03    1.70       3.0  T
   4   -103.9698825 -0.963941E-06  0.101E-03    1.70      12.2  T
   5   -103.9698825 -0.290960E-07  0.427E-04    1.70      28.8  T
   6   -103.9698825 -0.502817E-08  0.165E-04    1.70      74.7  T
     SCC iter.                  ...        0 min,  0.030 sec
     gradient                   ...        0 min,  0.087 sec
 * total energy  :  -102.6743985 Eh     change       -0.2313740E-04 Eh
   gradient norm :     0.0027476 Eh/α   predicted    -0.2154557E-04 (  -6.88%)
   displ. norm   :     0.0693012 α      lambda       -0.2664432E-04
   maximum displ.:     0.0280629 α      in ANC's #7, #18, #4, ...

........................................................................
.............................. CYCLE   15 ..............................
........................................................................

 iter      E             dE          RMSdq      gap      omega  full diag
   1   -103.9706614 -0.103971E+03  0.131E-02    1.71       0.0  T
   2   -103.9706615 -0.138700E-06  0.751E-03    1.71       1.6  T
   3   -103.9706614  0.107966E-06  0.169E-03    1.71       7.3  T
   4   -103.9706615 -0.136349E-06  0.733E-04    1.71      16.8  T
   5   -103.9706615 -0.141704E-07  0.190E-04    1.71      64.7  T
     SCC iter.                  ...        0 min,  0.052 sec
     gradient                   ...        0 min,  0.095 sec
 * total energy  :  -102.6744177 Eh     change       -0.1917715E-04 Eh
   gradient norm :     0.0020785 Eh/α   predicted    -0.1338762E-04 ( -30.19%)
   displ. norm   :     0.0849165 α      lambda       -0.2397881E-04
   maximum displ.:     0.0400565 α      in ANC's #7, #4, #9, ...

........................................................................
.............................. CYCLE   16 ..............................
........................................................................

 iter      E             dE          RMSdq      gap      omega  full diag
   1   -103.9708506 -0.103971E+03  0.155E-02    1.71       0.0  T
   2   -103.9708508 -0.208015E-06  0.892E-03    1.71       1.4  T
   3   -103.9708505  0.308773E-06  0.257E-03    1.71       4.8  T
   4   -103.9708508 -0.364897E-06  0.872E-04    1.71      14.1  T
   5   -103.9708509 -0.279167E-07  0.264E-04    1.71      46.6  T
     SCC iter.                  ...        0 min,  0.025 sec
     gradient                   ...        0 min,  0.098 sec
 * total energy  :  -102.6744341 Eh     change       -0.1643195E-04 Eh
   gradient norm :     0.0018292 Eh/α   predicted    -0.1207691E-04 ( -26.50%)
   displ. norm   :     0.1099934 α      lambda       -0.1417992E-04
   maximum displ.:     0.0556402 α      in ANC's #7, #4, #1, ...

........................................................................
.............................. CYCLE   17 ..............................
........................................................................

 iter      E             dE          RMSdq      gap      omega  full diag
   1   -103.9711650 -0.103971E+03  0.188E-02    1.71       0.0  T
   2   -103.9711654 -0.389737E-06  0.109E-02    1.71       1.1  T
   3   -103.9711651  0.303735E-06  0.285E-03    1.71       4.3  T
   4   -103.9711654 -0.356602E-06  0.960E-04    1.71      12.8  T
   5   -103.9711655 -0.492872E-07  0.332E-04    1.71      37.1  T
     SCC iter.                  ...        0 min,  0.025 sec
     gradient                   ...        0 min,  0.093 sec
 * total energy  :  -102.6744465 Eh     change       -0.1231734E-04 Eh
   gradient norm :     0.0018555 Eh/α   predicted    -0.7132369E-05 ( -42.09%)
   displ. norm   :     0.0856678 α      lambda       -0.1004687E-04
   maximum displ.:     0.0444393 α      in ANC's #7, #9, #1, ...

........................................................................
.............................. CYCLE   18 ..............................
........................................................................

 iter      E             dE          RMSdq      gap      omega  full diag
   1   -103.9706071 -0.103971E+03  0.152E-02    1.71       0.0  T
   2   -103.9706073 -0.168603E-06  0.883E-03    1.71       1.4  T
   3   -103.9706072  0.857369E-07  0.161E-03    1.71       7.6  T
   4   -103.9706073 -0.121851E-06  0.587E-04    1.71      21.0  T
   5   -103.9706073 -0.107765E-07  0.234E-04    1.71      52.7  T
     SCC iter.                  ...        0 min,  0.025 sec
     gradient                   ...        0 min,  0.086 sec
 * total energy  :  -102.6744571 Eh     change       -0.1062604E-04 Eh
   gradient norm :     0.0016910 Eh/α   predicted    -0.5040263E-05 ( -52.57%)
   displ. norm   :     0.1428463 α      lambda       -0.1624528E-04
   maximum displ.:     0.0723607 α      in ANC's #7, #1, #9, ...

........................................................................
.............................. CYCLE   19 ..............................
........................................................................

 iter      E             dE          RMSdq      gap      omega  full diag
   1   -103.9704760 -0.103970E+03  0.245E-02    1.70       0.0  T
   2   -103.9704763 -0.306697E-06  0.143E-02    1.70       1.0  T
   3   -103.9704760  0.274811E-06  0.253E-03    1.70       4.9  T
   4   -103.9704764 -0.360267E-06  0.106E-03    1.70      11.6  T
   5   -103.9704764 -0.303650E-07  0.349E-04    1.70      35.3  T
   6   -103.9704764 -0.342207E-08  0.130E-04    1.70      94.8  T
     SCC iter.                  ...        0 min,  0.030 sec
     gradient                   ...        0 min,  0.097 sec
 * total energy  :  -102.6744722 Eh     change       -0.1511653E-04 Eh
   gradient norm :     0.0016998 Eh/α   predicted    -0.8199213E-05 ( -45.76%)
   displ. norm   :     0.1232416 α      lambda       -0.1061193E-04
   maximum displ.:     0.0579056 α      in ANC's #7, #1, #20, ...

........................................................................
.............................. CYCLE   20 ..............................
........................................................................

 iter      E             dE          RMSdq      gap      omega  full diag
   1   -103.9702919 -0.103970E+03  0.196E-02    1.70       0.0  T
   2   -103.9702921 -0.191426E-06  0.115E-02    1.70       1.1  T
   3   -103.9702919  0.184399E-06  0.196E-03    1.70       6.3  T
   4   -103.9702922 -0.247854E-06  0.647E-04    1.70      19.0  T
   5   -103.9702922 -0.115731E-07  0.291E-04    1.70      42.3  T
     SCC iter.                  ...        0 min,  0.064 sec
     gradient                   ...        0 min,  0.092 sec
 * total energy  :  -102.6744846 Eh     change       -0.1235402E-04 Eh
   gradient norm :     0.0015064 Eh/α   predicted    -0.5344087E-05 ( -56.74%)
   displ. norm   :     0.1770678 α      lambda       -0.1561258E-04
   maximum displ.:     0.0785127 α      in ANC's #1, #7, #20, ...
 * RMSD in coord.:     0.3237539 α      energy gain  -0.2028293E-01 Eh

generating ANC from exact Hessian ...
Using Lindh-Hessian (1995)
 Shifting diagonal of input Hessian by    9.9216022835872594E-003
 Lowest  eigenvalues of input Hessian
    0.000000    0.000000    0.000000    0.000000    0.000000    0.000000
    0.010000    0.010080    0.010143    0.010540    0.010821    0.011060
    0.011419    0.011506    0.011753    0.012203    0.012579    0.012836
 Highest eigenvalues
    2.098195    2.202650    2.357552    2.435016    2.716447    3.587199


........................................................................
.............................. CYCLE   21 ..............................
........................................................................

 iter      E             dE          RMSdq      gap      omega  full diag
   1   -103.9701870 -0.103970E+03  0.274E-02    1.70       0.0  T
   2   -103.9701875 -0.477077E-06  0.162E-02    1.70       1.0  T
   3   -103.9701873  0.204977E-06  0.244E-03    1.70       5.0  T
   4   -103.9701876 -0.313068E-06  0.908E-04    1.70      13.6  T
   5   -103.9701876 -0.290450E-07  0.414E-04    1.70      29.8  T
     SCC iter.                  ...        0 min,  0.025 sec
     gradient                   ...        0 min,  0.059 sec
 * total energy  :  -102.6745003 Eh     change       -0.1578164E-04 Eh
   gradient norm :     0.0014830 Eh/α   predicted     0.0000000E+00 (-100.00%)
   displ. norm   :     0.0213155 α      lambda       -0.4744201E-05
   maximum displ.:     0.0078371 α      in ANC's #1, #20, #19, ...

........................................................................
.............................. CYCLE   22 ..............................
........................................................................

 iter      E             dE          RMSdq      gap      omega  full diag
   1   -103.9708790 -0.103971E+03  0.549E-03    1.70       0.0  T
   2   -103.9708791 -0.107334E-06  0.324E-03    1.70       3.8  T
   3   -103.9708790  0.388206E-07  0.115E-03    1.70      10.7  T
   4   -103.9708791 -0.480168E-07  0.396E-04    1.70      31.1  T
   5   -103.9708791 -0.739007E-08  0.124E-04    1.70      99.2  T
     SCC iter.                  ...        0 min,  0.063 sec
     gradient                   ...        0 min,  0.085 sec
 * total energy  :  -102.6745069 Eh     change       -0.6531508E-05 Eh
   gradient norm :     0.0006160 Eh/α   predicted    -0.3146648E-05 ( -51.82%)
   displ. norm   :     0.0547013 α      lambda       -0.8892914E-05
   maximum displ.:     0.0210221 α      in ANC's #1, #19, #20, ...

........................................................................
.............................. CYCLE   23 ..............................
........................................................................

 iter      E             dE          RMSdq      gap      omega  full diag
   1   -103.9713821 -0.103971E+03  0.102E-02    1.70       0.0  T
   2   -103.9713823 -0.181628E-06  0.595E-03    1.70       2.1  T
   3   -103.9713822  0.109949E-06  0.180E-03    1.70       6.8  T
   4   -103.9713823 -0.135061E-06  0.600E-04    1.70      20.5  T
   5   -103.9713824 -0.134672E-07  0.215E-04    1.70      57.3  T
     SCC iter.                  ...        0 min,  0.025 sec
     gradient                   ...        0 min,  0.098 sec
 * total energy  :  -102.6745157 Eh     change       -0.8875318E-05 Eh
   gradient norm :     0.0014054 Eh/α   predicted    -0.4454783E-05 ( -49.81%)
   displ. norm   :     0.0836929 α      lambda       -0.9182977E-05
   maximum displ.:     0.0342855 α      in ANC's #19, #1, #21, ...

........................................................................
.............................. CYCLE   24 ..............................
........................................................................

 iter      E             dE          RMSdq      gap      omega  full diag
   1   -103.9709788 -0.103971E+03  0.128E-02    1.70       0.0  T
   2   -103.9709789 -0.803992E-07  0.758E-03    1.70       1.6  T
   3   -103.9709787  0.112948E-06  0.156E-03    1.70       7.9  T
   4   -103.9709789 -0.138850E-06  0.523E-04    1.70      23.5  T
   5   -103.9709789 -0.699232E-08  0.195E-04    1.70      63.0  T
     SCC iter.                  ...        0 min,  0.025 sec
     gradient                   ...        0 min,  0.103 sec
 * total energy  :  -102.6745255 Eh     change       -0.9739557E-05 Eh
   gradient norm :     0.0015738 Eh/α   predicted    -0.4609687E-05 ( -52.67%)
   displ. norm   :     0.1213592 α      lambda       -0.1072034E-04
   maximum displ.:     0.0562070 α      in ANC's #19, #1, #21, ...

........................................................................
.............................. CYCLE   25 ..............................
........................................................................

 iter      E             dE          RMSdq      gap      omega  full diag
   1   -103.9705355 -0.103971E+03  0.170E-02    1.70       0.0  T
   2   -103.9705356 -0.115190E-06  0.101E-02    1.70       1.2  T
   3   -103.9705355  0.467081E-07  0.125E-03    1.70       9.8  T
   4   -103.9705356 -0.704842E-07  0.527E-04    1.70      23.4  T
   5   -103.9705356 -0.101394E-07  0.213E-04    1.70      57.9  T
     SCC iter.                  ...        0 min,  0.026 sec
     gradient                   ...        0 min,  0.106 sec
 * total energy  :  -102.6745374 Eh     change       -0.1192187E-04 Eh
   gradient norm :     0.0015712 Eh/α   predicted    -0.5396019E-05 ( -54.74%)
   displ. norm   :     0.1515429 α      lambda       -0.1352536E-04
   maximum displ.:     0.0769032 α      in ANC's #19, #1, #21, ...

........................................................................
.............................. CYCLE   26 ..............................
........................................................................

 iter      E             dE          RMSdq      gap      omega  full diag
   1   -103.9699338 -0.103970E+03  0.209E-02    1.70       0.0  T
   2   -103.9699341 -0.280044E-06  0.125E-02    1.70       1.0  T
   3   -103.9699339  0.198296E-06  0.219E-03    1.70       5.6  T
   4   -103.9699342 -0.240798E-06  0.708E-04    1.70      17.4  T
   5   -103.9699342 -0.213699E-07  0.275E-04    1.70      44.8  T
     SCC iter.                  ...        0 min,  0.072 sec
     gradient                   ...        0 min,  0.101 sec
 * total energy  :  -102.6745513 Eh     change       -0.1393276E-04 Eh
   gradient norm :     0.0022499 Eh/α   predicted    -0.6832642E-05 ( -50.96%)
   displ. norm   :     0.0759815 α      lambda       -0.1573165E-04
   maximum displ.:     0.0410332 α      in ANC's #19, #1, #4, ...

........................................................................
.............................. CYCLE   27 ..............................
........................................................................

 iter      E             dE          RMSdq      gap      omega  full diag
   1   -103.9699444 -0.103970E+03  0.111E-02    1.69       0.0  T
   2   -103.9699445 -0.127525E-06  0.653E-03    1.69       1.9  T
   3   -103.9699444  0.114224E-06  0.168E-03    1.69       7.3  T
   4   -103.9699445 -0.135511E-06  0.496E-04    1.69      24.8  T
   5   -103.9699446 -0.101013E-07  0.174E-04    1.69      70.9  T
     SCC iter.                  ...        0 min,  0.076 sec
     gradient                   ...        0 min,  0.104 sec
 * total energy  :  -102.6745646 Eh     change       -0.1328650E-04 Eh
   gradient norm :     0.0023814 Eh/α   predicted    -0.7918417E-05 ( -40.40%)
   displ. norm   :     0.1836178 α      lambda       -0.3621552E-04
   maximum displ.:     0.1024520 α      in ANC's #19, #1, #4, ...

........................................................................
.............................. CYCLE   28 ..............................
........................................................................

 iter      E             dE          RMSdq      gap      omega  full diag
   1   -103.9698765 -0.103970E+03  0.259E-02    1.69       0.0  T
   2   -103.9698770 -0.438149E-06  0.152E-02    1.69       1.0  T
   3   -103.9698764  0.549004E-06  0.349E-03    1.69       3.5  T
   4   -103.9698771 -0.651672E-06  0.106E-03    1.69      11.7  T
   5   -103.9698771 -0.402246E-07  0.384E-04    1.69      32.0  T
   6   -103.9698771 -0.143740E-08  0.151E-04    1.69      81.6  T
     SCC iter.                  ...        0 min,  0.078 sec
     gradient                   ...        0 min,  0.104 sec
 * total energy  :  -102.6745900 Eh     change       -0.2537477E-04 Eh
   gradient norm :     0.0034561 Eh/α   predicted    -0.1872222E-04 ( -26.22%)
   displ. norm   :     0.1202999 α      lambda       -0.3230802E-04
   maximum displ.:     0.0649504 α      in ANC's #19, #1, #25, ...

........................................................................
.............................. CYCLE   29 ..............................
........................................................................

 iter      E             dE          RMSdq      gap      omega  full diag
   1   -103.9704930 -0.103970E+03  0.176E-02    1.69       0.0  T
   2   -103.9704932 -0.280933E-06  0.102E-02    1.69       1.2  T
   3   -103.9704930  0.267270E-06  0.258E-03    1.69       4.8  T
   4   -103.9704933 -0.322571E-06  0.885E-04    1.69      13.9  T
   5   -103.9704933 -0.296232E-07  0.301E-04    1.69      40.9  T
     SCC iter.                  ...        0 min,  0.071 sec
     gradient                   ...        0 min,  0.103 sec
 * total energy  :  -102.6746124 Eh     change       -0.2236869E-04 Eh
   gradient norm :     0.0031947 Eh/α   predicted    -0.1638968E-04 ( -26.73%)
   displ. norm   :     0.3096868 α      lambda       -0.4569372E-04
   maximum displ.:     0.1768984 α      in ANC's #19, #1, #4, ...

........................................................................
.............................. CYCLE   30 ..............................
........................................................................

 iter      E             dE          RMSdq      gap      omega  full diag
   1   -103.9686220 -0.103969E+03  0.412E-02    1.69       0.0  T
   2   -103.9686233 -0.127534E-05  0.242E-02    1.69       1.0  T
   3   -103.9686231  0.227177E-06  0.339E-03    1.69       3.6  T
   4   -103.9686234 -0.374084E-06  0.148E-03    1.69       8.3  T
   5   -103.9686235 -0.893944E-07  0.591E-04    1.69      20.8  T
   6   -103.9686235 -0.274444E-08  0.209E-04    1.69      58.8  T
     SCC iter.                  ...        0 min,  0.069 sec
     gradient                   ...        0 min,  0.105 sec
 * total energy  :  -102.6746061 Eh     change        0.6292435E-05 Eh
   gradient norm :     0.0069721 Eh/α   predicted    -0.2507632E-04 (-498.52%)
   displ. norm   :     0.1059724 α      lambda       -0.1123322E-03
   maximum displ.:     0.0533819 α      in ANC's #19, #1, #9, ...

........................................................................
.............................. CYCLE   31 ..............................
........................................................................

 iter      E             dE          RMSdq      gap      omega  full diag
   1   -103.9709479 -0.103971E+03  0.209E-02    1.69       0.0  T
   2   -103.9709494 -0.150477E-05  0.119E-02    1.69       1.0  T
   3   -103.9709492  0.188302E-06  0.367E-03    1.69       3.4  T
   4   -103.9709494 -0.238873E-06  0.137E-03    1.69       9.0  T
   5   -103.9709495 -0.979265E-07  0.454E-04    1.69      27.1  T
   6   -103.9709495 -0.986574E-09  0.162E-04    1.69      76.2  T
     SCC iter.                  ...        0 min,  0.081 sec
     gradient                   ...        0 min,  0.113 sec
 * total energy  :  -102.6746586 Eh     change       -0.5248075E-04 Eh
   gradient norm :     0.0015932 Eh/α   predicted    -0.5679835E-04 (   8.23%)
   displ. norm   :     0.1739642 α      lambda       -0.2598143E-04
   maximum displ.:     0.0976518 α      in ANC's #19, #1, #4, ...

........................................................................
.............................. CYCLE   32 ..............................
........................................................................

 iter      E             dE          RMSdq      gap      omega  full diag
   1   -103.9707700 -0.103971E+03  0.208E-02    1.69       0.0  T
   2   -103.9707703 -0.280513E-06  0.124E-02    1.69       1.0  T
   3   -103.9707700  0.250678E-06  0.237E-03    1.69       5.2  T
   4   -103.9707703 -0.301226E-06  0.750E-04    1.69      16.4  T
   5   -103.9707703 -0.231923E-07  0.292E-04    1.69      42.1  T
     SCC iter.                  ...        0 min,  0.077 sec
     gradient                   ...        0 min,  0.111 sec
 * total energy  :  -102.6746915 Eh     change       -0.3291228E-04 Eh
   gradient norm :     0.0018156 Eh/α   predicted    -0.1316607E-04 ( -60.00%)
   displ. norm   :     0.4442227 α      lambda       -0.5442054E-04
   maximum displ.:     0.2518867 α      in ANC's #1, #19, #4, ...

........................................................................
.............................. CYCLE   33 ..............................
........................................................................

 iter      E             dE          RMSdq      gap      omega  full diag
   1   -103.9675296 -0.103968E+03  0.525E-02    1.70       0.0  T
   2   -103.9675321 -0.245215E-05  0.311E-02    1.70       1.0  T
   3   -103.9675318  0.274542E-06  0.429E-03    1.70       2.9  T
   4   -103.9675324 -0.575399E-06  0.192E-03    1.70       6.4  T
   5   -103.9675325 -0.130236E-06  0.839E-04    1.70      14.7  T
   6   -103.9675325 -0.713980E-08  0.247E-04    1.70      49.8  T
     SCC iter.                  ...        0 min,  0.076 sec
     gradient                   ...        0 min,  0.112 sec
 * total energy  :  -102.6746459 Eh     change        0.4552470E-04 Eh
   gradient norm :     0.0098025 Eh/α   predicted    -0.2959812E-04 (-165.02%)
   displ. norm   :     0.1655315 α      lambda       -0.1780513E-03
   maximum displ.:     0.0945842 α      in ANC's #19, #1, #4, ...

........................................................................
.............................. CYCLE   34 ..............................
........................................................................

 iter      E             dE          RMSdq      gap      omega  full diag
   1   -103.9702009 -0.103970E+03  0.254E-02    1.70       0.0  T
   2   -103.9702024 -0.147549E-05  0.146E-02    1.70       1.0  T
   3   -103.9702025 -0.544066E-07  0.288E-03    1.70       4.3  T
   4   -103.9702025 -0.468523E-07  0.951E-04    1.70      12.9  T
   5   -103.9702026 -0.274865E-07  0.499E-04    1.70      24.7  T
     SCC iter.                  ...        0 min,  0.025 sec
     gradient                   ...        0 min,  0.112 sec
 * total energy  :  -102.6747348 Eh     change       -0.8885935E-04 Eh
   gradient norm :     0.0034056 Eh/α   predicted    -0.9146125E-04 (   2.93%)
   displ. norm   :     0.0319949 α      lambda       -0.1423905E-04
   maximum displ.:     0.0201470 α      in ANC's #1, #19, #3, ...

........................................................................
.............................. CYCLE   35 ..............................
........................................................................

 iter      E             dE          RMSdq      gap      omega  full diag
   1   -103.9706307 -0.103971E+03  0.486E-03    1.70       0.0  T
   2   -103.9706308 -0.602208E-07  0.276E-03    1.70       4.5  T
   3   -103.9706308  0.135327E-07  0.884E-04    1.70      13.9  T
   4   -103.9706308 -0.172889E-07  0.323E-04    1.70      38.1  T
     SCC iter.                  ...        0 min,  0.020 sec
     gradient                   ...        0 min,  0.102 sec
 * total energy  :  -102.6747472 Eh     change       -0.1235517E-04 Eh
   gradient norm :     0.0023959 Eh/α   predicted    -0.7132315E-05 ( -42.27%)
   displ. norm   :     0.1692538 α      lambda       -0.4771469E-04
   maximum displ.:     0.1084151 α      in ANC's #1, #19, #3, ...

........................................................................
.............................. CYCLE   36 ..............................
........................................................................

 iter      E             dE          RMSdq      gap      omega  full diag
   1   -103.9713297 -0.103971E+03  0.211E-02    1.69       0.0  T
   2   -103.9713303 -0.567655E-06  0.123E-02    1.69       1.0  T
   3   -103.9713299  0.416264E-06  0.362E-03    1.69       3.4  T
   4   -103.9713303 -0.486805E-06  0.120E-03    1.69      10.3  T
   5   -103.9713304 -0.708789E-07  0.396E-04    1.69      31.1  T
   6   -103.9713304 -0.176098E-08  0.141E-04    1.69      87.4  T
     SCC iter.                  ...        0 min,  0.070 sec
     gradient                   ...        0 min,  0.105 sec
 * total energy  :  -102.6747828 Eh     change       -0.3568916E-04 Eh
   gradient norm :     0.0008400 Eh/α   predicted    -0.2455974E-04 ( -31.18%)
   displ. norm   :     0.5059307 α      lambda       -0.5593778E-04
   maximum displ.:     0.3232899 α      in ANC's #1, #19, #3, ...

........................................................................
.............................. CYCLE   37 ..............................
........................................................................

 iter      E             dE          RMSdq      gap      omega  full diag
   1   -103.9687825 -0.103969E+03  0.577E-02    1.68       0.0  T
   2   -103.9687855 -0.296301E-05  0.337E-02    1.68       1.0  T
   3   -103.9687839  0.155649E-05  0.729E-03    1.68       1.7  T
   4   -103.9687857 -0.184078E-05  0.278E-03    1.68       4.4  T
   5   -103.9687861 -0.378432E-06  0.102E-03    1.68      12.1  T
   6   -103.9687861 -0.119917E-07  0.320E-04    1.68      38.5  T
   7   -103.9687861 -0.301200E-08  0.134E-04    1.68      92.2  T
     SCC iter.                  ...        0 min,  0.084 sec
     gradient                   ...        0 min,  0.111 sec
 * total energy  :  -102.6747863 Eh     change       -0.3461006E-05 Eh
   gradient norm :     0.0073618 Eh/α   predicted    -0.3120645E-04 ( 801.66%)
   displ. norm   :     0.1670654 α      lambda       -0.9062824E-04
   maximum displ.:     0.1016789 α      in ANC's #1, #19, #3, ...

........................................................................
.............................. CYCLE   38 ..............................
........................................................................

 iter      E             dE          RMSdq      gap      omega  full diag
   1   -103.9706191 -0.103971E+03  0.215E-02    1.68       0.0  T
   2   -103.9706200 -0.890147E-06  0.125E-02    1.68       1.0  T
   3   -103.9706198  0.168806E-06  0.314E-03    1.68       3.9  T
   4   -103.9706200 -0.209911E-06  0.121E-03    1.68      10.2  T
   5   -103.9706201 -0.752492E-07  0.430E-04    1.68      28.6  T
   6   -103.9706201 -0.172810E-08  0.131E-04    1.68      94.1  T
     SCC iter.                  ...        0 min,  0.065 sec
     gradient                   ...        0 min,  0.095 sec
 * total energy  :  -102.6748283 Eh     change       -0.4201388E-04 Eh
   gradient norm :     0.0026272 Eh/α   predicted    -0.4643218E-04 (  10.52%)
   displ. norm   :     0.0559391 α      lambda       -0.1327110E-04
   maximum displ.:     0.0385465 α      in ANC's #1, #19, #8, ...

........................................................................
.............................. CYCLE   39 ..............................
........................................................................

 iter      E             dE          RMSdq      gap      omega  full diag
   1   -103.9707373 -0.103971E+03  0.644E-03    1.68       0.0  T
   2   -103.9707374 -0.544157E-07  0.380E-03    1.69       3.2  T
   3   -103.9707373  0.521673E-07  0.113E-03    1.69      10.9  T
   4   -103.9707374 -0.618557E-07  0.302E-04    1.69      40.8  T
   5   -103.9707374 -0.362030E-08  0.108E-04    1.69     114.0  T
     SCC iter.                  ...        0 min,  0.025 sec
     gradient                   ...        0 min,  0.088 sec
 * total energy  :  -102.6748403 Eh     change       -0.1200839E-04 Eh
   gradient norm :     0.0017934 Eh/α   predicted    -0.6694293E-05 ( -44.25%)
   displ. norm   :     0.4661093 α      lambda       -0.5340996E-04
   maximum displ.:     0.3222060 α      in ANC's #1, #19, #3, ...

........................................................................
.............................. CYCLE   40 ..............................
........................................................................

 iter      E             dE          RMSdq      gap      omega  full diag
   1   -103.9693096 -0.103969E+03  0.494E-02    1.69       0.0  T
   2   -103.9693111 -0.152794E-05  0.292E-02    1.69       1.0  T
   3   -103.9693092  0.194419E-05  0.654E-03    1.68       1.9  T
   4   -103.9693115 -0.236445E-05  0.194E-03    1.69       6.3  T
   5   -103.9693116 -0.114196E-06  0.732E-04    1.69      16.8  T
   6   -103.9693116 -0.473281E-08  0.252E-04    1.69      48.9  T
     SCC iter.                  ...        0 min,  0.069 sec
     gradient                   ...        0 min,  0.095 sec
 * total energy  :  -102.6748739 Eh     change       -0.3361179E-04 Eh
   gradient norm :     0.0043901 Eh/α   predicted    -0.3057530E-04 (  -9.03%)
   displ. norm   :     0.0625238 α      lambda       -0.2918082E-04
   maximum displ.:     0.0362620 α      in ANC's #19, #1, #4, ...

........................................................................
.............................. CYCLE   41 ..............................
........................................................................

 iter      E             dE          RMSdq      gap      omega  full diag
   1   -103.9705934 -0.103971E+03  0.960E-03    1.68       0.0  T
   2   -103.9705936 -0.260415E-06  0.546E-03    1.68       2.3  T
   3   -103.9705936  0.323899E-08  0.135E-03    1.68       9.1  T
   4   -103.9705937 -0.210365E-07  0.525E-04    1.68      23.4  T
   5   -103.9705937 -0.973452E-08  0.213E-04    1.68      57.8  T
     SCC iter.                  ...        0 min,  0.064 sec
     gradient                   ...        0 min,  0.110 sec
 * total energy  :  -102.6748885 Eh     change       -0.1459805E-04 Eh
   gradient norm :     0.0021282 Eh/α   predicted    -0.1392024E-04 (  -4.64%)
   displ. norm   :     0.0685527 α      lambda       -0.2142580E-04
   maximum displ.:     0.0503358 α      in ANC's #1, #19, #8, ...

........................................................................
.............................. CYCLE   42 ..............................
........................................................................

 iter      E             dE          RMSdq      gap      omega  full diag
   1   -103.9708198 -0.103971E+03  0.726E-03    1.68       0.0  T
   2   -103.9708198 -0.661008E-07  0.422E-03    1.68       2.9  T
   3   -103.9708198  0.655263E-07  0.128E-03    1.68       9.6  T
   4   -103.9708198 -0.814456E-07  0.357E-04    1.68      34.5  T
   5   -103.9708198 -0.415001E-08  0.150E-04    1.68      82.3  T
     SCC iter.                  ...        0 min,  0.082 sec
     gradient                   ...        0 min,  0.118 sec
 * total energy  :  -102.6748980 Eh     change       -0.9481269E-05 Eh
   gradient norm :     0.0014240 Eh/α   predicted    -0.5336455E-05 ( -43.72%)
   displ. norm   :     0.1456410 α      lambda       -0.6272492E-04
   maximum displ.:     0.1076305 α      in ANC's #1, #19, #8, ...
 * RMSD in coord.:     0.2988160 α      energy gain  -0.4134666E-03 Eh

generating ANC from exact Hessian ...
Using Lindh-Hessian (1995)
 Shifting diagonal of input Hessian by    9.9226636123624107E-003
 Lowest  eigenvalues of input Hessian
    0.000000    0.000000    0.000000    0.000000    0.000000    0.000000
    0.010000    0.010079    0.010140    0.010552    0.010823    0.011058
    0.011420    0.011503    0.011757    0.012211    0.012600    0.012851
 Highest eigenvalues
    2.098238    2.202649    2.357311    2.435199    2.716018    3.585700


........................................................................
.............................. CYCLE   43 ..............................
........................................................................

 iter      E             dE          RMSdq      gap      omega  full diag
   1   -103.9709754 -0.103971E+03  0.156E-02    1.68       0.0  T
   2   -103.9709757 -0.290022E-06  0.907E-03    1.68       1.4  T
   3   -103.9709754  0.301167E-06  0.273E-03    1.68       4.5  T
   4   -103.9709758 -0.373223E-06  0.760E-04    1.68      16.2  T
   5   -103.9709758 -0.184970E-07  0.322E-04    1.68      38.2  T
     SCC iter.                  ...        0 min,  0.026 sec
     gradient                   ...        0 min,  0.150 sec
 * total energy  :  -102.6749128 Eh     change       -0.1477359E-04 Eh
   gradient norm :     0.0010633 Eh/α   predicted     0.0000000E+00 (-100.00%)
   displ. norm   :     0.0218026 α      lambda       -0.1137956E-05
   maximum displ.:     0.0083112 α      in ANC's #9, #19, #25, ...

........................................................................
.............................. CYCLE   44 ..............................
........................................................................

 iter      E             dE          RMSdq      gap      omega  full diag
   1   -103.9712691 -0.103971E+03  0.455E-03    1.68       0.0  T
   2   -103.9712692 -0.540922E-07  0.264E-03    1.68       4.7  T
   3   -103.9712691  0.306220E-07  0.926E-04    1.68      13.3  T
   4   -103.9712692 -0.367825E-07  0.280E-04    1.68      43.9  T
     SCC iter.                  ...        0 min,  0.020 sec
     gradient                   ...        0 min,  0.099 sec
 * total energy  :  -102.6749188 Eh     change       -0.6057878E-05 Eh
   gradient norm :     0.0004358 Eh/α   predicted    -0.2594957E-05 ( -57.16%)
   displ. norm   :     0.0728811 α      lambda       -0.1055965E-04
   maximum displ.:     0.0282277 α      in ANC's #9, #19, #25, ...

........................................................................
.............................. CYCLE   45 ..............................
........................................................................

 iter      E             dE          RMSdq      gap      omega  full diag
   1   -103.9714514 -0.103971E+03  0.125E-02    1.68       0.0  T
   2   -103.9714516 -0.128511E-06  0.734E-03    1.68       1.7  T
   3   -103.9714514  0.192135E-06  0.192E-03    1.68       6.4  T
   4   -103.9714516 -0.228650E-06  0.455E-04    1.68      27.1  T
   5   -103.9714516 -0.802342E-08  0.188E-04    1.68      65.6  T
     SCC iter.                  ...        0 min,  0.064 sec
     gradient                   ...        0 min,  0.103 sec
 * total energy  :  -102.6749309 Eh     change       -0.1204026E-04 Eh
   gradient norm :     0.0010512 Eh/α   predicted    -0.5293261E-05 ( -56.04%)
   displ. norm   :     0.1326241 α      lambda       -0.1339557E-04
   maximum displ.:     0.0552748 α      in ANC's #19, #9, #6, ...

........................................................................
.............................. CYCLE   46 ..............................
........................................................................

 iter      E             dE          RMSdq      gap      omega  full diag
   1   -103.9712385 -0.103971E+03  0.213E-02    1.68       0.0  T
   2   -103.9712387 -0.165306E-06  0.126E-02    1.68       1.0  T
   3   -103.9712385  0.217976E-06  0.204E-03    1.68       6.0  T
   4   -103.9712388 -0.281624E-06  0.578E-04    1.68      21.3  T
   5   -103.9712388 -0.792976E-08  0.262E-04    1.68      46.9  T
     SCC iter.                  ...        0 min,  0.064 sec
     gradient                   ...        0 min,  0.099 sec
 * total energy  :  -102.6749448 Eh     change       -0.1393855E-04 Eh
   gradient norm :     0.0013258 Eh/α   predicted    -0.6750293E-05 ( -51.57%)
   displ. norm   :     0.1332283 α      lambda       -0.9868198E-05
   maximum displ.:     0.0601715 α      in ANC's #19, #9, #6, ...

........................................................................
.............................. CYCLE   47 ..............................
........................................................................

 iter      E             dE          RMSdq      gap      omega  full diag
   1   -103.9709250 -0.103971E+03  0.203E-02    1.68       0.0  T
   2   -103.9709251 -0.143758E-06  0.120E-02    1.68       1.0  T
   3   -103.9709251  0.392641E-07  0.122E-03    1.68      10.1  T
   4   -103.9709252 -0.723200E-07  0.533E-04    1.68      23.1  T
   5   -103.9709252 -0.980880E-08  0.238E-04    1.68      51.8  T
     SCC iter.                  ...        0 min,  0.025 sec
     gradient                   ...        0 min,  0.099 sec
 * total energy  :  -102.6749535 Eh     change       -0.8677694E-05 Eh
   gradient norm :     0.0015552 Eh/α   predicted    -0.4975896E-05 ( -42.66%)
   displ. norm   :     0.0700791 α      lambda       -0.7801881E-05
   maximum displ.:     0.0340214 α      in ANC's #19, #6, #7, ...

........................................................................
.............................. CYCLE   48 ..............................
........................................................................

 iter      E             dE          RMSdq      gap      omega  full diag
   1   -103.9710058 -0.103971E+03  0.107E-02    1.67       0.0  T
   2   -103.9710060 -0.107970E-06  0.632E-03    1.67       1.9  T
   3   -103.9710058  0.148930E-06  0.177E-03    1.67       7.0  T
   4   -103.9710060 -0.171941E-06  0.469E-04    1.67      26.2  T
   5   -103.9710060 -0.107144E-07  0.154E-04    1.67      79.9  T
     SCC iter.                  ...        0 min,  0.059 sec
     gradient                   ...        0 min,  0.094 sec
 * total energy  :  -102.6749625 Eh     change       -0.8952275E-05 Eh
   gradient norm :     0.0014508 Eh/α   predicted    -0.3946392E-05 ( -55.92%)
   displ. norm   :     0.1046652 α      lambda       -0.1565999E-04
   maximum displ.:     0.0524618 α      in ANC's #19, #6, #7, ...

........................................................................
.............................. CYCLE   49 ..............................
........................................................................

 iter      E             dE          RMSdq      gap      omega  full diag
   1   -103.9713067 -0.103971E+03  0.159E-02    1.67       0.0  T
   2   -103.9713070 -0.344844E-06  0.927E-03    1.67       1.3  T
   3   -103.9713065  0.583350E-06  0.357E-03    1.67       3.5  T
   4   -103.9713072 -0.712877E-06  0.786E-04    1.67      15.7  T
   5   -103.9713072 -0.260189E-07  0.290E-04    1.67      42.5  T
     SCC iter.                  ...        0 min,  0.025 sec
     gradient                   ...        0 min,  0.086 sec
 * total energy  :  -102.6749763 Eh     change       -0.1386567E-04 Eh
   gradient norm :     0.0017044 Eh/α   predicted    -0.7868493E-05 ( -43.25%)
   displ. norm   :     0.0962275 α      lambda       -0.6831017E-05
   maximum displ.:     0.0536554 α      in ANC's #19, #7, #6, ...

........................................................................
.............................. CYCLE   50 ..............................
........................................................................

 iter      E             dE          RMSdq      gap      omega  full diag
   1   -103.9707026 -0.103971E+03  0.133E-02    1.67       0.0  T
   2   -103.9707026 -0.663887E-07  0.793E-03    1.67       1.6  T
   3   -103.9707026  0.442228E-07  0.100E-03    1.67      12.3  T
   4   -103.9707026 -0.635273E-07  0.348E-04    1.67      35.3  T
   5   -103.9707026 -0.394576E-08  0.170E-04    1.67      72.3  T
     SCC iter.                  ...        0 min,  0.047 sec
     gradient                   ...        0 min,  0.059 sec
 * total energy  :  -102.6749830 Eh     change       -0.6676094E-05 Eh
   gradient norm :     0.0020590 Eh/α   predicted    -0.3443150E-05 ( -48.43%)
   displ. norm   :     0.0541252 α      lambda       -0.1151577E-04
   maximum displ.:     0.0268388 α      in ANC's #19, #7, #1, ...

........................................................................
.............................. CYCLE   51 ..............................
........................................................................

 iter      E             dE          RMSdq      gap      omega  full diag
   1   -103.9708228 -0.103971E+03  0.867E-03    1.68       0.0  T
   2   -103.9708229 -0.918238E-07  0.513E-03    1.68       2.4  T
   3   -103.9708229  0.500621E-07  0.115E-03    1.68      10.7  T
   4   -103.9708229 -0.623688E-07  0.351E-04    1.68      35.1  T
   5   -103.9708229 -0.523879E-08  0.140E-04    1.68      88.0  T
     SCC iter.                  ...        0 min,  0.034 sec
     gradient                   ...        0 min,  0.059 sec
 * total energy  :  -102.6749905 Eh     change       -0.7485220E-05 Eh
   gradient norm :     0.0011791 Eh/α   predicted    -0.5781668E-05 ( -22.76%)
   displ. norm   :     0.1360929 α      lambda       -0.9219661E-05
   maximum displ.:     0.0786071 α      in ANC's #19, #7, #1, ...

........................................................................
.............................. CYCLE   52 ..............................
........................................................................

 iter      E             dE          RMSdq      gap      omega  full diag
   1   -103.9704397 -0.103970E+03  0.182E-02    1.68       0.0  T
   2   -103.9704398 -0.177358E-06  0.109E-02    1.68       1.1  T
   3   -103.9704397  0.158197E-06  0.190E-03    1.68       6.5  T
   4   -103.9704399 -0.202484E-06  0.600E-04    1.68      20.5  T
   5   -103.9704399 -0.106480E-07  0.264E-04    1.68      46.6  T
     SCC iter.                  ...        0 min,  0.028 sec
     gradient                   ...        0 min,  0.059 sec
 * total energy  :  -102.6749982 Eh     change       -0.7719843E-05 Eh
   gradient norm :     0.0016675 Eh/α   predicted    -0.4650534E-05 ( -39.76%)
   displ. norm   :     0.0363004 α      lambda       -0.6542719E-05
   maximum displ.:     0.0170480 α      in ANC's #19, #1, #3, ...

........................................................................
.............................. CYCLE   53 ..............................
........................................................................

 iter      E             dE          RMSdq      gap      omega  full diag
   1   -103.9709319 -0.103971E+03  0.585E-03    1.68       0.0  T
   2   -103.9709320 -0.105991E-06  0.338E-03    1.68       3.6  T
   3   -103.9709319  0.672508E-07  0.138E-03    1.68       8.9  T
   4   -103.9709320 -0.869269E-07  0.386E-04    1.68      31.9  T
   5   -103.9709320 -0.663786E-08  0.128E-04    1.68      96.0  T
     SCC iter.                  ...        0 min,  0.025 sec
     gradient                   ...        0 min,  0.088 sec
 * total energy  :  -102.6750046 Eh     change       -0.6353923E-05 Eh
   gradient norm :     0.0010974 Eh/α   predicted    -0.3275443E-05 ( -48.45%)
   displ. norm   :     0.1149706 α      lambda       -0.7141966E-05
   maximum displ.:     0.0663593 α      in ANC's #19, #1, #7, ...

........................................................................
.............................. CYCLE   54 ..............................
........................................................................

 iter      E             dE          RMSdq      gap      omega  full diag
   1   -103.9708199 -0.103971E+03  0.152E-02    1.68       0.0  T
   2   -103.9708200 -0.911221E-07  0.901E-03    1.68       1.4  T
   3   -103.9708199  0.963111E-07  0.136E-03    1.68       9.0  T
   4   -103.9708200 -0.126437E-06  0.434E-04    1.68      28.4  T
   5   -103.9708200 -0.604943E-08  0.203E-04    1.68      60.6  T
     SCC iter.                  ...        0 min,  0.025 sec
     gradient                   ...        0 min,  0.085 sec
 * total energy  :  -102.6750111 Eh     change       -0.6557287E-05 Eh
   gradient norm :     0.0013198 Eh/α   predicted    -0.3593532E-05 ( -45.20%)
   displ. norm   :     0.0589993 α      lambda       -0.4733366E-05
   maximum displ.:     0.0322627 α      in ANC's #19, #1, #3, ...

........................................................................
.............................. CYCLE   55 ..............................
........................................................................

 iter      E             dE          RMSdq      gap      omega  full diag
   1   -103.9710964 -0.103971E+03  0.829E-03    1.68       0.0  T
   2   -103.9710965 -0.590594E-07  0.490E-03    1.68       2.5  T
   3   -103.9710965  0.331705E-07  0.105E-03    1.68      11.8  T
   4   -103.9710965 -0.388458E-07  0.386E-04    1.68      31.8  T
   5   -103.9710965 -0.718565E-08  0.129E-04    1.68      95.7  T
     SCC iter.                  ...        0 min,  0.025 sec
     gradient                   ...        0 min,  0.092 sec
 * total energy  :  -102.6750162 Eh     change       -0.5112510E-05 Eh
   gradient norm :     0.0008389 Eh/α   predicted    -0.2371248E-05 ( -53.62%)
   displ. norm   :     0.1343767 α      lambda       -0.5846062E-05
   maximum displ.:     0.0785102 α      in ANC's #19, #1, #3, ...

........................................................................
.............................. CYCLE   56 ..............................
........................................................................

 iter      E             dE          RMSdq      gap      omega  full diag
   1   -103.9708676 -0.103971E+03  0.172E-02    1.67       0.0  T
   2   -103.9708677 -0.984982E-07  0.102E-02    1.67       1.2  T
   3   -103.9708676  0.602546E-07  0.133E-03    1.67       9.3  T
   4   -103.9708677 -0.735943E-07  0.597E-04    1.67      20.6  T
   5   -103.9708677 -0.180873E-07  0.220E-04    1.67      56.0  T
     SCC iter.                  ...        0 min,  0.025 sec
     gradient                   ...        0 min,  0.068 sec
 * total energy  :  -102.6750217 Eh     change       -0.5518718E-05 Eh
   gradient norm :     0.0014141 Eh/α   predicted    -0.2948249E-05 ( -46.58%)
   displ. norm   :     0.0751690 α      lambda       -0.6386619E-05
   maximum displ.:     0.0369778 α      in ANC's #1, #19, #11, ...

........................................................................
.............................. CYCLE   57 ..............................
........................................................................

 iter      E             dE          RMSdq      gap      omega  full diag
   1   -103.9713335 -0.103971E+03  0.118E-02    1.67       0.0  T
   2   -103.9713336 -0.115164E-06  0.695E-03    1.67       1.8  T
   3   -103.9713335  0.934918E-07  0.148E-03    1.67       8.3  T
   4   -103.9713336 -0.111003E-06  0.538E-04    1.67      22.9  T
   5   -103.9713336 -0.140220E-07  0.196E-04    1.67      62.7  T
     SCC iter.                  ...        0 min,  0.025 sec
     gradient                   ...        0 min,  0.075 sec
 * total energy  :  -102.6750261 Eh     change       -0.4308222E-05 Eh
   gradient norm :     0.0011750 Eh/α   predicted    -0.3203659E-05 ( -25.64%)
   displ. norm   :     0.1069714 α      lambda       -0.3456243E-05
   maximum displ.:     0.0617137 α      in ANC's #19, #1, #3, ...

........................................................................
.............................. CYCLE   58 ..............................
........................................................................

 iter      E             dE          RMSdq      gap      omega  full diag
   1   -103.9707692 -0.103971E+03  0.137E-02    1.67       0.0  T
   2   -103.9707693 -0.953216E-07  0.809E-03    1.67       1.5  T
   3   -103.9707692  0.508855E-07  0.120E-03    1.67      10.2  T
   4   -103.9707693 -0.676556E-07  0.462E-04    1.67      26.6  T
   5   -103.9707693 -0.802734E-08  0.184E-04    1.67      67.0  T
     SCC iter.                  ...        0 min,  0.040 sec
     gradient                   ...        0 min,  0.061 sec
 * total energy  :  -102.6750281 Eh     change       -0.2060103E-05 Eh
   gradient norm :     0.0010716 Eh/α   predicted    -0.1738168E-05 ( -15.63%)
   displ. norm   :     0.0247535 α      lambda       -0.1876675E-05
   maximum displ.:     0.0143194 α      in ANC's #19, #7, #6, ...

........................................................................
.............................. CYCLE   59 ..............................
........................................................................

 iter      E             dE          RMSdq      gap      omega  full diag
   1   -103.9710379 -0.103971E+03  0.407E-03    1.67       0.0  T
   2   -103.9710379 -0.363758E-07  0.240E-03    1.67       5.1  T
   3   -103.9710379  0.247098E-07  0.893E-04    1.67      13.8  T
   4   -103.9710379 -0.289702E-07  0.270E-04    1.67      45.5  T
     SCC iter.                  ...        0 min,  0.020 sec
     gradient                   ...        0 min,  0.092 sec
 * total energy  :  -102.6750298 Eh     change       -0.1714164E-05 Eh
   gradient norm :     0.0003310 Eh/α   predicted    -0.9402406E-06 ( -45.15%)
   displ. norm   :     0.0230521 α      lambda        0.6094078E-06
   maximum displ.:     0.0134013 α      in ANC's #19, #7, #6, ...

   *** GEOMETRY OPTIMIZATION CONVERGED AFTER 59 ITERATIONS ***

------------------------------------------------------------------------
 total energy gain   :        -0.0208282 Eh      -13.0699 kcal/mol
 total RMSD          :         0.5394850 a0        0.2855 Å
 total power (kW/mol):        -0.9268550 (step)   -5.4720 (real)
------------------------------------------------------------------------

 ANCopt (total)                0 d,  0 h,  0 min,  9.994 sec
 optimizer setup                ...        0 min,  0.000 sec (  0.001%)
 model hessian                  ...        0 min,  0.129 sec (  1.295%)
 ANC generation                 ...        0 min,  0.012 sec (  0.118%)
 coordinate transformation      ...        0 min,  0.001 sec (  0.015%)
 single point calculation       ...        0 min,  9.825 sec ( 98.316%)
 optimization log               ...        0 min,  0.013 sec (  0.128%)
 hessian update                 ...        0 min,  0.002 sec (  0.016%)
 rational function              ...        0 min,  0.009 sec (  0.085%)

================
 final structure:
================
66
 xtb: 6.7.1 (edcfbbe)
C           -6.64691475073576       -0.38750826095599       -0.33233382966707
C           -5.68102731530955       -0.22024728924019        0.83267822958150
C           -5.36952869191203        1.26245367036003        1.09062509013984
C           -4.57625358503954        1.84668138533646       -0.02108150545574
N           -5.05076409630281        2.49444206539263       -1.06352503741017
C           -4.00716557580135        2.81268014583692       -1.86373043525817
C           -4.16491013058279        3.55708282487331       -3.13604304325543
C           -2.83581731538784        2.34169794900394       -1.29670040247182
N           -3.23462046624873        1.72510765502969       -0.12130257375188
N           -2.31913610448429        1.15816141710065        0.71937229707090
C           -1.00738839288905        1.21222322580740        0.36531527960516
C           -0.01198388186435        0.63026793185899        1.28233117850844
[...]
          omp threads                :                     1


           -------------------------------------------------
          |                 G F N 2 - x T B                 |
           -------------------------------------------------

        Reference                      10.1021/acs.jctc.8b01176
      * Hamiltonian:
        H0-scaling (s, p, d)           1.850000    2.230000    2.230000
        zeta-weighting                 0.500000
      * Dispersion:
        s8                             2.700000
        a1                             0.520000
        a2                             5.000000
        s9                             5.000000
      * Repulsion:
        kExp                           1.500000    1.000000
        rExp                           1.000000
      * Coulomb:
        alpha                          2.000000
        third order                    shell-resolved
        anisotropic                    true
        a3                             3.000000
        a5                             4.000000
        cn-shift                       1.200000
        cn-exp                         4.000000
        max-rad                        5.000000


          ...................................................
          :                      SETUP                      :
          :.................................................:
          :  # basis functions                 174          :
          :  # atomic orbitals                 173          :
          :  # shells                          101          :
          :  # electrons                       184          :
          :  max. iterations                   250          :
          :  Hamiltonian                  GFN2-xTB          :
          :  restarted?                      false          :
          :  GBSA solvation                  false          :
          :  PC potential                    false          :
          :  electronic temp.          300.0000000     K    :
          :  accuracy                    1.0000000          :
          :  -> integral cutoff          0.2500000E+02      :
          :  -> integral neglect         0.1000000E-07      :
          :  -> SCF convergence          0.1000000E-05 Eh   :
          :  -> wf. convergence          0.1000000E-03 e    :
          :  Broyden damping             0.4000000          :
          :  net charge                          0          :
          :  unpaired electrons                  2          :
          ...................................................

 iter      E             dE          RMSdq      gap      omega  full diag
   1   -103.5401480 -0.103540E+03  0.408E+00    0.75       0.0  T
   2   -103.7508484 -0.210700E+00  0.279E+00    0.50       1.0  T
   3   -103.6473318  0.103517E+00  0.195E+00    0.69       1.0  T
   4   -103.7183855 -0.710537E-01  0.143E+00    0.53       1.0  T
   5   -103.8075133 -0.891278E-01  0.891E-01    0.90       1.0  T
   6   -103.8279722 -0.204589E-01  0.714E-01    0.64       1.0  T
   7   -103.8565753 -0.286031E-01  0.451E-01    0.82       1.0  T
   8   -103.8721229 -0.155477E-01  0.303E-01    0.72       1.0  T
   9   -103.8774190 -0.529606E-02  0.174E-01    0.74       1.0  T
  10   -103.8653237  0.120953E-01  0.293E-01    0.77       1.0  T
  11   -103.8697196 -0.439588E-02  0.246E-01    0.72       1.0  T
  12   -103.8720582 -0.233865E-02  0.215E-01    0.72       1.0  T
  13   -103.8729677 -0.909510E-03  0.191E-01    0.74       1.0  T
  14   -103.8782448 -0.527702E-02  0.637E-02    0.73       1.0  T
  15   -103.8786366 -0.391787E-03  0.311E-02    0.73       1.0  T
  16   -103.8787700 -0.133425E-03  0.915E-03    0.73       1.3  T
  17   -103.8785405  0.229515E-03  0.366E-02    0.73       1.0  T
  18   -103.8787280 -0.187571E-03  0.185E-02    0.73       1.0  T
  19   -103.8787845 -0.564610E-04  0.168E-03    0.73       7.3  T
  20   -103.8787818  0.265085E-05  0.407E-03    0.73       3.0  T
  21   -103.8787848 -0.300004E-05  0.366E-04    0.73      33.6  T
  22   -103.8787849 -0.130760E-07  0.281E-04    0.73      43.8  T
  23   -103.8787849 -0.145448E-07  0.354E-05    0.73     348.1  T

   *** convergence criteria satisfied after 23 iterations ***

         #    Occupation            Energy/Eh            Energy/eV
      -------------------------------------------------------------
         1        2.0000           -0.7649334             -20.8149
       ...           ...                  ...                  ...
        87        2.0000           -0.4032668             -10.9734
        88        2.0000           -0.3938204             -10.7164
        89        2.0000           -0.3908483             -10.6355
        90        1.9534           -0.3839441             -10.4477
        91        1.8177           -0.3825032             -10.4084
        92        1.2289           -0.3799234             -10.3382
        93        1.0000           -0.2713521              -7.3839 (HOMO)
        94        0.0000           -0.2444637              -6.6522 (LUMO)
        95                         -0.2322891              -6.3209
        96                         -0.2084664              -5.6727
        97                         -0.1810664              -4.9271
        98                         -0.1242428              -3.3808
       ...                                ...                  ...
       173                          1.2503047              34.0225
      -------------------------------------------------------------
                  HL-Gap            0.0268884 Eh            0.7317 eV
             Fermi-level           -0.3194925 Eh           -8.6938 eV

 transition dipole moment (au) for excitation:          92          93
     X       Y       Z   
   0.1381  -0.0265   0.1440  total (au/Debye):    0.201   0.511
 dE (eV)             :    2.954
 oscillator strength :  0.41446E-02

 SCC (total)                   0 d,  0 h,  0 min,  0.257 sec
 SCC setup                      ...        0 min,  0.001 sec (  0.280%)
 Dispersion                     ...        0 min,  0.001 sec (  0.410%)
 classical contributions        ...        0 min,  0.000 sec (  0.133%)
 integral evaluation            ...        0 min,  0.016 sec (  6.076%)
 iterations                     ...        0 min,  0.140 sec ( 54.595%)
 molecular gradient             ...        0 min,  0.059 sec ( 22.819%)
 printout                       ...        0 min,  0.040 sec ( 15.683%)

         :::::::::::::::::::::::::::::::::::::::::::::::::::::
         ::                     SUMMARY                     ::
         :::::::::::::::::::::::::::::::::::::::::::::::::::::
         :: total energy            -102.582776765646 Eh    ::
         :: gradient norm              0.130608767883 Eh/a0 ::
         :: HOMO-LUMO gap              0.731671111620 eV    ::
         ::.................................................::
         :: SCC energy              -103.878115045965 Eh    ::
         :: -> isotropic ES            0.132258270189 Eh    ::
         :: -> anisotropic ES          0.002839956441 Eh    ::
         :: -> anisotropic XC          0.040043047759 Eh    ::
         :: -> dispersion             -0.076579252452 Eh    ::
         :: repulsion energy           1.295338280319 Eh    ::
         :: add. restraining           0.000000000000 Eh    ::
         :: total charge              -0.000000000002 e     ::
         :::::::::::::::::::::::::::::::::::::::::::::::::::::

           -------------------------------------------------
          |                Property Printout                |
           -------------------------------------------------

    * Orbital Energies and Occupations

         #    Occupation            Energy/Eh            Energy/eV
      -------------------------------------------------------------
         1        2.0000           -0.7649334             -20.8149
       ...           ...                  ...                  ...
        81        2.0000           -0.4329430             -11.7810
        82        2.0000           -0.4280476             -11.6478
        83        2.0000           -0.4182122             -11.3801
        84        2.0000           -0.4152023             -11.2982
        85        2.0000           -0.4090311             -11.1303
        86        2.0000           -0.4085054             -11.1160
        87        2.0000           -0.4032668             -10.9734
        88        2.0000           -0.3938204             -10.7164
        89        2.0000           -0.3908483             -10.6355
        90        1.9534           -0.3839441             -10.4477
        91        1.8177           -0.3825032             -10.4084
        92        1.2289           -0.3799234             -10.3382
        93        1.0000           -0.2713521              -7.3839 (HOMO)
        94        0.0000           -0.2444637              -6.6522 (LUMO)
        95                         -0.2322891              -6.3209
        96                         -0.2084664              -5.6727
        97                         -0.1810664              -4.9271
        98                         -0.1242428              -3.3808
        99                         -0.1088785              -2.9627
       100                         -0.0955034              -2.5988
       101                         -0.0691848              -1.8826
       102                         -0.0599627              -1.6317
       103                         -0.0461428              -1.2556
       104                         -0.0301666              -0.8209
       ...                                ...                  ...
       173                          1.2503047              34.0225
      -------------------------------------------------------------
                  HL-Gap            0.0268884 Eh            0.7317 eV
             Fermi-level           -0.3194925 Eh           -8.6938 eV

     #   Z          covCN         q      C6AA      α(0)
     1   6 C        3.753    -0.109    22.643     6.786
     2   6 C        3.802    -0.050    21.469     6.597
     3   6 C        3.805    -0.068    21.804     6.647
     4   6 C        3.129     0.107    25.451     8.260
     5   7 N        1.927    -0.266    27.742     7.810
     6   6 C        3.148     0.076    26.053     8.350
     7   6 C        3.755    -0.116    22.771     6.804
     8   6 C        3.064    -0.013    28.263     8.718
     9   7 N        2.948     0.053    20.320     6.695
    10   7 N        2.768    -0.113    23.464     7.194
    11   6 C        2.856     0.124    25.284     8.242
    12   6 C        2.981    -0.039    28.953     8.826
    13   6 C        2.857     0.126    25.243     8.235
    14   6 C        2.918    -0.069    29.712     8.939
    15   6 C        2.956    -0.055    29.359     8.887
    16   6 C        2.965    -0.103    30.594     9.073
    17  16 S        3.876     1.076   104.488    17.204
    18   8 O        0.860    -0.550    24.912     6.692
    19   7 N        2.739    -0.255    26.627     7.664
    20   6 C        3.845     0.002    20.507     6.442
    21   6 C        3.772     0.002    20.573     6.463
    22   7 N        2.731    -0.136    23.948     7.268
    23   6 C        3.770     0.003    20.566     6.462
    24   6 C        3.857     0.005    20.463     6.433
    25   6 C        3.757     0.004    20.562     6.465
    26   6 C        3.752    -0.114    22.742     6.801
    27   8 O        0.860    -0.556    25.071     6.713
    28   6 C        2.965    -0.045    29.119     8.851
    29   8 O        1.704    -0.292    18.849     5.862
    30   6 C        3.686     0.084    19.375     6.301
    31   6 C        3.751    -0.114    22.751     6.802
    32   7 N        1.845    -0.241    27.139     7.721
    33   6 C        2.777     0.267    22.500     7.769
    34   8 O        0.859    -0.380    21.283     6.185
    35   1 H        0.925     0.050     2.325     2.384
    36   1 H        0.925     0.038     2.476     2.461
    37   1 H        0.925     0.043     2.408     2.427
    38   1 H        0.924     0.037     2.484     2.465
    39   1 H        0.924     0.030     2.590     2.517
    40   1 H        0.924     0.037     2.492     2.468
    41   1 H        0.925     0.071     2.076     2.253
    42   1 H        0.925     0.066     2.127     2.281
    43   1 H        0.925     0.065     2.138     2.287
    44   1 H        0.925     0.074     2.046     2.237
    45   1 H        0.860     0.208     1.068     1.619
    46   1 H        0.926     0.040     2.453     2.449
    47   1 H        0.926     0.049     2.328     2.386
    48   1 H        0.923     0.049     2.329     2.386
    49   1 H        0.925     0.074     2.039     2.233
    50   1 H        0.923     0.041     2.435     2.440
    51   1 H        0.924     0.058     2.227     2.334
    52   1 H        0.924     0.058     2.227     2.334
    53   1 H        0.923     0.040     2.451     2.448
    54   1 H        0.925     0.069     2.100     2.266
    55   1 H        0.923     0.038     2.477     2.461
    56   1 H        0.924     0.048     2.349     2.397
    57   1 H        0.923     0.025     2.656     2.549
    58   1 H        0.925     0.055     2.256     2.349
    59   1 H        0.925     0.050     2.325     2.385
    60   1 H        0.925     0.042     2.417     2.431
    61   1 H        0.926     0.067     2.122     2.278
    62   1 H        0.924     0.037     2.489     2.467
    63   1 H        0.924     0.037     2.491     2.468
    64   1 H        0.925     0.057     2.240     2.341
    65   1 H        0.925     0.052     2.298     2.371
    66   1 H        0.925     0.053     2.286     2.365

 Mol. C6AA /au·bohr⁶  :      48275.773909
 Mol. C8AA /au·bohr⁸  :    1143838.093425
 Mol. α(0) /au        :        335.697118


Wiberg/Mayer (AO) data.
largest (>0.10) Wiberg bond orders for each atom

 ---------------------------------------------------------------------------
     #   Z sym  total        # sym  WBO       # sym  WBO       # sym  WBO
 ---------------------------------------------------------------------------
     1   6 C    3.994 --     2 C    1.022    37 H    0.987    36 H    0.987
                            35 H    0.985
     2   6 C    3.993 --     1 C    1.022     3 C    0.983    39 H    0.978
                            38 H    0.977
     3   6 C    3.993 --     4 C    1.018     2 C    0.983    41 H    0.967
                            40 H    0.967
     4   6 C    3.926 --     5 N    1.427     9 N    1.242     3 C    1.018
     5   7 N    3.039 --     4 C    1.427     6 C    1.295
     6   6 C    3.923 --     8 C    1.407     5 N    1.295     7 C    1.038
     7   6 C    3.987 --     6 C    1.038    44 H    0.976    43 H    0.965
                            42 H    0.962
     8   6 C    3.839 --     6 C    1.407     9 N    1.123    33 C    0.994
     9   7 N    3.631 --     4 C    1.242     8 C    1.123    10 N    1.033
    10   7 N    3.363 --    11 C    1.120     9 N    1.033    45 H    0.901
    11   6 C    3.904 --    32 N    1.400    12 C    1.137    10 N    1.120
    12   6 C    3.944 --    28 C    1.304    13 C    1.234    11 C    1.137
    13   6 C    3.911 --    14 C    1.421    12 C    1.234    29 O    1.046
    14   6 C    3.971 --    13 C    1.421    15 C    1.383    46 H    0.964
    15   6 C    3.913 --    14 C    1.383    16 C    1.369    47 H    0.966
    16   6 C    3.938 --    28 C    1.461    15 C    1.369    17 S    0.729
    17  16 S    5.028 --    18 O    1.647    27 O    1.638    19 N    0.934
                            16 C    0.729
    18   8 O    1.943 --    17 S    1.647    27 O    0.108
    19   7 N    3.212 --    24 C    0.998    20 C    0.996    17 S    0.934
    20   6 C    3.963 --    19 N    0.996    21 C    0.991    49 H    0.967
                            48 H    0.958
    21   6 C    3.975 --    22 N    1.006    20 C    0.991    51 H    0.969
                            50 H    0.956
    22   7 N    3.106 --    23 C    1.007    21 C    1.006    25 C    0.995
    23   6 C    3.977 --    22 N    1.007    24 C    0.992    52 H    0.967
                            53 H    0.955
    24   6 C    3.968 --    19 N    0.998    23 C    0.992    54 H    0.968
                            55 H    0.962
    25   6 C    3.974 --    26 C    1.015    22 N    0.995    56 H    0.972
                            57 H    0.960
    26   6 C    3.992 --    25 C    1.015    58 H    0.986    59 H    0.985
                            60 H    0.984
    27   8 O    1.932 --    17 S    1.638    18 O    0.108
    28   6 C    3.969 --    16 C    1.461    12 C    1.304    61 H    0.956
    29   8 O    2.222 --    13 C    1.046    30 C    0.955
    30   6 C    3.943 --    31 C    1.016    62 H    0.969    63 H    0.968
                            29 O    0.955
    31   6 C    3.992 --    30 C    1.016    65 H    0.985    64 H    0.984
                            66 H    0.984
    32   7 N    3.044 --    11 C    1.400    33 C    1.167    34 O    0.200
    33   6 C    3.901 --    34 O    1.586    32 N    1.167     8 C    0.994
    34   8 O    2.004 --    33 C    1.586    32 N    0.200
    35   1 H    0.997 --     1 C    0.985
    36   1 H    0.998 --     1 C    0.987
    37   1 H    0.998 --     1 C    0.987
    38   1 H    0.998 --     2 C    0.977
    39   1 H    0.999 --     2 C    0.978
    40   1 H    0.998 --     3 C    0.967
    41   1 H    0.994 --     3 C    0.967
    42   1 H    0.989 --     7 C    0.962
    43   1 H    0.990 --     7 C    0.965
    44   1 H    0.993 --     7 C    0.976
    45   1 H    0.956 --    10 N    0.901
    46   1 H    0.997 --    14 C    0.964
    47   1 H    0.997 --    15 C    0.966
    48   1 H    0.990 --    20 C    0.958
    49   1 H    0.994 --    20 C    0.967
    50   1 H    0.982 --    21 C    0.956
    51   1 H    0.995 --    21 C    0.969
    52   1 H    0.996 --    23 C    0.967
    53   1 H    0.983 --    23 C    0.955
    54   1 H    0.995 --    24 C    0.968
    55   1 H    0.990 --    24 C    0.962
    56   1 H    0.997 --    25 C    0.972
    57   1 H    0.986 --    25 C    0.960
    58   1 H    0.996 --    26 C    0.986
    59   1 H    0.997 --    26 C    0.985
    60   1 H    0.998 --    26 C    0.984
    61   1 H    0.994 --    28 C    0.956
    62   1 H    0.998 --    30 C    0.969
    63   1 H    0.998 --    30 C    0.968
    64   1 H    0.997 --    31 C    0.984
    65   1 H    0.997 --    31 C    0.985
    66   1 H    0.997 --    31 C    0.984
 ---------------------------------------------------------------------------

Topologies differ in total number of bonds
Writing topology from bond orders to xtbtopo.mol

molecular dipole:
                 x           y           z       tot (Debye)
 q only:       -1.482      -3.053      -0.331
   full:       -1.268      -3.379       0.217       9.191
molecular quadrupole (traceless):
                xx          xy          yy          xz          yz          zz
 q only:       13.593     -22.221     -11.440     -43.114      -0.626      -2.153
  q+dip:       14.088     -19.947     -12.985     -47.968      -0.824      -1.102
   full:       11.481     -19.823     -11.039     -48.713       1.554      -0.442


           -------------------------------------------------
          | TOTAL ENERGY             -102.582776765646 Eh   |
          | GRADIENT NORM               0.130608767883 Eh/α |
          | HOMO-LUMO GAP               0.731671111620 eV   |
           -------------------------------------------------

------------------------------------------------------------------------
 * finished run on 2025/05/15 at 16:12:53.102     
------------------------------------------------------------------------
 total:
 * wall-time:     0 d,  0 h,  0 min,  0.278 sec
 *  cpu-time:     0 d,  0 h,  0 min,  0.223 sec
 * ratio c/w:     0.804 speedup
 SCF:
 * wall-time:     0 d,  0 h,  0 min,  0.257 sec
 *  cpu-time:     0 d,  0 h,  0 min,  0.204 sec
 * ratio c/w:     0.794 speedup


