----- Optimization -----
      -----------------------------------------------------------      
     |                   =====================                   |     
     |                           x T B                           |     
     |                   =====================                   |     
     |                         S. Grimme                         |     
     |          Mulliken Center for Theoretical Chemistry        |     
     |                    University of Bonn                     |     
      -----------------------------------------------------------      

   * xtb version 6.7.1 (edcfbbe) compiled by 'conda@3ef47c1a292c' on 2024-11-25

   xtb is free software: you can redistribute it and/or modify it under
   the terms of the GNU Lesser General Public License as published by
   the Free Software Foundation, either version 3 of the License, or
   (at your option) any later version.
   
   xtb is distributed in the hope that it will be useful,
   but WITHOUT ANY WARRANTY; without even the implied warranty of
   MERCHANTABILITY or FITNESS FOR A PARTICULAR PURPOSE.  See the
   GNU Lesser General Public License for more details.
   
   Cite this work as:
   * C. Bannwarth, E. Caldeweyher, S. Ehlert, A. Hansen, P. Pracht,
     J. Seibert, S. Spicher, S. Grimme, WIREs Comput. Mol. Sci., 2020, 11,
     e01493. DOI: 10.1002/wcms.1493
   
   for GFN2-xTB:
   * C. Bannwarth, S. Ehlert and S. Grimme., J. Chem. Theory Comput., 2019,
     15, 1652-1671. DOI: 10.1021/acs.jctc.8b01176
   for GFN1-xTB:
   * S. Grimme, C. Bannwarth, P. Shushkov, J. Chem. Theory Comput., 2017,
     13, 1989-2009. DOI: 10.1021/acs.jctc.7b00118
   for GFN0-xTB:
   * P. Pracht, E. Caldeweyher, S. Ehlert, S. Grimme, ChemRxiv, 2019, preprint.
     DOI: 10.26434/chemrxiv.8326202.v1
   for GFN-FF:
   * S. Spicher and S. Grimme, Angew. Chem. Int. Ed., 2020, 59, 15665-15673.
     DOI: 10.1002/anie.202004239
   
   for ALPB and GBSA implicit solvation:
   * S. Ehlert, M. Stahn, S. Spicher, S. Grimme, J. Chem. Theory Comput.,
     2021, 17, 4250-4261. DOI: 10.1021/acs.jctc.1c00471
   
   for ddCOSMO and CPCM-X implicit solvation:
   * M. Stahn, S. Ehlert, S. Grimme, J. Phys. Chem. A,
     2023, XX, XXXX-XXXX. DOI: 10.1021/acs.jpca.3c04382
   
   for DFT-D4:
   * E. Caldeweyher, C. Bannwarth and S. Grimme, J. Chem. Phys., 2017,
     147, 034112. DOI: 10.1063/1.4993215
   * E. Caldeweyher, S. Ehlert, A. Hansen, H. Neugebauer, S. Spicher,
     C. Bannwarth and S. Grimme, J. Chem. Phys., 2019, 150, 154122.
     DOI: 10.1063/1.5090222
   * E. Caldeweyher, J.-M. Mewes, S. Ehlert and S. Grimme, Phys. Chem. Chem. Phys.
     2020, 22, 8499-8512. DOI: 10.1039/D0CP00502A
   
   for sTDA-xTB:
   * S. Grimme and C. Bannwarth, J. Chem. Phys., 2016, 145, 054103.
     DOI: 10.1063/1.4959605
   
   in the mass-spec context:
   * V. Asgeirsson, C. Bauer and S. Grimme, Chem. Sci., 2017, 8, 4879.
     DOI: 10.1039/c7sc00601b
   * J. Koopman and S. Grimme, ACS Omega 2019, 4, 12, 15120-15133.
     DOI: 10.1021/acsomega.9b02011
   
   for metadynamics refer to:
   * S. Grimme, J. Chem. Theory Comput., 2019, 155, 2847-2862
     DOI: 10.1021/acs.jctc.9b00143
   
   for SPH calculations refer to:
   * S. Spicher and S. Grimme, J. Chem. Theory Comput., 2021, 17, 1701-1714
     DOI: 10.1021/acs.jctc.0c01306
   
   for ONIOM refer to:
   * C. Plett, A. Katbashev, S. Ehlert, S. Grimme, M. Bursch,
     Phys. Chem. Chem. Phys., 2023, 25, 17860-17868. DOI: 10.1039/D3CP02178E
   
   for DIPRO refer to:
   * J. Kohn, N. Gildemeister, S. Grimme, D. Fazzi, A. Hansen,
     J. Chem. Phys., 2023, just accepted.
   
   for PTB refer to:
   * S. Grimme, M. Mueller, A. Hansen, J. Chem. Phys., 2023, 158, 124111.
     DOI: 10.1063/5.0137838
   
   with help from (in alphabetical order)
   P. Atkinson, C. Bannwarth, F. Bohle, G. Brandenburg, E. Caldeweyher
   M. Checinski, S. Dohm, S. Ehlert, S. Ehrlich, I. Gerasimov, C. Hölzer
   A. Katbashev, J. Kohn, J. Koopman, C. Lavigne, S. Lehtola, F. März, M. Müller,
   F. Musil, H. Neugebauer, J. Pisarek, C. Plett, P. Pracht, F. Pultar,
   J. Seibert, P. Shushkov, S. Spicher, M. Stahn, M. Steiner, T. Strunk,
   J. Stückrath, T. Rose, and J. Unsleber
   
 * started run on 2025/05/15 at 16:13:16.170     
   ID    Z sym.   atoms
    1    8 O      1, 3, 21
    2    6 C      2, 4, 5, 7-9, 11, 12, 14-16, 18-20, 22-24
    3    7 N      6, 10, 13
    4    9 F      17
    5    1 H      25-42

           -------------------------------------------------
          |                Calculation Setup                |
           -------------------------------------------------

          program call               : xtb /rds/general/user/hgt20/home/callum/QDESCP/Ciprofloxacin_rdkit_conf_7/Ciprofloxacin_rdkit_conf_7.xyz --opt normal --acc 1 --gfn 2 --chrg 0 --uhf 0 -P 1
          hostname                   : login-c
          coordinate file            : /rds/general/user/hgt20/home/callum/QDESCP/Ciprofloxacin_rdkit_conf_7/Ciprofloxacin_rdkit_conf_7.xyz
          omp threads                :                     1


           -------------------------------------------------
          |                 G F N 2 - x T B                 |
           -------------------------------------------------

        Reference                      10.1021/acs.jctc.8b01176
      * Hamiltonian:
        H0-scaling (s, p, d)           1.850000    2.230000    2.230000
        zeta-weighting                 0.500000
      * Dispersion:
        s8                             2.700000
        a1                             0.520000
        a2                             5.000000
        s9                             5.000000
      * Repulsion:
        kExp                           1.500000    1.000000
        rExp                           1.000000
      * Coulomb:
        alpha                          2.000000
        third order                    shell-resolved
        anisotropic                    true
        a3                             3.000000
        a5                             4.000000
        cn-shift                       1.200000
        cn-exp                         4.000000
        max-rad                        5.000000


          ...................................................
          :                      SETUP                      :
          :.................................................:
          :  # basis functions                 114          :
          :  # atomic orbitals                 114          :
          :  # shells                           66          :
          :  # electrons                       126          :
          :  max. iterations                   250          :
          :  Hamiltonian                  GFN2-xTB          :
          :  restarted?                      false          :
          :  GBSA solvation                  false          :
          :  PC potential                    false          :
          :  electronic temp.          300.0000000     K    :
          :  accuracy                    1.0000000          :
          :  -> integral cutoff          0.2500000E+02      :
          :  -> integral neglect         0.1000000E-07      :
          :  -> SCF convergence          0.1000000E-05 Eh   :
          :  -> wf. convergence          0.1000000E-03 e    :
          :  Broyden damping             0.4000000          :
          :  net charge                          0          :
          :  unpaired electrons                  0          :
          ...................................................

 iter      E             dE          RMSdq      gap      omega  full diag
   1    -71.9771824 -0.719772E+02  0.415E+00    2.46       0.0  T
   2    -72.0958144 -0.118632E+00  0.250E+00    2.31       1.0  T
   3    -72.1051354 -0.932100E-02  0.144E+00    2.50       1.0  T
   4    -72.1220820 -0.169466E-01  0.463E-01    2.42       1.0  T
   5    -72.1288862 -0.680420E-02  0.112E-01    2.40       1.0  T
   6    -72.1291215 -0.235273E-03  0.519E-02    2.41       1.0  T
   7    -72.1291534 -0.319254E-04  0.223E-02    2.42       1.0  T
   8    -72.1291555 -0.208682E-05  0.934E-03    2.42       1.7  T
   9    -72.1291571 -0.163745E-05  0.418E-03    2.42       3.7  T
  10    -72.1291573 -0.127396E-06  0.152E-03    2.42      10.1  T
  11    -72.1291573 -0.424252E-07  0.689E-04    2.42      22.4  T
  12    -72.1291573 -0.421285E-08  0.247E-04    2.42      62.6  T

   *** convergence criteria satisfied after 12 iterations ***

         #    Occupation            Energy/Eh            Energy/eV
      -------------------------------------------------------------
         1        2.0000           -0.8256032             -22.4658
       ...           ...                  ...                  ...
        57        2.0000           -0.4347759             -11.8309
        58        2.0000           -0.4270555             -11.6208
        59        2.0000           -0.4188824             -11.3984
        60        2.0000           -0.3902753             -10.6199
        61        2.0000           -0.3808612             -10.3638
        62        2.0000           -0.3804320             -10.3521
        63        2.0000           -0.3687639             -10.0346 (HOMO)
        64                         -0.2799109              -7.6168 (LUMO)
        65                         -0.2673237              -7.2742
        66                         -0.2350060              -6.3948
        67                         -0.2142270              -5.8294
        68                         -0.1509520              -4.1076
       ...                                ...                  ...
       114                          0.6919512              18.8290
      -------------------------------------------------------------
                  HL-Gap            0.0888530 Eh            2.4178 eV
             Fermi-level           -0.3243374 Eh           -8.8257 eV

 SCC (total)                   0 d,  0 h,  0 min,  0.061 sec
 SCC setup                      ...        0 min,  0.000 sec (  0.659%)
 Dispersion                     ...        0 min,  0.000 sec (  0.773%)
 classical contributions        ...        0 min,  0.000 sec (  0.242%)
 integral evaluation            ...        0 min,  0.008 sec ( 13.142%)
 iterations                     ...        0 min,  0.028 sec ( 45.747%)
 molecular gradient             ...        0 min,  0.024 sec ( 39.092%)
 printout                       ...        0 min,  0.000 sec (  0.331%)

         :::::::::::::::::::::::::::::::::::::::::::::::::::::
         ::                     SUMMARY                     ::
         :::::::::::::::::::::::::::::::::::::::::::::::::::::
         :: total energy             -71.289347790930 Eh    ::
         :: gradient norm              0.081110502601 Eh/a0 ::
         :: HOMO-LUMO gap              2.417812959987 eV    ::
         ::.................................................::
         :: SCC energy               -72.129068491227 Eh    ::
         :: -> isotropic ES            0.107146763960 Eh    ::
         :: -> anisotropic ES          0.008075764020 Eh    ::
         :: -> anisotropic XC          0.021265757324 Eh    ::
         :: -> dispersion             -0.045033606292 Eh    ::
         :: repulsion energy           0.839720700296 Eh    ::
         :: add. restraining           0.000000000000 Eh    ::
         :: total charge               0.000000000000 e     ::
         :::::::::::::::::::::::::::::::::::::::::::::::::::::

      ----------------------------------------------------------- 
     |                   =====================                   |
     |                        A N C O P T                        |
     |                   =====================                   |
     |               Approximate Normal Coordinate               |
     |                Rational Function Optimizer                |
      ----------------------------------------------------------- 
      ----------------------------------------------------------- 
     |                   =====================                   |
     |                        A N C O P T                        |
     |                   =====================                   |
     |               Approximate Normal Coordinate               |
     |                Rational Function Optimizer                |
      ----------------------------------------------------------- 

          ...................................................
          :                      SETUP                      :
          :.................................................:
          :   optimization level            normal          :
          :   max. optcycles                   200          :
          :   ANC micro-cycles                  20          :
          :   degrees of freedom               120          :
          :.................................................:
          :   RF solver                   davidson          :
          :   write xtbopt.log                true          :
          :   linear?                        false          :
          :   energy convergence         0.5000000E-05 Eh   :
          :   grad. convergence          0.1000000E-02 Eh/α :
          :   maxmium RF displ.          1.0000000          :
          :   Hlow (freq-cutoff)         0.1000000E-01      :
          :   Hmax (freq-cutoff)         5.0000000          :
          :   S6 in model hess.         20.0000000          :
          ...................................................

generating ANC from exact Hessian ...
Using Lindh-Hessian (1995)
 Shifting diagonal of input Hessian by    9.6099987814457465E-003
 Lowest  eigenvalues of input Hessian
    0.000000    0.000000    0.000000    0.000000    0.000000    0.000000
    0.010000    0.010317    0.010689    0.011502    0.012005    0.012321
    0.012935    0.014536    0.016125    0.017805    0.018922    0.019915
 Highest eigenvalues
    1.871189    1.988940    2.023860    2.087739    2.211158    2.338788


........................................................................
.............................. CYCLE    1 ..............................
........................................................................

 iter      E             dE          RMSdq      gap      omega  full diag
   1    -72.1291573 -0.721292E+02  0.112E-04    2.42       0.0  T
   2    -72.1291573 -0.123137E-09  0.729E-05    2.42     211.7  T
   3    -72.1291573 -0.113417E-09  0.427E-05    2.42     361.7  T
     SCC iter.                  ...        0 min,  0.007 sec
     gradient                   ...        0 min,  0.026 sec
 * total energy  :   -71.2893478 Eh     change       -0.8070487E-09 Eh
   gradient norm :     0.0811113 Eh/α   predicted     0.0000000E+00 (-100.00%)
   displ. norm   :     0.3577499 α      lambda       -0.1479793E-01
   maximum displ.:     0.1101329 α      in ANC's #13, #18, #25, ...

........................................................................
.............................. CYCLE    2 ..............................
........................................................................

 iter      E             dE          RMSdq      gap      omega  full diag
   1    -72.1669505 -0.721670E+02  0.230E-01    2.40       0.0  T
   2    -72.1672974 -0.346941E-03  0.160E-01    2.42       1.0  T
   3    -72.1674422 -0.144776E-03  0.890E-02    2.41       1.0  T
   4    -72.1675148 -0.726258E-04  0.264E-02    2.41       1.0  T
   5    -72.1675358 -0.209476E-04  0.520E-03    2.41       3.0  T
   6    -72.1675362 -0.389540E-06  0.261E-03    2.41       5.9  T
   7    -72.1675362 -0.525952E-07  0.971E-04    2.41      15.9  T
   8    -72.1675362 -0.608101E-08  0.383E-04    2.41      40.3  T
     SCC iter.                  ...        0 min,  0.017 sec
     gradient                   ...        0 min,  0.023 sec
 * total energy  :   -71.2997188 Eh     change       -0.1037104E-01 Eh
   gradient norm :     0.0339939 Eh/α   predicted    -0.8350878E-02 ( -19.48%)
   displ. norm   :     0.3551580 α      lambda       -0.5220399E-02
   maximum displ.:     0.1667160 α      in ANC's #13, #11, #3, ...

........................................................................
.............................. CYCLE    3 ..............................
........................................................................

 iter      E             dE          RMSdq      gap      omega  full diag
   1    -72.1909518 -0.721910E+02  0.158E-01    2.39       0.0  T
   2    -72.1911660 -0.214198E-03  0.110E-01    2.42       1.0  T
   3    -72.1912631 -0.971438E-04  0.617E-02    2.42       1.0  T
   4    -72.1912849 -0.218190E-04  0.204E-02    2.41       1.0  T
   5    -72.1912966 -0.116904E-04  0.393E-03    2.42       3.9  T
   6    -72.1912969 -0.300857E-06  0.175E-03    2.41       8.8  T
   7    -72.1912969 -0.245984E-07  0.669E-04    2.41      23.1  T
   8    -72.1912969 -0.275347E-08  0.273E-04    2.41      56.6  T
     SCC iter.                  ...        0 min,  0.017 sec
     gradient                   ...        0 min,  0.024 sec
 * total energy  :   -71.3027963 Eh     change       -0.3077522E-02 Eh
   gradient norm :     0.0096745 Eh/α   predicted    -0.2941103E-02 (  -4.43%)
   displ. norm   :     0.2468256 α      lambda       -0.9339791E-03
   maximum displ.:     0.1299648 α      in ANC's #3, #13, #11, ...

........................................................................
.............................. CYCLE    4 ..............................
........................................................................

 iter      E             dE          RMSdq      gap      omega  full diag
   1    -72.1951865 -0.721952E+02  0.598E-02    2.40       0.0  T
   2    -72.1952019 -0.154086E-04  0.362E-02    2.41       1.0  T
   3    -72.1952000  0.189869E-05  0.207E-02    2.41       1.0  T
   4    -72.1952075 -0.745655E-05  0.460E-03    2.41       3.4  T
   5    -72.1952082 -0.704302E-06  0.133E-03    2.41      11.6  T
   6    -72.1952082 -0.320444E-07  0.668E-04    2.41      23.1  T
   7    -72.1952082 -0.353299E-08  0.205E-04    2.41      75.4  T
     SCC iter.                  ...        0 min,  0.042 sec
     gradient                   ...        0 min,  0.024 sec
 * total energy  :   -71.3035161 Eh     change       -0.7197071E-03 Eh
   gradient norm :     0.0078702 Eh/α   predicted    -0.4954578E-03 ( -31.16%)
   displ. norm   :     0.4021296 α      lambda       -0.1009896E-02
   maximum displ.:     0.2357809 α      in ANC's #3, #6, #13, ...

........................................................................
.............................. CYCLE    5 ..............................
........................................................................

 iter      E             dE          RMSdq      gap      omega  full diag
   1    -72.1960757 -0.721961E+02  0.952E-02    2.39       0.0  T
   2    -72.1960972 -0.215439E-04  0.559E-02    2.41       1.0  T
   3    -72.1960845  0.126518E-04  0.275E-02    2.41       1.0  T
   4    -72.1961040 -0.194427E-04  0.439E-03    2.41       3.5  T
   5    -72.1961046 -0.604744E-06  0.166E-03    2.41       9.3  T
   6    -72.1961046 -0.234067E-07  0.904E-04    2.41      17.1  T
   7    -72.1961046 -0.130756E-07  0.315E-04    2.41      49.0  T
     SCC iter.                  ...        0 min,  0.015 sec
     gradient                   ...        0 min,  0.071 sec
 * total energy  :   -71.3042407 Eh     change       -0.7246360E-03 Eh
   gradient norm :     0.0062578 Eh/α   predicted    -0.5866081E-03 ( -19.05%)
   displ. norm   :     0.3794289 α      lambda       -0.6115314E-03
   maximum displ.:     0.2302325 α      in ANC's #3, #6, #8, ...

........................................................................
.............................. CYCLE    6 ..............................
........................................................................

 iter      E             dE          RMSdq      gap      omega  full diag
   1    -72.1951934 -0.721952E+02  0.901E-02    2.40       0.0  T
   2    -72.1952045 -0.111230E-04  0.526E-02    2.42       1.0  T
   3    -72.1951911  0.133976E-04  0.226E-02    2.41       1.0  T
   4    -72.1952088 -0.176584E-04  0.313E-03    2.42       4.9  T
   5    -72.1952090 -0.238304E-06  0.142E-03    2.42      10.8  T
   6    -72.1952091 -0.782832E-08  0.704E-04    2.42      21.9  T
   7    -72.1952091 -0.875961E-08  0.255E-04    2.42      60.5  T
     SCC iter.                  ...        0 min,  0.015 sec
     gradient                   ...        0 min,  0.024 sec
 * total energy  :   -71.3047126 Eh     change       -0.4719074E-03 Eh
   gradient norm :     0.0068055 Eh/α   predicted    -0.3497897E-03 ( -25.88%)
   displ. norm   :     0.4083930 α      lambda       -0.5801739E-03
   maximum displ.:     0.2484618 α      in ANC's #3, #6, #4, ...

........................................................................
.............................. CYCLE    7 ..............................
........................................................................

 iter      E             dE          RMSdq      gap      omega  full diag
   1    -72.1946959 -0.721947E+02  0.101E-01    2.40       0.0  T
   2    -72.1947060 -0.101277E-04  0.588E-02    2.42       1.0  T
   3    -72.1946912  0.147954E-04  0.226E-02    2.42       1.0  T
   4    -72.1947101 -0.188757E-04  0.327E-03    2.42       4.7  T
   5    -72.1947103 -0.225442E-06  0.161E-03    2.42       9.6  T
   6    -72.1947103 -0.902592E-08  0.775E-04    2.42      19.9  T
   7    -72.1947104 -0.114961E-07  0.291E-04    2.42      53.0  T
     SCC iter.                  ...        0 min,  0.036 sec
     gradient                   ...        0 min,  0.024 sec
 * total energy  :   -71.3051756 Eh     change       -0.4629805E-03 Eh
   gradient norm :     0.0073931 Eh/α   predicted    -0.3384742E-03 ( -26.89%)
   displ. norm   :     0.4557187 α      lambda       -0.5978323E-03
   maximum displ.:     0.2788315 α      in ANC's #3, #6, #4, ...

........................................................................
.............................. CYCLE    8 ..............................
........................................................................

 iter      E             dE          RMSdq      gap      omega  full diag
   1    -72.1948886 -0.721949E+02  0.114E-01    2.40       0.0  T
   2    -72.1948982 -0.964276E-05  0.664E-02    2.42       1.0  T
   3    -72.1948795  0.187194E-04  0.243E-02    2.42       1.0  T
   4    -72.1949030 -0.235369E-04  0.360E-03    2.43       4.3  T
   5    -72.1949032 -0.204912E-06  0.194E-03    2.43       8.0  T
   6    -72.1949032 -0.754686E-08  0.919E-04    2.42      16.8  T
   7    -72.1949033 -0.205024E-07  0.300E-04    2.42      51.5  T
     SCC iter.                  ...        0 min,  0.015 sec
     gradient                   ...        0 min,  0.051 sec
 * total energy  :   -71.3056347 Eh     change       -0.4590776E-03 Eh
   gradient norm :     0.0071311 Eh/α   predicted    -0.3609962E-03 ( -21.36%)
   displ. norm   :     0.4446984 α      lambda       -0.4704148E-03
   maximum displ.:     0.2792572 α      in ANC's #3, #6, #4, ...

........................................................................
.............................. CYCLE    9 ..............................
........................................................................

 iter      E             dE          RMSdq      gap      omega  full diag
   1    -72.1956214 -0.721956E+02  0.111E-01    2.40       0.0  T
   2    -72.1956334 -0.119925E-04  0.646E-02    2.42       1.0  T
   3    -72.1956179  0.154910E-04  0.239E-02    2.42       1.0  T
   4    -72.1956378 -0.199345E-04  0.411E-03    2.42       3.8  T
   5    -72.1956382 -0.358611E-06  0.206E-03    2.42       7.5  T
   6    -72.1956382 -0.137684E-07  0.111E-03    2.42      13.9  T
   7    -72.1956382 -0.217356E-07  0.341E-04    2.42      45.3  T
   8    -72.1956382 -0.152777E-08  0.158E-04    2.42      97.8  T
     SCC iter.                  ...        0 min,  0.017 sec
     gradient                   ...        0 min,  0.070 sec
 * total energy  :   -71.3059805 Eh     change       -0.3458433E-03 Eh
   gradient norm :     0.0064884 Eh/α   predicted    -0.2817217E-03 ( -18.54%)
   displ. norm   :     0.3778993 α      lambda       -0.3059470E-03
   maximum displ.:     0.2439839 α      in ANC's #3, #6, #1, ...

........................................................................
.............................. CYCLE   10 ..............................
........................................................................

 iter      E             dE          RMSdq      gap      omega  full diag
   1    -72.1975304 -0.721975E+02  0.888E-02    2.40       0.0  T
   2    -72.1975382 -0.779622E-05  0.519E-02    2.41       1.0  T
   3    -72.1975269  0.113280E-04  0.207E-02    2.41       1.0  T
   4    -72.1975417 -0.148446E-04  0.341E-03    2.42       4.5  T
   5    -72.1975420 -0.218421E-06  0.181E-03    2.42       8.5  T
   6    -72.1975420 -0.840041E-08  0.912E-04    2.42      16.9  T
   7    -72.1975420 -0.175465E-07  0.273E-04    2.42      56.6  T
     SCC iter.                  ...        0 min,  0.015 sec
     gradient                   ...        0 min,  0.024 sec
 * total energy  :   -71.3061950 Eh     change       -0.2145267E-03 Eh
   gradient norm :     0.0050529 Eh/α   predicted    -0.1748203E-03 ( -18.51%)
   displ. norm   :     0.3388224 α      lambda       -0.1868276E-03
   maximum displ.:     0.2214004 α      in ANC's #3, #6, #1, ...

........................................................................
.............................. CYCLE   11 ..............................
........................................................................

 iter      E             dE          RMSdq      gap      omega  full diag
   1    -72.1979313 -0.721979E+02  0.789E-02    2.39       0.0  T
   2    -72.1979409 -0.960239E-05  0.460E-02    2.41       1.0  T
   3    -72.1979338  0.711829E-05  0.185E-02    2.40       1.0  T
   4    -72.1979436 -0.977226E-05  0.349E-03    2.41       4.4  T
   5    -72.1979439 -0.298552E-06  0.162E-03    2.41       9.5  T
   6    -72.1979439 -0.165387E-07  0.909E-04    2.41      17.0  T
   7    -72.1979439 -0.109917E-07  0.293E-04    2.41      52.7  T
     SCC iter.                  ...        0 min,  0.016 sec
     gradient                   ...        0 min,  0.024 sec
 * total energy  :   -71.3063217 Eh     change       -0.1266698E-03 Eh
   gradient norm :     0.0059961 Eh/α   predicted    -0.1041520E-03 ( -17.78%)
   displ. norm   :     0.2669385 α      lambda       -0.1791639E-03
   maximum displ.:     0.1772079 α      in ANC's #3, #6, #1, ...

........................................................................
.............................. CYCLE   12 ..............................
........................................................................

 iter      E             dE          RMSdq      gap      omega  full diag
   1    -72.2029817 -0.722030E+02  0.577E-02    2.39       0.0  T
   2    -72.2029868 -0.516912E-05  0.339E-02    2.40       1.0  T
   3    -72.2029833  0.357055E-05  0.137E-02    2.40       1.1  T
   4    -72.2029885 -0.520156E-05  0.261E-03    2.40       5.9  T
   5    -72.2029886 -0.167698E-06  0.122E-03    2.40      12.6  T
   6    -72.2029886 -0.431301E-08  0.525E-04    2.40      29.4  T
   7    -72.2029887 -0.469839E-08  0.199E-04    2.40      77.5  T
     SCC iter.                  ...        0 min,  0.015 sec
     gradient                   ...        0 min,  0.050 sec
 * total energy  :   -71.3064141 Eh     change       -0.9236655E-04 Eh
   gradient norm :     0.0048924 Eh/α   predicted    -0.9597591E-04 (   3.91%)
   displ. norm   :     0.3646660 α      lambda       -0.1399263E-03
   maximum displ.:     0.2344466 α      in ANC's #3, #6, #1, ...

........................................................................
.............................. CYCLE   13 ..............................
........................................................................

 iter      E             dE          RMSdq      gap      omega  full diag
   1    -72.1990231 -0.721990E+02  0.831E-02    2.38       0.0  T
   2    -72.1990309 -0.779413E-05  0.487E-02    2.39       1.0  T
   3    -72.1990213  0.961916E-05  0.186E-02    2.39       1.0  T
   4    -72.1990339 -0.125915E-04  0.352E-03    2.40       4.4  T
   5    -72.1990341 -0.267051E-06  0.168E-03    2.40       9.2  T
   6    -72.1990341 -0.760477E-08  0.836E-04    2.40      18.5  T
   7    -72.1990341 -0.122552E-07  0.256E-04    2.40      60.2  T
     SCC iter.                  ...        0 min,  0.015 sec
     gradient                   ...        0 min,  0.024 sec
 * total energy  :   -71.3064794 Eh     change       -0.6532038E-04 Eh
   gradient norm :     0.0061867 Eh/α   predicted    -0.7927495E-04 (  21.36%)
   displ. norm   :     0.1011349 α      lambda       -0.1126932E-03
   maximum displ.:     0.0447640 α      in ANC's #4, #5, #1, ...

........................................................................
.............................. CYCLE   14 ..............................
........................................................................

 iter      E             dE          RMSdq      gap      omega  full diag
   1    -72.2008317 -0.722008E+02  0.264E-02    2.39       0.0  T
   2    -72.2008331 -0.139383E-05  0.158E-02    2.39       1.0  T
   3    -72.2008323  0.758785E-06  0.512E-03    2.39       3.0  T
   4    -72.2008332 -0.905032E-06  0.183E-03    2.39       8.4  T
   5    -72.2008334 -0.121008E-06  0.573E-04    2.39      26.9  T
   6    -72.2008334 -0.130838E-08  0.323E-04    2.39      47.8  T
     SCC iter.                  ...        0 min,  0.040 sec
     gradient                   ...        0 min,  0.024 sec
 * total energy  :   -71.3065484 Eh     change       -0.6898766E-04 Eh
   gradient norm :     0.0061814 Eh/α   predicted    -0.5692313E-04 ( -17.49%)
   displ. norm   :     0.1927078 α      lambda       -0.1297511E-03
   maximum displ.:     0.0914000 α      in ANC's #1, #3, #6, ...

........................................................................
.............................. CYCLE   15 ..............................
........................................................................

 iter      E             dE          RMSdq      gap      omega  full diag
   1    -72.2014637 -0.722015E+02  0.430E-02    2.39       0.0  T
   2    -72.2014682 -0.452342E-05  0.259E-02    2.39       1.0  T
   3    -72.2014657  0.251954E-05  0.113E-02    2.39       1.4  T
   4    -72.2014693 -0.359544E-05  0.317E-03    2.39       4.9  T
   5    -72.2014696 -0.325810E-06  0.859E-04    2.39      18.0  T
   6    -72.2014697 -0.471397E-08  0.360E-04    2.39      42.9  T
     SCC iter.                  ...        0 min,  0.059 sec
     gradient                   ...        0 min,  0.024 sec
 * total energy  :   -71.3066320 Eh     change       -0.8358882E-04 Eh
   gradient norm :     0.0042535 Eh/α   predicted    -0.6728554E-04 ( -19.50%)
   displ. norm   :     0.3417411 α      lambda       -0.1034921E-03
   maximum displ.:     0.1840195 α      in ANC's #3, #6, #1, ...

........................................................................
.............................. CYCLE   16 ..............................
........................................................................

 iter      E             dE          RMSdq      gap      omega  full diag
   1    -72.1999066 -0.721999E+02  0.735E-02    2.38       0.0  T
   2    -72.1999106 -0.397281E-05  0.428E-02    2.38       1.0  T
   3    -72.1999081  0.254256E-05  0.999E-03    2.38       1.5  T
   4    -72.1999116 -0.355895E-05  0.268E-03    2.38       5.8  T
   5    -72.1999118 -0.160866E-06  0.134E-03    2.38      11.5  T
   6    -72.1999118 -0.740154E-08  0.558E-04    2.38      27.7  T
   7    -72.1999118 -0.566207E-08  0.185E-04    2.38      83.4  T
     SCC iter.                  ...        0 min,  0.023 sec
     gradient                   ...        0 min,  0.044 sec
 * total energy  :   -71.3067013 Eh     change       -0.6937234E-04 Eh
   gradient norm :     0.0034164 Eh/α   predicted    -0.5779157E-04 ( -16.69%)
   displ. norm   :     0.3449442 α      lambda        0.1620531E-04
   maximum displ.:     0.1857198 α      in ANC's #3, #6, #1, ...

........................................................................
.............................. CYCLE   17 ..............................
........................................................................

 iter      E             dE          RMSdq      gap      omega  full diag
   1    -72.1965929 -0.721966E+02  0.751E-02    2.37       0.0  T
   2    -72.1965983 -0.545294E-05  0.436E-02    2.37       1.0  T
   3    -72.1965959  0.249078E-05  0.106E-02    2.37       1.5  T
   4    -72.1965994 -0.353489E-05  0.310E-03    2.37       5.0  T
   5    -72.1965997 -0.266064E-06  0.143E-03    2.37      10.8  T
   6    -72.1965997 -0.111650E-07  0.665E-04    2.37      23.2  T
   7    -72.1965997 -0.565969E-08  0.210E-04    2.37      73.6  T
     SCC iter.                  ...        0 min,  0.016 sec
     gradient                   ...        0 min,  0.024 sec
 * total energy  :   -71.3066736 Eh     change        0.2771101E-04 Eh
   gradient norm :     0.0067249 Eh/α   predicted     0.9064111E-05 ( -67.29%)
   displ. norm   :     0.1578719 α      lambda       -0.1283439E-03
   maximum displ.:     0.1021269 α      in ANC's #3, #6, #10, ...

........................................................................
.............................. CYCLE   18 ..............................
........................................................................

 iter      E             dE          RMSdq      gap      omega  full diag
   1    -72.2007336 -0.722007E+02  0.391E-02    2.38       0.0  T
   2    -72.2007359 -0.226410E-05  0.228E-02    2.38       1.0  T
   3    -72.2007348  0.105979E-05  0.722E-03    2.38       2.1  T
   4    -72.2007363 -0.146077E-05  0.215E-03    2.38       7.2  T
   5    -72.2007364 -0.141049E-06  0.815E-04    2.38      18.9  T
   6    -72.2007364 -0.396051E-08  0.402E-04    2.38      38.3  T
     SCC iter.                  ...        0 min,  0.013 sec
     gradient                   ...        0 min,  0.024 sec
 * total energy  :   -71.3067471 Eh     change       -0.7344628E-04 Eh
   gradient norm :     0.0032043 Eh/α   predicted    -0.6577253E-04 ( -10.45%)
   displ. norm   :     0.0660588 α      lambda       -0.4815978E-04
   maximum displ.:     0.0358351 α      in ANC's #1, #3, #6, ...

........................................................................
.............................. CYCLE   19 ..............................
........................................................................

 iter      E             dE          RMSdq      gap      omega  full diag
   1    -72.2015570 -0.722016E+02  0.195E-02    2.37       0.0  T
   2    -72.2015599 -0.283012E-05  0.114E-02    2.38       1.4  T
   3    -72.2015598  0.352014E-07  0.579E-03    2.38       2.7  T
   4    -72.2015600 -0.203768E-06  0.205E-03    2.38       7.5  T
   5    -72.2015602 -0.140313E-06  0.456E-04    2.38      33.8  T
   6    -72.2015602 -0.388273E-08  0.246E-04    2.38      62.8  T
     SCC iter.                  ...        0 min,  0.013 sec
     gradient                   ...        0 min,  0.063 sec
 * total energy  :   -71.3067757 Eh     change       -0.2865464E-04 Eh
   gradient norm :     0.0039020 Eh/α   predicted    -0.2418844E-04 ( -15.59%)
   displ. norm   :     0.1666099 α      lambda       -0.5241827E-04
   maximum displ.:     0.0987176 α      in ANC's #1, #6, #3, ...

........................................................................
.............................. CYCLE   20 ..............................
........................................................................

 iter      E             dE          RMSdq      gap      omega  full diag
   1    -72.2023755 -0.722024E+02  0.330E-02    2.37       0.0  T
   2    -72.2023774 -0.181963E-05  0.191E-02    2.37       1.0  T
   3    -72.2023760  0.140034E-05  0.855E-03    2.37       1.8  T
   4    -72.2023780 -0.206759E-05  0.143E-03    2.37      10.8  T
   5    -72.2023781 -0.457268E-07  0.717E-04    2.37      21.5  T
   6    -72.2023781 -0.122523E-08  0.326E-04    2.37      47.3  T
     SCC iter.                  ...        0 min,  0.013 sec
     gradient                   ...        0 min,  0.063 sec
 * total energy  :   -71.3068148 Eh     change       -0.3911360E-04 Eh
   gradient norm :     0.0032785 Eh/α   predicted    -0.2694097E-04 ( -31.12%)
   displ. norm   :     0.3574931 α      lambda       -0.7529202E-04
   maximum displ.:     0.2088561 α      in ANC's #1, #3, #6, ...
 * RMSD in coord.:     0.7430429 α      energy gain  -0.1746705E-01 Eh

generating ANC from exact Hessian ...
Using Lindh-Hessian (1995)
 Shifting diagonal of input Hessian by    9.5726043602407714E-003
 Lowest  eigenvalues of input Hessian
    0.000000    0.000000    0.000000    0.000000    0.000000    0.000000
    0.010000    0.010259    0.010884    0.011704    0.012211    0.012575
    0.013569    0.015098    0.016090    0.017719    0.020224    0.020752
 Highest eigenvalues
    1.972285    2.081583    2.115556    2.202367    2.299785    2.393827


........................................................................
.............................. CYCLE   21 ..............................
........................................................................

 iter      E             dE          RMSdq      gap      omega  full diag
   1    -72.2012588 -0.722013E+02  0.721E-02    2.36       0.0  T
   2    -72.2012654 -0.659776E-05  0.415E-02    2.37       1.0  T
   3    -72.2012595  0.580302E-05  0.166E-02    2.36       1.0  T
   4    -72.2012678 -0.825469E-05  0.294E-03    2.37       5.2  T
   5    -72.2012680 -0.167468E-06  0.151E-03    2.37      10.2  T
   6    -72.2012680 -0.883125E-08  0.616E-04    2.37      25.1  T
   7    -72.2012680 -0.832260E-08  0.207E-04    2.37      74.5  T
     SCC iter.                  ...        0 min,  0.015 sec
     gradient                   ...        0 min,  0.063 sec
 * total energy  :   -71.3068648 Eh     change       -0.5001072E-04 Eh
   gradient norm :     0.0054089 Eh/α   predicted     0.0000000E+00 (-100.00%)
   displ. norm   :     0.0329817 α      lambda       -0.3292174E-04
   maximum displ.:     0.0199403 α      in ANC's #8, #1, #6, ...

........................................................................
.............................. CYCLE   22 ..............................
........................................................................

 iter      E             dE          RMSdq      gap      omega  full diag
   1    -72.2018532 -0.722019E+02  0.119E-02    2.37       0.0  T
   2    -72.2018538 -0.559782E-06  0.722E-03    2.37       2.1  T
   3    -72.2018537  0.959227E-07  0.311E-03    2.37       5.0  T
   4    -72.2018539 -0.184992E-06  0.748E-04    2.37      20.6  T
   5    -72.2018539 -0.140077E-07  0.356E-04    2.37      43.4  T
     SCC iter.                  ...        0 min,  0.011 sec
     gradient                   ...        0 min,  0.075 sec
 * total energy  :   -71.3068982 Eh     change       -0.3330894E-04 Eh
   gradient norm :     0.0021406 Eh/α   predicted    -0.2228628E-04 ( -33.09%)
   displ. norm   :     0.0688123 α      lambda       -0.4120117E-04
   maximum displ.:     0.0452235 α      in ANC's #8, #1, #11, ...

........................................................................
.............................. CYCLE   23 ..............................
........................................................................

 iter      E             dE          RMSdq      gap      omega  full diag
   1    -72.2023122 -0.722023E+02  0.212E-02    2.37       0.0  T
   2    -72.2023129 -0.689694E-06  0.124E-02    2.37       1.2  T
   3    -72.2023126  0.235489E-06  0.377E-03    2.37       4.1  T
   4    -72.2023130 -0.370339E-06  0.885E-04    2.37      17.4  T
   5    -72.2023130 -0.133670E-07  0.485E-04    2.37      31.8  T
     SCC iter.                  ...        0 min,  0.011 sec
     gradient                   ...        0 min,  0.024 sec
 * total energy  :   -71.3069257 Eh     change       -0.2757162E-04 Eh
   gradient norm :     0.0019415 Eh/α   predicted    -0.2069972E-04 ( -24.92%)
   displ. norm   :     0.1065192 α      lambda       -0.2299574E-04
   maximum displ.:     0.0689763 α      in ANC's #8, #1, #11, ...

........................................................................
.............................. CYCLE   24 ..............................
........................................................................

 iter      E             dE          RMSdq      gap      omega  full diag
   1    -72.2022257 -0.722022E+02  0.327E-02    2.37       0.0  T
   2    -72.2022263 -0.671495E-06  0.191E-02    2.38       1.0  T
   3    -72.2022260  0.274023E-06  0.399E-03    2.38       3.9  T
   4    -72.2022265 -0.465071E-06  0.114E-03    2.38      13.5  T
   5    -72.2022265 -0.203973E-07  0.595E-04    2.38      25.9  T
   6    -72.2022265 -0.205618E-08  0.270E-04    2.38      57.1  T
     SCC iter.                  ...        0 min,  0.049 sec
     gradient                   ...        0 min,  0.024 sec
 * total energy  :   -71.3069482 Eh     change       -0.2251096E-04 Eh
   gradient norm :     0.0030925 Eh/α   predicted    -0.1155623E-04 ( -48.66%)
   displ. norm   :     0.0685662 α      lambda       -0.2072584E-04
   maximum displ.:     0.0444848 α      in ANC's #1, #8, #11, ...

........................................................................
.............................. CYCLE   25 ..............................
........................................................................

 iter      E             dE          RMSdq      gap      omega  full diag
   1    -72.2020719 -0.722021E+02  0.205E-02    2.38       0.0  T
   2    -72.2020721 -0.215084E-06  0.119E-02    2.38       1.3  T
   3    -72.2020718  0.243790E-06  0.320E-03    2.38       4.8  T
   4    -72.2020722 -0.350007E-06  0.668E-04    2.38      23.1  T
   5    -72.2020722 -0.379173E-08  0.401E-04    2.38      38.5  T
     SCC iter.                  ...        0 min,  0.011 sec
     gradient                   ...        0 min,  0.063 sec
 * total energy  :   -71.3069651 Eh     change       -0.1691045E-04 Eh
   gradient norm :     0.0023891 Eh/α   predicted    -0.1041186E-04 ( -38.43%)
   displ. norm   :     0.1091846 α      lambda       -0.2958230E-04
   maximum displ.:     0.0737620 α      in ANC's #1, #8, #11, ...

........................................................................
.............................. CYCLE   26 ..............................
........................................................................

 iter      E             dE          RMSdq      gap      omega  full diag
   1    -72.2017577 -0.722018E+02  0.334E-02    2.38       0.0  T
   2    -72.2017583 -0.676244E-06  0.195E-02    2.38       1.0  T
   3    -72.2017576  0.684092E-06  0.560E-03    2.38       2.8  T
   4    -72.2017586 -0.985774E-06  0.112E-03    2.38      13.7  T
   5    -72.2017586 -0.117416E-07  0.672E-04    2.38      23.0  T
   6    -72.2017586 -0.215771E-08  0.250E-04    2.38      61.7  T
     SCC iter.                  ...        0 min,  0.013 sec
     gradient                   ...        0 min,  0.073 sec
 * total energy  :   -71.3069868 Eh     change       -0.2160741E-04 Eh
   gradient norm :     0.0019055 Eh/α   predicted    -0.1498946E-04 ( -30.63%)
   displ. norm   :     0.1307265 α      lambda       -0.1710051E-04
   maximum displ.:     0.0933081 α      in ANC's #1, #8, #5, ...

........................................................................
.............................. CYCLE   27 ..............................
........................................................................

 iter      E             dE          RMSdq      gap      omega  full diag
   1    -72.2016820 -0.722017E+02  0.379E-02    2.38       0.0  T
   2    -72.2016828 -0.769950E-06  0.221E-02    2.38       1.0  T
   3    -72.2016819  0.830574E-06  0.584E-03    2.38       2.6  T
   4    -72.2016831 -0.118637E-05  0.127E-03    2.38      12.1  T
   5    -72.2016831 -0.168998E-07  0.752E-04    2.38      20.5  T
   6    -72.2016831 -0.260528E-08  0.280E-04    2.38      55.2  T
     SCC iter.                  ...        0 min,  0.013 sec
     gradient                   ...        0 min,  0.074 sec
 * total energy  :   -71.3070047 Eh     change       -0.1792226E-04 Eh
   gradient norm :     0.0024973 Eh/α   predicted    -0.8620083E-05 ( -51.90%)
   displ. norm   :     0.0532718 α      lambda       -0.1363648E-04
   maximum displ.:     0.0406903 α      in ANC's #1, #5, #8, ...

........................................................................
.............................. CYCLE   28 ..............................
........................................................................

 iter      E             dE          RMSdq      gap      omega  full diag
   1    -72.2020351 -0.722020E+02  0.130E-02    2.38       0.0  T
   2    -72.2020352 -0.121463E-06  0.762E-03    2.38       2.0  T
   3    -72.2020351  0.778941E-07  0.167E-03    2.38       9.2  T
   4    -72.2020352 -0.107547E-06  0.529E-04    2.38      29.2  T
   5    -72.2020353 -0.655501E-08  0.255E-04    2.38      60.5  T
     SCC iter.                  ...        0 min,  0.011 sec
     gradient                   ...        0 min,  0.024 sec
 * total energy  :   -71.3070165 Eh     change       -0.1180326E-04 Eh
   gradient norm :     0.0017307 Eh/α   predicted    -0.6845075E-05 ( -42.01%)
   displ. norm   :     0.1596563 α      lambda       -0.2301316E-04
   maximum displ.:     0.1175368 α      in ANC's #1, #5, #8, ...

........................................................................
.............................. CYCLE   29 ..............................
........................................................................

 iter      E             dE          RMSdq      gap      omega  full diag
   1    -72.2023750 -0.722024E+02  0.390E-02    2.38       0.0  T
   2    -72.2023755 -0.466750E-06  0.228E-02    2.38       1.0  T
   3    -72.2023754  0.946726E-07  0.303E-03    2.38       5.1  T
   4    -72.2023757 -0.310741E-06  0.121E-03    2.38      12.7  T
   5    -72.2023757 -0.120642E-07  0.651E-04    2.38      23.7  T
   6    -72.2023757 -0.369529E-08  0.235E-04    2.38      65.7  T
     SCC iter.                  ...        0 min,  0.058 sec
     gradient                   ...        0 min,  0.024 sec
 * total energy  :   -71.3070417 Eh     change       -0.2525755E-04 Eh
   gradient norm :     0.0013285 Eh/α   predicted    -0.1163716E-04 ( -53.93%)
   displ. norm   :     0.1498542 α      lambda       -0.1551816E-04
   maximum displ.:     0.1100616 α      in ANC's #1, #5, #3, ...

........................................................................
.............................. CYCLE   30 ..............................
........................................................................

 iter      E             dE          RMSdq      gap      omega  full diag
   1    -72.2022850 -0.722023E+02  0.349E-02    2.37       0.0  T
   2    -72.2022854 -0.365850E-06  0.203E-02    2.37       1.0  T
   3    -72.2022854 -0.392026E-07  0.221E-03    2.37       7.0  T
   4    -72.2022856 -0.118896E-06  0.107E-03    2.37      14.5  T
   5    -72.2022856 -0.103136E-07  0.559E-04    2.37      27.6  T
   6    -72.2022856 -0.293215E-08  0.183E-04    2.37      84.4  T
     SCC iter.                  ...        0 min,  0.058 sec
     gradient                   ...        0 min,  0.024 sec
 * total energy  :   -71.3070618 Eh     change       -0.2006790E-04 Eh
   gradient norm :     0.0014738 Eh/α   predicted    -0.7838015E-05 ( -60.94%)
   displ. norm   :     0.1783408 α      lambda       -0.1937925E-04
   maximum displ.:     0.1302164 α      in ANC's #1, #5, #3, ...

........................................................................
.............................. CYCLE   31 ..............................
........................................................................

 iter      E             dE          RMSdq      gap      omega  full diag
   1    -72.2023659 -0.722024E+02  0.387E-02    2.37       0.0  T
   2    -72.2023664 -0.494067E-06  0.226E-02    2.37       1.0  T
   3    -72.2023663  0.152878E-06  0.330E-03    2.37       4.7  T
   4    -72.2023667 -0.367735E-06  0.123E-03    2.37      12.6  T
   5    -72.2023667 -0.121097E-07  0.650E-04    2.37      23.8  T
   6    -72.2023667 -0.390679E-08  0.195E-04    2.37      79.0  T
     SCC iter.                  ...        0 min,  0.013 sec
     gradient                   ...        0 min,  0.069 sec
 * total energy  :   -71.3070863 Eh     change       -0.2445304E-04 Eh
   gradient norm :     0.0011354 Eh/α   predicted    -0.9827108E-05 ( -59.81%)
   displ. norm   :     0.2233206 α      lambda       -0.2162841E-04
   maximum displ.:     0.1636938 α      in ANC's #1, #5, #3, ...

........................................................................
.............................. CYCLE   32 ..............................
........................................................................

 iter      E             dE          RMSdq      gap      omega  full diag
   1    -72.2022195 -0.722022E+02  0.469E-02    2.37       0.0  T
   2    -72.2022205 -0.962653E-06  0.272E-02    2.37       1.0  T
   3    -72.2022200  0.437652E-06  0.501E-03    2.37       3.1  T
   4    -72.2022208 -0.818778E-06  0.152E-03    2.37      10.1  T
   5    -72.2022208 -0.159943E-07  0.822E-04    2.37      18.8  T
   6    -72.2022209 -0.591228E-08  0.292E-04    2.37      52.9  T
     SCC iter.                  ...        0 min,  0.013 sec
     gradient                   ...        0 min,  0.063 sec
 * total energy  :   -71.3071127 Eh     change       -0.2639828E-04 Eh
   gradient norm :     0.0011535 Eh/α   predicted    -0.1105566E-04 ( -58.12%)
   displ. norm   :     0.2456549 α      lambda       -0.2226570E-04
   maximum displ.:     0.1811782 α      in ANC's #1, #6, #3, ...

........................................................................
.............................. CYCLE   33 ..............................
........................................................................

 iter      E             dE          RMSdq      gap      omega  full diag
   1    -72.2023020 -0.722023E+02  0.490E-02    2.37       0.0  T
   2    -72.2023034 -0.134669E-05  0.283E-02    2.37       1.0  T
   3    -72.2023021  0.129679E-05  0.717E-03    2.37       2.2  T
   4    -72.2023039 -0.184546E-05  0.172E-03    2.37       9.0  T
   5    -72.2023040 -0.260653E-07  0.949E-04    2.37      16.3  T
   6    -72.2023040 -0.669699E-08  0.335E-04    2.37      46.1  T
     SCC iter.                  ...        0 min,  0.013 sec
     gradient                   ...        0 min,  0.024 sec
 * total energy  :   -71.3071410 Eh     change       -0.2834358E-04 Eh
   gradient norm :     0.0015670 Eh/α   predicted    -0.1143427E-04 ( -59.66%)
   displ. norm   :     0.3515658 α      lambda       -0.3179372E-04
   maximum displ.:     0.2602123 α      in ANC's #1, #6, #3, ...

........................................................................
.............................. CYCLE   34 ..............................
........................................................................

 iter      E             dE          RMSdq      gap      omega  full diag
   1    -72.2017019 -0.722017E+02  0.706E-02    2.36       0.0  T
   2    -72.2017047 -0.274419E-05  0.406E-02    2.37       1.0  T
   3    -72.2017018  0.288718E-05  0.109E-02    2.37       1.4  T
   4    -72.2017059 -0.413784E-05  0.249E-03    2.37       6.2  T
   5    -72.2017059 -0.389498E-07  0.139E-03    2.37      11.1  T
   6    -72.2017060 -0.181860E-07  0.467E-04    2.37      33.1  T
   7    -72.2017060 -0.506002E-08  0.178E-04    2.37      86.7  T
     SCC iter.                  ...        0 min,  0.015 sec
     gradient                   ...        0 min,  0.024 sec
 * total energy  :   -71.3071806 Eh     change       -0.3963579E-04 Eh
   gradient norm :     0.0030960 Eh/α   predicted    -0.1677063E-04 ( -57.69%)
   displ. norm   :     0.5544493 α      lambda       -0.8378422E-04
   maximum displ.:     0.4073333 α      in ANC's #1, #6, #3, ...

........................................................................
.............................. CYCLE   35 ..............................
........................................................................

 iter      E             dE          RMSdq      gap      omega  full diag
   1    -72.2006977 -0.722007E+02  0.105E-01    2.36       0.0  T
   2    -72.2007052 -0.755181E-05  0.605E-02    2.37       1.0  T
   3    -72.2006981  0.708831E-05  0.167E-02    2.37       1.0  T
   4    -72.2007080 -0.990350E-05  0.398E-03    2.37       3.9  T
   5    -72.2007082 -0.158677E-06  0.209E-03    2.37       7.4  T
   6    -72.2007082 -0.326316E-07  0.786E-04    2.37      19.6  T
   7    -72.2007082 -0.109838E-07  0.261E-04    2.37      59.1  T
     SCC iter.                  ...        0 min,  0.058 sec
     gradient                   ...        0 min,  0.024 sec
 * total energy  :   -71.3072258 Eh     change       -0.4513185E-04 Eh
   gradient norm :     0.0057293 Eh/α   predicted    -0.5477312E-04 (  21.36%)
   displ. norm   :     0.1611118 α      lambda       -0.6775520E-04
   maximum displ.:     0.1197556 α      in ANC's #1, #6, #3, ...

........................................................................
.............................. CYCLE   36 ..............................
........................................................................

 iter      E             dE          RMSdq      gap      omega  full diag
   1    -72.2017903 -0.722018E+02  0.309E-02    2.37       0.0  T
   2    -72.2017911 -0.779369E-06  0.177E-02    2.37       1.0  T
   3    -72.2017905  0.595883E-06  0.526E-03    2.37       2.9  T
   4    -72.2017914 -0.890886E-06  0.126E-03    2.37      12.3  T
   5    -72.2017914 -0.143493E-07  0.683E-04    2.37      22.6  T
   6    -72.2017914 -0.359762E-08  0.253E-04    2.37      61.0  T
     SCC iter.                  ...        0 min,  0.058 sec
     gradient                   ...        0 min,  0.024 sec
 * total energy  :   -71.3072827 Eh     change       -0.5695220E-04 Eh
   gradient norm :     0.0045353 Eh/α   predicted    -0.3476203E-04 ( -38.96%)
   displ. norm   :     0.4355835 α      lambda       -0.1474053E-03
   maximum displ.:     0.3113363 α      in ANC's #1, #6, #3, ...

........................................................................
.............................. CYCLE   37 ..............................
........................................................................

 iter      E             dE          RMSdq      gap      omega  full diag
   1    -72.2031810 -0.722032E+02  0.815E-02    2.36       0.0  T
   2    -72.2031847 -0.372010E-05  0.467E-02    2.37       1.0  T
   3    -72.2031810  0.370097E-05  0.120E-02    2.37       1.3  T
   4    -72.2031864 -0.541024E-05  0.302E-03    2.37       5.1  T
   5    -72.2031865 -0.477170E-07  0.157E-03    2.37       9.8  T
   6    -72.2031865 -0.267454E-07  0.462E-04    2.37      33.4  T
   7    -72.2031865 -0.549818E-08  0.156E-04    2.37      98.8  T
     SCC iter.                  ...        0 min,  0.015 sec
     gradient                   ...        0 min,  0.057 sec
 * total energy  :   -71.3074079 Eh     change       -0.1251390E-03 Eh
   gradient norm :     0.0040277 Eh/α   predicted    -0.8768916E-04 ( -29.93%)
   displ. norm   :     0.6911035 α      lambda       -0.2115792E-03
   maximum displ.:     0.4780455 α      in ANC's #1, #6, #3, ...

........................................................................
.............................. CYCLE   38 ..............................
........................................................................

 iter      E             dE          RMSdq      gap      omega  full diag
   1    -72.2002720 -0.722003E+02  0.129E-01    2.37       0.0  T
   2    -72.2002793 -0.732508E-05  0.737E-02    2.37       1.0  T
   3    -72.2002745  0.484704E-05  0.147E-02    2.37       1.1  T
   4    -72.2002826 -0.814494E-05  0.457E-03    2.37       3.4  T
   5    -72.2002827 -0.106567E-06  0.208E-03    2.37       7.4  T
   6    -72.2002828 -0.590157E-07  0.508E-04    2.37      30.4  T
   7    -72.2002828 -0.551400E-08  0.214E-04    2.37      72.3  T
     SCC iter.                  ...        0 min,  0.015 sec
     gradient                   ...        0 min,  0.024 sec
 * total energy  :   -71.3075728 Eh     change       -0.1649570E-03 Eh
   gradient norm :     0.0065563 Eh/α   predicted    -0.1563194E-03 (  -5.24%)
   displ. norm   :     0.5620662 α      lambda       -0.5309160E-03
   maximum displ.:     0.2638343 α      in ANC's #6, #5, #9, ...

........................................................................
.............................. CYCLE   39 ..............................
........................................................................

 iter      E             dE          RMSdq      gap      omega  full diag
   1    -72.2070692 -0.722071E+02  0.123E-01    2.36       0.0  T
   2    -72.2070824 -0.132760E-04  0.714E-02    2.36       1.0  T
   3    -72.2070788  0.360403E-05  0.136E-02    2.36       1.1  T
   4    -72.2070848 -0.599184E-05  0.471E-03    2.36       3.3  T
   5    -72.2070853 -0.500512E-06  0.221E-03    2.36       7.0  T
   6    -72.2070854 -0.331469E-07  0.986E-04    2.36      15.6  T
   7    -72.2070854 -0.173362E-07  0.275E-04    2.36      56.2  T
     SCC iter.                  ...        0 min,  0.048 sec
     gradient                   ...        0 min,  0.024 sec
 * total energy  :   -71.3076335 Eh     change       -0.6063939E-04 Eh
   gradient norm :     0.0151202 Eh/α   predicted    -0.3493211E-03 ( 476.06%)
   displ. norm   :     0.4682633 α      lambda       -0.4341194E-03
   maximum displ.:     0.3309224 α      in ANC's #1, #6, #3, ...

........................................................................
.............................. CYCLE   40 ..............................
........................................................................

 iter      E             dE          RMSdq      gap      omega  full diag
   1    -72.1985428 -0.721985E+02  0.903E-02    2.37       0.0  T
   2    -72.1985516 -0.880078E-05  0.524E-02    2.36       1.0  T
   3    -72.1985433  0.832042E-05  0.171E-02    2.37       1.0  T
   4    -72.1985543 -0.110141E-04  0.419E-03    2.36       3.7  T
   5    -72.1985547 -0.407068E-06  0.205E-03    2.36       7.5  T
   6    -72.1985547 -0.980121E-08  0.838E-04    2.36      18.4  T
   7    -72.1985547 -0.163038E-07  0.238E-04    2.36      64.9  T
     SCC iter.                  ...        0 min,  0.015 sec
     gradient                   ...        0 min,  0.057 sec
 * total energy  :   -71.3078124 Eh     change       -0.1788991E-03 Eh
   gradient norm :     0.0097449 Eh/α   predicted    -0.2646603E-03 (  47.94%)
   displ. norm   :     0.3954214 α      lambda       -0.3595797E-03
   maximum displ.:     0.2277856 α      in ANC's #6, #1, #3, ...

........................................................................
.............................. CYCLE   41 ..............................
........................................................................

 iter      E             dE          RMSdq      gap      omega  full diag
   1    -72.2009579 -0.722010E+02  0.949E-02    2.35       0.0  T
   2    -72.2009719 -0.139890E-04  0.552E-02    2.36       1.0  T
   3    -72.2009657  0.620954E-05  0.179E-02    2.36       1.0  T
   4    -72.2009750 -0.924651E-05  0.445E-03    2.36       3.5  T
   5    -72.2009753 -0.355481E-06  0.218E-03    2.36       7.1  T
   6    -72.2009754 -0.523489E-07  0.105E-03    2.36      14.7  T
   7    -72.2009754 -0.138660E-07  0.317E-04    2.36      48.7  T
   8    -72.2009754 -0.170533E-08  0.140E-04    2.36     110.3  T
     SCC iter.                  ...        0 min,  0.017 sec
     gradient                   ...        0 min,  0.069 sec
 * total energy  :   -71.3077815 Eh     change        0.3086361E-04 Eh
   gradient norm :     0.0132875 Eh/α   predicted    -0.2079078E-03 (-773.63%)
   displ. norm   :     0.2553377 α      lambda       -0.3444076E-03
   maximum displ.:     0.1398807 α      in ANC's #6, #1, #3, ...

........................................................................
.............................. CYCLE   42 ..............................
........................................................................

 iter      E             dE          RMSdq      gap      omega  full diag
   1    -72.2036206 -0.722036E+02  0.593E-02    2.37       0.0  T
   2    -72.2036286 -0.799097E-05  0.345E-02    2.36       1.0  T
   3    -72.2036277  0.868130E-06  0.102E-02    2.36       1.5  T
   4    -72.2036297 -0.194690E-05  0.211E-03    2.36       7.3  T
   5    -72.2036297 -0.413393E-07  0.123E-03    2.36      12.6  T
   6    -72.2036297 -0.119320E-07  0.693E-04    2.36      22.3  T
   7    -72.2036297 -0.742627E-08  0.180E-04    2.36      85.9  T
     SCC iter.                  ...        0 min,  0.015 sec
     gradient                   ...        0 min,  0.069 sec
 * total energy  :   -71.3079956 Eh     change       -0.2141551E-03 Eh
   gradient norm :     0.0031007 Eh/α   predicted    -0.1834337E-03 ( -14.35%)
   displ. norm   :     0.4599063 α      lambda       -0.1955929E-03
   maximum displ.:     0.2353872 α      in ANC's #1, #6, #3, ...
 * RMSD in coord.:     0.6952257 α      energy gain  -0.1180812E-02 Eh

generating ANC from exact Hessian ...
Using Lindh-Hessian (1995)
 Shifting diagonal of input Hessian by    9.6056120853927514E-003
 Lowest  eigenvalues of input Hessian
    0.000000    0.000000    0.000000    0.000000    0.000000    0.000000
    0.010000    0.010241    0.011047    0.011815    0.012284    0.012324
    0.013577    0.015082    0.015731    0.017503    0.020419    0.021321
 Highest eigenvalues
    1.970115    2.071630    2.111923    2.201377    2.300066    2.401406


........................................................................
.............................. CYCLE   43 ..............................
........................................................................

 iter      E             dE          RMSdq      gap      omega  full diag
   1    -72.2010299 -0.722010E+02  0.826E-02    2.37       0.0  T
   2    -72.2010340 -0.409335E-05  0.475E-02    2.36       1.0  T
   3    -72.2010315  0.250021E-05  0.102E-02    2.36       1.5  T
   4    -72.2010353 -0.381595E-05  0.278E-03    2.36       5.5  T
   5    -72.2010354 -0.902744E-07  0.140E-03    2.36      11.0  T
   6    -72.2010354 -0.135441E-07  0.551E-04    2.36      28.0  T
   7    -72.2010354 -0.857673E-08  0.130E-04    2.36     118.6  T
     SCC iter.                  ...        0 min,  0.015 sec
     gradient                   ...        0 min,  0.063 sec
 * total energy  :   -71.3081281 Eh     change       -0.1324907E-03 Eh
   gradient norm :     0.0073407 Eh/α   predicted     0.0000000E+00 (-100.00%)
   displ. norm   :     0.0625494 α      lambda       -0.1328302E-03
   maximum displ.:     0.0323592 α      in ANC's #2, #3, #6, ...

........................................................................
.............................. CYCLE   44 ..............................
........................................................................

 iter      E             dE          RMSdq      gap      omega  full diag
   1    -72.2028941 -0.722029E+02  0.198E-02    2.36       0.0  T
   2    -72.2028950 -0.891792E-06  0.117E-02    2.36       1.3  T
   3    -72.2028948  0.241084E-06  0.356E-03    2.36       4.3  T
   4    -72.2028950 -0.265634E-06  0.143E-03    2.36      10.8  T
   5    -72.2028951 -0.816091E-07  0.359E-04    2.36      43.0  T
   6    -72.2028951 -0.384262E-09  0.189E-04    2.36      81.5  T
     SCC iter.                  ...        0 min,  0.013 sec
     gradient                   ...        0 min,  0.024 sec
 * total energy  :   -71.3082290 Eh     change       -0.1008323E-03 Eh
   gradient norm :     0.0028760 Eh/α   predicted    -0.6910798E-04 ( -31.46%)
   displ. norm   :     0.1211939 α      lambda       -0.1122491E-03
   maximum displ.:     0.0649316 α      in ANC's #2, #3, #6, ...

........................................................................
.............................. CYCLE   45 ..............................
........................................................................

 iter      E             dE          RMSdq      gap      omega  full diag
   1    -72.2044846 -0.722045E+02  0.289E-02    2.35       0.0  T
   2    -72.2044858 -0.125717E-05  0.168E-02    2.35       1.0  T
   3    -72.2044854  0.451632E-06  0.479E-03    2.35       3.2  T
   4    -72.2044859 -0.532708E-06  0.181E-03    2.35       8.5  T
   5    -72.2044860 -0.117781E-06  0.537E-04    2.35      28.7  T
   6    -72.2044860 -0.881911E-09  0.256E-04    2.35      60.4  T
     SCC iter.                  ...        0 min,  0.046 sec
     gradient                   ...        0 min,  0.024 sec
 * total energy  :   -71.3083067 Eh     change       -0.7773789E-04 Eh
   gradient norm :     0.0027378 Eh/α   predicted    -0.5695303E-04 ( -26.74%)
   displ. norm   :     0.1372472 α      lambda       -0.7348848E-04
   maximum displ.:     0.0751084 α      in ANC's #2, #3, #6, ...

........................................................................
.............................. CYCLE   46 ..............................
........................................................................

 iter      E             dE          RMSdq      gap      omega  full diag
   1    -72.2047868 -0.722048E+02  0.310E-02    2.35       0.0  T
   2    -72.2047876 -0.807415E-06  0.180E-02    2.35       1.0  T
   3    -72.2047869  0.713529E-06  0.535E-03    2.35       2.9  T
   4    -72.2047878 -0.888979E-06  0.146E-03    2.35      10.6  T
   5    -72.2047878 -0.606581E-07  0.572E-04    2.35      27.0  T
   6    -72.2047878 -0.969564E-09  0.242E-04    2.35      63.7  T
     SCC iter.                  ...        0 min,  0.064 sec
     gradient                   ...        0 min,  0.024 sec
 * total energy  :   -71.3083655 Eh     change       -0.5875918E-04 Eh
   gradient norm :     0.0040080 Eh/α   predicted    -0.3743663E-04 ( -36.29%)
   displ. norm   :     0.2043224 α      lambda       -0.9489829E-04
   maximum displ.:     0.1122333 α      in ANC's #2, #3, #6, ...

........................................................................
.............................. CYCLE   47 ..............................
........................................................................

 iter      E             dE          RMSdq      gap      omega  full diag
   1    -72.2042542 -0.722043E+02  0.432E-02    2.35       0.0  T
   2    -72.2042552 -0.988964E-06  0.250E-02    2.35       1.0  T
   3    -72.2042536  0.152468E-05  0.746E-03    2.35       2.1  T
   4    -72.2042556 -0.196685E-05  0.158E-03    2.35       9.7  T
   5    -72.2042556 -0.381887E-07  0.816E-04    2.35      18.9  T
   6    -72.2042556 -0.134662E-08  0.327E-04    2.35      47.1  T
     SCC iter.                  ...        0 min,  0.059 sec
     gradient                   ...        0 min,  0.024 sec
 * total energy  :   -71.3084396 Eh     change       -0.7415528E-04 Eh
   gradient norm :     0.0037892 Eh/α   predicted    -0.4943019E-04 ( -33.34%)
   displ. norm   :     0.2436352 α      lambda       -0.9294820E-04
   maximum displ.:     0.1362416 α      in ANC's #2, #3, #6, ...

........................................................................
.............................. CYCLE   48 ..............................
........................................................................

 iter      E             dE          RMSdq      gap      omega  full diag
   1    -72.2031836 -0.722032E+02  0.498E-02    2.35       0.0  T
   2    -72.2031849 -0.130363E-05  0.288E-02    2.34       1.0  T
   3    -72.2031824  0.249001E-05  0.949E-03    2.35       1.6  T
   4    -72.2031856 -0.321648E-05  0.179E-03    2.35       8.6  T
   5    -72.2031856 -0.292230E-07  0.996E-04    2.35      15.5  T
   6    -72.2031856 -0.495584E-08  0.415E-04    2.35      37.1  T
     SCC iter.                  ...        0 min,  0.013 sec
     gradient                   ...        0 min,  0.069 sec
 * total energy  :   -71.3085083 Eh     change       -0.6870961E-04 Eh
   gradient norm :     0.0033974 Eh/α   predicted    -0.4923563E-04 ( -28.34%)
   displ. norm   :     0.2250917 α      lambda       -0.7790834E-04
   maximum displ.:     0.1289003 α      in ANC's #2, #3, #6, ...

........................................................................
.............................. CYCLE   49 ..............................
........................................................................

 iter      E             dE          RMSdq      gap      omega  full diag
   1    -72.2026764 -0.722027E+02  0.437E-02    2.35       0.0  T
   2    -72.2026780 -0.159775E-05  0.252E-02    2.34       1.0  T
   3    -72.2026757  0.234713E-05  0.972E-03    2.35       1.6  T
   4    -72.2026788 -0.314448E-05  0.174E-03    2.34       8.9  T
   5    -72.2026789 -0.334367E-07  0.979E-04    2.34      15.8  T
   6    -72.2026789 -0.680623E-08  0.435E-04    2.34      35.4  T
     SCC iter.                  ...        0 min,  0.013 sec
     gradient                   ...        0 min,  0.070 sec
 * total energy  :   -71.3085668 Eh     change       -0.5851293E-04 Eh
   gradient norm :     0.0032317 Eh/α   predicted    -0.4093232E-04 ( -30.05%)
   displ. norm   :     0.2142087 α      lambda       -0.8044935E-04
   maximum displ.:     0.1252750 α      in ANC's #2, #3, #6, ...

........................................................................
.............................. CYCLE   50 ..............................
........................................................................

 iter      E             dE          RMSdq      gap      omega  full diag
   1    -72.2027936 -0.722028E+02  0.426E-02    2.35       0.0  T
   2    -72.2027963 -0.265939E-05  0.245E-02    2.34       1.0  T
   3    -72.2027938  0.249389E-05  0.111E-02    2.34       1.4  T
   4    -72.2027974 -0.362435E-05  0.191E-03    2.34       8.1  T
   5    -72.2027975 -0.601040E-07  0.101E-03    2.34      15.2  T
   6    -72.2027975 -0.526592E-08  0.479E-04    2.34      32.2  T
   7    -72.2027975 -0.410870E-08  0.142E-04    2.34     108.5  T
     SCC iter.                  ...        0 min,  0.015 sec
     gradient                   ...        0 min,  0.069 sec
 * total energy  :   -71.3086245 Eh     change       -0.5767310E-04 Eh
   gradient norm :     0.0032357 Eh/α   predicted    -0.4207069E-04 ( -27.05%)
   displ. norm   :     0.1494590 α      lambda       -0.5467526E-04
   maximum displ.:     0.0870124 α      in ANC's #2, #5, #6, ...

........................................................................
.............................. CYCLE   51 ..............................
........................................................................

 iter      E             dE          RMSdq      gap      omega  full diag
   1    -72.2034736 -0.722035E+02  0.302E-02    2.35       0.0  T
   2    -72.2034756 -0.202563E-05  0.174E-02    2.34       1.0  T
   3    -72.2034744  0.117490E-05  0.856E-03    2.34       1.8  T
   4    -72.2034764 -0.192728E-05  0.148E-03    2.34      10.4  T
   5    -72.2034764 -0.506672E-07  0.712E-04    2.34      21.7  T
   6    -72.2034764 -0.195212E-08  0.350E-04    2.34      44.0  T
     SCC iter.                  ...        0 min,  0.013 sec
     gradient                   ...        0 min,  0.024 sec
 * total energy  :   -71.3086621 Eh     change       -0.3758894E-04 Eh
   gradient norm :     0.0028451 Eh/α   predicted    -0.2795180E-04 ( -25.64%)
   displ. norm   :     0.1155154 α      lambda       -0.3158707E-04
   maximum displ.:     0.0671433 α      in ANC's #2, #5, #6, ...

........................................................................
.............................. CYCLE   52 ..............................
........................................................................

 iter      E             dE          RMSdq      gap      omega  full diag
   1    -72.2036416 -0.722036E+02  0.227E-02    2.34       0.0  T
   2    -72.2036428 -0.117902E-05  0.132E-02    2.34       1.2  T
   3    -72.2036422  0.575587E-06  0.570E-03    2.34       2.7  T
   4    -72.2036430 -0.848895E-06  0.120E-03    2.34      12.9  T
   5    -72.2036431 -0.457130E-07  0.465E-04    2.34      33.2  T
   6    -72.2036431 -0.943174E-09  0.252E-04    2.34      61.3  T
     SCC iter.                  ...        0 min,  0.013 sec
     gradient                   ...        0 min,  0.024 sec
 * total energy  :   -71.3086856 Eh     change       -0.2350318E-04 Eh
   gradient norm :     0.0019378 Eh/α   predicted    -0.1600833E-04 ( -31.89%)
   displ. norm   :     0.1818719 α      lambda       -0.3309700E-04
   maximum displ.:     0.0998006 α      in ANC's #2, #5, #1, ...

........................................................................
.............................. CYCLE   53 ..............................
........................................................................

 iter      E             dE          RMSdq      gap      omega  full diag
   1    -72.2042599 -0.722043E+02  0.327E-02    2.34       0.0  T
   2    -72.2042610 -0.116608E-05  0.191E-02    2.34       1.0  T
   3    -72.2042601  0.958288E-06  0.600E-03    2.34       2.6  T
   4    -72.2042613 -0.119751E-05  0.150E-03    2.34      10.3  T
   5    -72.2042614 -0.691195E-07  0.546E-04    2.34      28.3  T
   6    -72.2042614 -0.228123E-08  0.269E-04    2.34      57.3  T
     SCC iter.                  ...        0 min,  0.013 sec
     gradient                   ...        0 min,  0.024 sec
 * total energy  :   -71.3087141 Eh     change       -0.2847745E-04 Eh
   gradient norm :     0.0020576 Eh/α   predicted    -0.1679342E-04 ( -41.03%)
   displ. norm   :     0.0921383 α      lambda       -0.2163775E-04
   maximum displ.:     0.0572938 α      in ANC's #2, #5, #1, ...

........................................................................
.............................. CYCLE   54 ..............................
........................................................................

 iter      E             dE          RMSdq      gap      omega  full diag
   1    -72.2033673 -0.722034E+02  0.185E-02    2.33       0.0  T
   2    -72.2033676 -0.329519E-06  0.108E-02    2.33       1.4  T
   3    -72.2033676  0.663291E-07  0.202E-03    2.34       7.6  T
   4    -72.2033677 -0.105967E-06  0.784E-04    2.34      19.7  T
   5    -72.2033677 -0.154572E-07  0.358E-04    2.34      43.1  T
     SCC iter.                  ...        0 min,  0.056 sec
     gradient                   ...        0 min,  0.024 sec
 * total energy  :   -71.3087292 Eh     change       -0.1508695E-04 Eh
   gradient norm :     0.0023060 Eh/α   predicted    -0.1091142E-04 ( -27.68%)
   displ. norm   :     0.0788455 α      lambda       -0.2342801E-04
   maximum displ.:     0.0434920 α      in ANC's #1, #2, #5, ...

........................................................................
.............................. CYCLE   55 ..............................
........................................................................

 iter      E             dE          RMSdq      gap      omega  full diag
   1    -72.2035434 -0.722035E+02  0.172E-02    2.33       0.0  T
   2    -72.2035440 -0.662285E-06  0.102E-02    2.34       1.5  T
   3    -72.2035436  0.415147E-06  0.483E-03    2.34       3.2  T
   4    -72.2035442 -0.626673E-06  0.836E-04    2.34      18.4  T
   5    -72.2035442 -0.200004E-07  0.318E-04    2.34      48.5  T
     SCC iter.                  ...        0 min,  0.011 sec
     gradient                   ...        0 min,  0.069 sec
 * total energy  :   -71.3087458 Eh     change       -0.1659668E-04 Eh
   gradient norm :     0.0014537 Eh/α   predicted    -0.1178899E-04 ( -28.97%)
   displ. norm   :     0.1044289 α      lambda       -0.1258875E-04
   maximum displ.:     0.0616964 α      in ANC's #1, #2, #5, ...

........................................................................
.............................. CYCLE   56 ..............................
........................................................................

 iter      E             dE          RMSdq      gap      omega  full diag
   1    -72.2036084 -0.722036E+02  0.202E-02    2.34       0.0  T
   2    -72.2036090 -0.581153E-06  0.118E-02    2.34       1.3  T
   3    -72.2036087  0.322094E-06  0.385E-03    2.34       4.0  T
   4    -72.2036091 -0.412010E-06  0.886E-04    2.34      17.4  T
   5    -72.2036091 -0.255861E-07  0.298E-04    2.34      51.8  T
     SCC iter.                  ...        0 min,  0.011 sec
     gradient                   ...        0 min,  0.075 sec
 * total energy  :   -71.3087576 Eh     change       -0.1182568E-04 Eh
   gradient norm :     0.0013188 Eh/α   predicted    -0.6326772E-05 ( -46.50%)
   displ. norm   :     0.0577596 α      lambda       -0.6485538E-05
   maximum displ.:     0.0367572 α      in ANC's #1, #2, #4, ...

........................................................................
.............................. CYCLE   57 ..............................
........................................................................

 iter      E             dE          RMSdq      gap      omega  full diag
   1    -72.2037113 -0.722037E+02  0.102E-02    2.34       0.0  T
   2    -72.2037113 -0.632985E-07  0.598E-03    2.34       2.6  T
   3    -72.2037112  0.132975E-06  0.190E-03    2.34       8.1  T
   4    -72.2037114 -0.161892E-06  0.299E-04    2.34      51.6  T
   5    -72.2037114 -0.146188E-08  0.155E-04    2.34      99.6  T
     SCC iter.                  ...        0 min,  0.011 sec
     gradient                   ...        0 min,  0.069 sec
 * total energy  :   -71.3087653 Eh     change       -0.7660393E-05 Eh
   gradient norm :     0.0009073 Eh/α   predicted    -0.3249428E-05 ( -57.58%)
   displ. norm   :     0.0841186 α      lambda       -0.8137538E-05
   maximum displ.:     0.0553758 α      in ANC's #2, #1, #4, ...

........................................................................
.............................. CYCLE   58 ..............................
........................................................................

 iter      E             dE          RMSdq      gap      omega  full diag
   1    -72.2036678 -0.722037E+02  0.140E-02    2.34       0.0  T
   2    -72.2036682 -0.426025E-06  0.820E-03    2.33       1.9  T
   3    -72.2036680  0.273683E-06  0.392E-03    2.33       3.9  T
   4    -72.2036684 -0.417189E-06  0.682E-04    2.33      22.6  T
   5    -72.2036684 -0.129483E-07  0.279E-04    2.33      55.4  T
     SCC iter.                  ...        0 min,  0.011 sec
     gradient                   ...        0 min,  0.024 sec
 * total energy  :   -71.3087735 Eh     change       -0.8275035E-05 Eh
   gradient norm :     0.0009786 Eh/α   predicted    -0.4085155E-05 ( -50.63%)
   displ. norm   :     0.0766640 α      lambda       -0.5413779E-05
   maximum displ.:     0.0504787 α      in ANC's #1, #2, #4, ...

........................................................................
[...]
   * S. Ehlert, M. Stahn, S. Spicher, S. Grimme, J. Chem. Theory Comput.,
     2021, 17, 4250-4261. DOI: 10.1021/acs.jctc.1c00471
   
   for ddCOSMO and CPCM-X implicit solvation:
   * M. Stahn, S. Ehlert, S. Grimme, J. Phys. Chem. A,
     2023, XX, XXXX-XXXX. DOI: 10.1021/acs.jpca.3c04382
   
   for DFT-D4:
   * E. Caldeweyher, C. Bannwarth and S. Grimme, J. Chem. Phys., 2017,
     147, 034112. DOI: 10.1063/1.4993215
   * E. Caldeweyher, S. Ehlert, A. Hansen, H. Neugebauer, S. Spicher,
     C. Bannwarth and S. Grimme, J. Chem. Phys., 2019, 150, 154122.
     DOI: 10.1063/1.5090222
   * E. Caldeweyher, J.-M. Mewes, S. Ehlert and S. Grimme, Phys. Chem. Chem. Phys.
     2020, 22, 8499-8512. DOI: 10.1039/D0CP00502A
   
   for sTDA-xTB:
   * S. Grimme and C. Bannwarth, J. Chem. Phys., 2016, 145, 054103.
     DOI: 10.1063/1.4959605
   
   in the mass-spec context:
   * V. Asgeirsson, C. Bauer and S. Grimme, Chem. Sci., 2017, 8, 4879.
     DOI: 10.1039/c7sc00601b
   * J. Koopman and S. Grimme, ACS Omega 2019, 4, 12, 15120-15133.
     DOI: 10.1021/acsomega.9b02011
   
   for metadynamics refer to:
   * S. Grimme, J. Chem. Theory Comput., 2019, 155, 2847-2862
     DOI: 10.1021/acs.jctc.9b00143
   
   for SPH calculations refer to:
   * S. Spicher and S. Grimme, J. Chem. Theory Comput., 2021, 17, 1701-1714
     DOI: 10.1021/acs.jctc.0c01306
   
   for ONIOM refer to:
   * C. Plett, A. Katbashev, S. Ehlert, S. Grimme, M. Bursch,
     Phys. Chem. Chem. Phys., 2023, 25, 17860-17868. DOI: 10.1039/D3CP02178E
   
   for DIPRO refer to:
   * J. Kohn, N. Gildemeister, S. Grimme, D. Fazzi, A. Hansen,
     J. Chem. Phys., 2023, just accepted.
   
   for PTB refer to:
   * S. Grimme, M. Mueller, A. Hansen, J. Chem. Phys., 2023, 158, 124111.
     DOI: 10.1063/5.0137838
   
   with help from (in alphabetical order)
   P. Atkinson, C. Bannwarth, F. Bohle, G. Brandenburg, E. Caldeweyher
   M. Checinski, S. Dohm, S. Ehlert, S. Ehrlich, I. Gerasimov, C. Hölzer
   A. Katbashev, J. Kohn, J. Koopman, C. Lavigne, S. Lehtola, F. März, M. Müller,
   F. Musil, H. Neugebauer, J. Pisarek, C. Plett, P. Pracht, F. Pultar,
   J. Seibert, P. Shushkov, S. Spicher, M. Stahn, M. Steiner, T. Strunk,
   J. Stückrath, T. Rose, and J. Unsleber
   
 * started run on 2025/05/15 at 16:13:23.729     
   ID    Z sym.   atoms
    1    8 O      1, 3, 21
    2    6 C      2, 4, 5, 7-9, 11, 12, 14-16, 18-20, 22-24
    3    7 N      6, 10, 13
    4    9 F      17
    5    1 H      25-42

           -------------------------------------------------
          |                Calculation Setup                |
           -------------------------------------------------

          program call               : xtb /rds/general/user/hgt20/home/callum/QDESCP/Ciprofloxacin_rdkit_conf_7/Ciprofloxacin_rdkit_conf_7.xyz --acc 1 --gfn 2 --chrg 0 --uhf 2 --etemp 300 --input /rds/general/user/hgt20/home/callum/QDESCP/Ciprofloxacin_rdkit_conf_7/Ciprofloxacin_rdkit_conf_7_xtb.inp -P 1
          hostname                   : login-c
          coordinate file            : /rds/general/user/hgt20/home/callum/QDESCP/Ciprofloxacin_rdkit_conf_7/Ciprofloxacin_rdkit_conf_7.xyz
          omp threads                :                     1


           -------------------------------------------------
          |                 G F N 2 - x T B                 |
           -------------------------------------------------

        Reference                      10.1021/acs.jctc.8b01176
      * Hamiltonian:
        H0-scaling (s, p, d)           1.850000    2.230000    2.230000
        zeta-weighting                 0.500000
      * Dispersion:
        s8                             2.700000
        a1                             0.520000
        a2                             5.000000
        s9                             5.000000
      * Repulsion:
        kExp                           1.500000    1.000000
        rExp                           1.000000
      * Coulomb:
        alpha                          2.000000
        third order                    shell-resolved
        anisotropic                    true
        a3                             3.000000
        a5                             4.000000
        cn-shift                       1.200000
        cn-exp                         4.000000
        max-rad                        5.000000


          ...................................................
          :                      SETUP                      :
          :.................................................:
          :  # basis functions                 114          :
          :  # atomic orbitals                 114          :
          :  # shells                           66          :
          :  # electrons                       126          :
          :  max. iterations                   250          :
          :  Hamiltonian                  GFN2-xTB          :
          :  restarted?                      false          :
          :  GBSA solvation                  false          :
          :  PC potential                    false          :
          :  electronic temp.          300.0000000     K    :
          :  accuracy                    1.0000000          :
          :  -> integral cutoff          0.2500000E+02      :
          :  -> integral neglect         0.1000000E-07      :
          :  -> SCF convergence          0.1000000E-05 Eh   :
          :  -> wf. convergence          0.1000000E-03 e    :
          :  Broyden damping             0.4000000          :
          :  net charge                          0          :
          :  unpaired electrons                  2          :
          ...................................................

 iter      E             dE          RMSdq      gap      omega  full diag
   1    -71.8159972 -0.718160E+02  0.399E+00    0.19       0.0  T
   2    -71.8205820 -0.458477E-02  0.317E+00    0.18       1.0  T
   3    -71.9577566 -0.137175E+00  0.228E+00    0.65       1.0  T
   4    -71.9905954 -0.328388E-01  0.145E+00    0.30       1.0  T
   5    -72.0032296 -0.126341E-01  0.108E+00    0.17       1.0  T
   6    -72.0522912 -0.490616E-01  0.779E-01    0.26       1.0  T
   7    -72.0596283 -0.733715E-02  0.700E-01    0.15       1.0  T
   8    -72.0977979 -0.381696E-01  0.180E-01    0.14       1.0  T
   9    -72.0962255  0.157241E-02  0.236E-01    0.13       1.0  T
  10    -72.0965552 -0.329716E-03  0.162E-01    0.13       1.0  T
  11    -72.0988064 -0.225117E-02  0.422E-02    0.12       1.0  T
  12    -72.0989189 -0.112505E-03  0.174E-02    0.13       1.0  T
  13    -72.0989106  0.829178E-05  0.207E-02    0.12       1.0  T
  14    -72.0989424 -0.318372E-04  0.464E-03    0.13       3.3  T
  15    -72.0989400  0.241101E-05  0.681E-03    0.13       2.3  T
  16    -72.0989428 -0.281958E-05  0.328E-03    0.13       4.7  T
  17    -72.0989427  0.157017E-06  0.343E-03    0.13       4.5  T
  18    -72.0989437 -0.100915E-05  0.184E-04    0.13      84.1  T
  19    -72.0989436  0.192210E-07  0.496E-04    0.13      31.1  T
  20    -72.0989437 -0.191163E-07  0.100E-04    0.13     153.7  T

   *** convergence criteria satisfied after 20 iterations ***

         #    Occupation            Energy/Eh            Energy/eV
      -------------------------------------------------------------
         1        2.0000           -0.8141910             -22.1553
       ...           ...                  ...                  ...
        58        2.0000           -0.4111156             -11.1870
        59        2.0000           -0.4087536             -11.1228
        60        2.0000           -0.4015483             -10.9267
        61        1.9846           -0.3741515             -10.1812
        62        1.6452           -0.3707698             -10.0892
        63        1.3702           -0.3696965             -10.0600
        64        0.9205           -0.2549629              -6.9379 (HOMO)
        65        0.0795           -0.2503081              -6.8112 (LUMO)
        66                         -0.2092068              -5.6928
        67                         -0.1933179              -5.2604
        68                         -0.1239003              -3.3715
        69                         -0.0849226              -2.3109
       ...                                ...                  ...
       114                          0.7252020              19.7338
      -------------------------------------------------------------
                  HL-Gap            0.0046549 Eh            0.1267 eV
             Fermi-level           -0.3114185 Eh           -8.4741 eV

 transition dipole moment (au) for excitation:          63          64
     X       Y       Z   
   1.2708  -0.4464  -0.0584  total (au/Debye):    1.348   3.427
 dE (eV)             :    3.122
 oscillator strength :  0.19660E+00

 SCC (total)                   0 d,  0 h,  0 min,  0.175 sec
 SCC setup                      ...        0 min,  0.000 sec (  0.215%)
 Dispersion                     ...        0 min,  0.000 sec (  0.277%)
 classical contributions        ...        0 min,  0.000 sec (  0.084%)
 integral evaluation            ...        0 min,  0.049 sec ( 28.223%)
 iterations                     ...        0 min,  0.045 sec ( 25.905%)
 molecular gradient             ...        0 min,  0.072 sec ( 41.037%)
 printout                       ...        0 min,  0.007 sec (  4.255%)

         :::::::::::::::::::::::::::::::::::::::::::::::::::::
         ::                     SUMMARY                     ::
         :::::::::::::::::::::::::::::::::::::::::::::::::::::
         :: total energy             -71.204017606530 Eh    ::
         :: gradient norm              0.087475902319 Eh/a0 ::
         :: HOMO-LUMO gap              0.126665364423 eV    ::
         ::.................................................::
         :: SCC energy               -72.098583717394 Eh    ::
         :: -> isotropic ES            0.103431898570 Eh    ::
         :: -> anisotropic ES          0.006663240679 Eh    ::
         :: -> anisotropic XC          0.016391103363 Eh    ::
         :: -> dispersion             -0.046985538836 Eh    ::
         :: repulsion energy           0.894566110864 Eh    ::
         :: add. restraining           0.000000000000 Eh    ::
         :: total charge               0.000000000004 e     ::
         :::::::::::::::::::::::::::::::::::::::::::::::::::::

           -------------------------------------------------
          |                Property Printout                |
           -------------------------------------------------

    * Orbital Energies and Occupations

         #    Occupation            Energy/Eh            Energy/eV
      -------------------------------------------------------------
         1        2.0000           -0.8141910             -22.1553
       ...           ...                  ...                  ...
        52        2.0000           -0.4572821             -12.4433
        53        2.0000           -0.4522364             -12.3060
        54        2.0000           -0.4496677             -12.2361
        55        2.0000           -0.4450681             -12.1109
        56        2.0000           -0.4415053             -12.0140
        57        2.0000           -0.4335853             -11.7985
        58        2.0000           -0.4111156             -11.1870
        59        2.0000           -0.4087536             -11.1228
        60        2.0000           -0.4015483             -10.9267
        61        1.9846           -0.3741515             -10.1812
        62        1.6452           -0.3707698             -10.0892
        63        1.3702           -0.3696965             -10.0600
        64        0.9205           -0.2549629              -6.9379 (HOMO)
        65        0.0795           -0.2503081              -6.8112 (LUMO)
        66                         -0.2092068              -5.6928
        67                         -0.1933179              -5.2604
        68                         -0.1239003              -3.3715
        69                         -0.0849226              -2.3109
        70                         -0.0646597              -1.7595
        71                         -0.0291013              -0.7919
        72                         -0.0106191              -0.2890
        73                          0.0152357               0.4146
        74                          0.0410523               1.1171
        75                          0.0430438               1.1713
       ...                                ...                  ...
       114                          0.7252020              19.7338
      -------------------------------------------------------------
                  HL-Gap            0.0046549 Eh            0.1267 eV
             Fermi-level           -0.3114185 Eh           -8.4741 eV

     #   Z          covCN         q      C6AA      α(0)
     1   8 O        0.857    -0.453    22.770     6.398
     2   6 C        2.704     0.356    20.954     7.492
     3   8 O        1.660    -0.359    20.079     6.049
     4   6 C        2.956    -0.072    29.806     8.955
     5   6 C        2.883    -0.007    28.195     8.705
     6   7 N        2.746    -0.023    21.693     6.918
     7   6 C        2.934     0.053    26.819     8.493
     8   6 C        2.929    -0.107    30.699     9.087
     9   6 C        2.903     0.029    27.358     8.576
    10   7 N        2.737    -0.061    22.420     7.032
    11   6 C        3.758    -0.012    20.836     6.508
    12   6 C        3.752     0.001    20.619     6.475
    13   7 N        2.678    -0.227    25.964     7.568
    14   6 C        3.751     0.002    20.603     6.473
    15   6 C        3.759    -0.010    20.803     6.502
    16   6 C        2.784     0.140    24.925     8.178
    17   9 F        0.787    -0.235    11.605     4.024
    18   6 C        2.922    -0.073    29.816     8.954
    19   6 C        2.983    -0.016    28.414     8.744
    20   6 C        2.830     0.196    23.826     7.999
    21   8 O        0.857    -0.354    20.792     6.114
    22   6 C        3.811     0.032    20.035     6.371
    23   6 C        3.806    -0.069    21.810     6.648
    24   6 C        3.806    -0.069    21.823     6.650
    25   1 H        0.805     0.325     0.650     1.266
    26   1 H        0.925     0.070     2.086     2.259
    27   1 H        0.926     0.035     2.517     2.481
    28   1 H        0.924     0.047     2.354     2.399
    29   1 H        0.925     0.081     1.969     2.194
    30   1 H        0.924     0.054     2.275     2.359
    31   1 H        0.924     0.052     2.295     2.369
    32   1 H        0.860     0.149     1.406     1.857
    33   1 H        0.924     0.048     2.345     2.395
    34   1 H        0.924     0.055     2.261     2.352
    35   1 H        0.924     0.048     2.340     2.392
    36   1 H        0.925     0.060     2.205     2.322
    37   1 H        0.926     0.075     2.032     2.229
    38   1 H        0.925     0.040     2.449     2.447
    39   1 H        0.926     0.040     2.442     2.444
    40   1 H        0.926     0.050     2.319     2.381
    41   1 H        0.926     0.060     2.198     2.319
    42   1 H        0.926     0.050     2.322     2.383

 Mol. C6AA /au·bohr⁶  :      19998.935274
 Mol. C8AA /au·bohr⁸  :     469085.641572
 Mol. α(0) /au        :        215.761445


Wiberg/Mayer (AO) data.
largest (>0.10) Wiberg bond orders for each atom

 ---------------------------------------------------------------------------
     #   Z sym  total        # sym  WBO       # sym  WBO       # sym  WBO
 ---------------------------------------------------------------------------
     1   8 O    1.958 --     2 C    1.659     3 O    0.158
     2   6 C    3.890 --     1 O    1.659     3 O    1.136     4 C    1.036
     3   8 O    2.204 --     2 C    1.136    25 H    0.869     1 O    0.158
     4   6 C    3.865 --     5 C    1.456    20 C    1.077     2 C    1.036
     5   6 C    3.861 --     4 C    1.456     6 N    1.189    26 H    0.949
     6   7 N    3.555 --     5 C    1.189     7 C    1.114    22 C    0.988
     7   6 C    3.939 --     8 C    1.377    19 C    1.267     6 N    1.114
     8   6 C    3.883 --     7 C    1.377     9 C    1.257    27 H    0.957
     9   6 C    3.901 --    16 C    1.281     8 C    1.257    10 N    1.133
    10   7 N    3.303 --     9 C    1.133    15 C    1.011    11 C    1.001
    11   6 C    3.956 --    10 N    1.001    28 H    0.966    29 H    0.965
                            12 C    0.958
    12   6 C    3.962 --    13 N    1.026    30 H    0.970    31 H    0.970
                            11 C    0.958
    13   7 N    3.101 --    12 C    1.026    14 C    1.026    32 H    0.952
    14   6 C    3.965 --    13 N    1.026    33 H    0.972    34 H    0.968
                            15 C    0.961
    15   6 C    3.967 --    10 N    1.011    36 H    0.966    35 H    0.964
                            14 C    0.961
    16   6 C    3.800 --    18 C    1.398     9 C    1.281    17 F    0.943
    17   9 F    1.066 --    16 C    0.943
    18   6 C    3.920 --    16 C    1.398    19 C    1.287    37 H    0.961
    19   6 C    3.830 --    18 C    1.287     7 C    1.267    20 C    1.044
    20   6 C    3.878 --    21 O    1.564     4 C    1.077    19 C    1.044
    21   8 O    1.862 --    20 C    1.564
    22   6 C    3.924 --     6 N    0.988    24 C    0.975    23 C    0.961
                            38 H    0.959
    23   6 C    3.939 --    24 C    0.983    39 H    0.980    40 H    0.979
                            22 C    0.961
    24   6 C    3.943 --    23 C    0.983    42 H    0.980    41 H    0.976
                            22 C    0.975
    25   1 H    0.892 --     3 O    0.869
    26   1 H    0.987 --     5 C    0.949
    27   1 H    0.997 --     8 C    0.957
    28   1 H    0.992 --    11 C    0.966
    29   1 H    0.992 --    11 C    0.965
    30   1 H    0.996 --    12 C    0.970
    31   1 H    0.994 --    12 C    0.970
    32   1 H    0.976 --    13 N    0.952
    33   1 H    0.995 --    14 C    0.972
    34   1 H    0.996 --    14 C    0.968
    35   1 H    0.992 --    15 C    0.964
    36   1 H    0.995 --    15 C    0.966
    37   1 H    0.993 --    18 C    0.961
    38   1 H    0.995 --    22 C    0.959
    39   1 H    0.998 --    23 C    0.980
    40   1 H    0.997 --    23 C    0.979
    41   1 H    0.996 --    24 C    0.976
    42   1 H    0.997 --    24 C    0.980
 ---------------------------------------------------------------------------

Topologies differ in total number of bonds
Writing topology from bond orders to xtbtopo.mol

molecular dipole:
                 x           y           z       tot (Debye)
 q only:        3.521      -2.613      -0.705
   full:        3.519      -2.726      -0.445      11.371
molecular quadrupole (traceless):
                xx          xy          yy          xz          yz          zz
 q only:       -0.868       4.573      -5.501       0.840      -5.360       6.368
  q+dip:        5.252       3.264      -8.280       4.079      -8.808       3.028
   full:        3.684       3.800      -9.614       3.514      -9.010       5.931


           -------------------------------------------------
          | TOTAL ENERGY              -71.204017606530 Eh   |
          | GRADIENT NORM               0.087475902319 Eh/α |
          | HOMO-LUMO GAP               0.126665364423 eV   |
           -------------------------------------------------

------------------------------------------------------------------------
 * finished run on 2025/05/15 at 16:13:23.918     
------------------------------------------------------------------------
 total:
 * wall-time:     0 d,  0 h,  0 min,  0.188 sec
 *  cpu-time:     0 d,  0 h,  0 min,  0.100 sec
 * ratio c/w:     0.529 speedup
 SCF:
 * wall-time:     0 d,  0 h,  0 min,  0.175 sec
 *  cpu-time:     0 d,  0 h,  0 min,  0.087 sec
 * ratio c/w:     0.500 speedup


