42
 energy: -71.308788897633 gnorm: 0.000324032306 xtb: 6.7.1 (edcfbbe)
O           -5.98937932858579        0.32805495381532        0.56199496104698
C           -5.18454313405925        1.21958401805360        0.73327996024386
O           -5.55442504617282        2.45564483039221        1.05288658004022
C           -3.72759450863841        1.02582194396074        0.62015253255803
C           -3.30535631404982       -0.25893166802163        0.45642589749406
N           -2.02131722066982       -0.63774112582362        0.33972334043666
C           -1.01738710636288        0.31232215410253        0.45830377858450
C            0.32526756814966       -0.05905191854136        0.43202950468980
C            1.36360274959764        0.86915594158452        0.54115817309565
N            2.68513886174388        0.49738220260599        0.58988263767991
C            3.70134793786190        1.21375114722067       -0.15983334801238
C            3.93693556553846        0.51567273406350       -1.51266549550026
N            4.29306462243201       -0.88396570841392       -1.37123703071725
C            3.30718434287307       -1.58649999228729       -0.57137298764726
C            3.06869132997315       -0.88637775093184        0.77805792437621
C            0.96857831637999        2.21797696045474        0.69076581105324
F            1.90759624124895        3.18237640548513        0.86457444295164
C           -0.34285395669079        2.60164160606178        0.70957833114407
C           -1.37127659141895        1.66233302859629        0.59716266135875
C           -2.76802144786362        2.12964767591997        0.65109023979683
O           -3.05071153845196        3.31268383543084        0.70728168572721
C           -1.70741218540797       -2.02047791172449        0.12886219893642
C           -1.08912034618519       -2.44037976169443       -1.17525766793178
C           -2.50617854017354       -2.80797097305874       -0.86520783785908
H           -6.52143859389599        2.51334849913530        1.09700037148522
H           -4.04718083336693       -1.04577884768174        0.42115861148519
H            0.56645801142972       -1.09988383406655        0.31128881224425
H            4.62718902708696        1.20677666799235        0.42765619705286
H            3.41105942700910        2.24595252906138       -0.32963874416345
H            3.01694010897767        0.56285532652230       -2.10466273260910
H            4.73003466728299        1.02534664187557       -2.06210711732628
H            5.20680172486392       -0.96011537537973       -0.93260596409754
H            3.64543967042028       -2.61247117812724       -0.41402763804920
H            2.37710672390282       -1.60809839471248       -1.14764286991013
H            4.00942707481043       -0.88215100299781        1.34348169581763
H            2.32181441025403       -1.40501318247747        1.37817837279910
H           -0.60706203777758        3.64019974238334        0.83546935560895
H           -1.38016305022484       -2.52837234219602        1.03196973394952
H           -0.33189382451075       -3.20957536638470       -1.16077920030970
H           -0.92169818432399       -1.67316794252603       -1.91564649193166
H           -3.28569910192879       -2.29853096997718       -1.40967332432443
H           -2.73896549107611       -3.83397359769643       -0.62705536126730
