54
 energy: -87.154627048501 gnorm: 0.000642921970 xtb: 6.7.1 (edcfbbe)
O           -2.65558115372363        4.34337841841556       -1.48535759581655
C           -2.12855465201138        3.62773096854300       -0.63605626256195
C           -2.31851944222374        2.19334652294798       -0.70208342878078
C           -1.61821278469546        1.12035207541220       -0.24331805113331
C           -2.15713709067652       -0.24371457791154       -0.65177532542451
N           -1.21316576323761       -0.94970697241601       -1.49687676832590
C           -1.55132507757435       -1.43704970168847       -2.71374395388141
C           -0.38909219072516       -2.09764428985462       -3.42851213635083
O           -2.66594756970100       -1.34700387184676       -3.17896898489419
C           -2.61657948477485       -1.09779456679846        0.54765945709624
C           -1.69914875338772       -1.01627180575767        1.77273983313195
C           -1.35917748843208        4.21314673173250        0.47636939439792
O           -1.56840229336538        5.48238249131767        0.87917135925015
C           -2.66347871794054        6.24589030643879        0.40977772548754
C           -0.31109366939650        3.60230709652101        1.11677974697914
C            0.17015297343688        2.29013876524092        1.04216198078434
C           -0.39382371351604        1.16795627321946        0.48955868452532
C            0.34691070289980       -0.09501241677347        0.71586398877091
C            1.67904375263367       -0.21410119954172        0.30914801034332
O            2.30065423244330        0.86912214642616       -0.27191237765147
C            2.53058145075343        0.75487301322665       -1.66225952818402
C            2.38694691277510       -1.41053304091662        0.49823126597412
O            3.66267011584687       -1.42255234838326        0.00569317040041
C            4.65841518578609       -2.17561683694191        0.66481027434320
C           -0.26665656805959       -1.16598796729725        1.36276240947848
C            0.43184718513101       -2.34357293621372        1.55828739344621
C            1.74302028871525       -2.49438750261134        1.12131961541409
O            2.45023239543508       -3.65890350628316        1.25015183467419
C            1.86899980101607       -4.73057084698895        1.95192998321455
H           -3.16579279691070        1.97146618617684       -1.34302553304448
H           -3.03105247379221       -0.10557464723957       -1.29890387540868
H           -0.27173952453705       -1.06466342218175       -1.15775492945859
H           -0.75498457890830       -2.60619630741307       -4.31549361083963
H            0.33083803818231       -1.33862991535067       -3.72882250645387
H            0.10772483729206       -2.81148691143240       -2.77552808489510
H           -2.68223041872417       -2.13158321230075        0.20286623554460
H           -3.61847158194468       -0.77793652709012        0.83806800994345
H           -1.98017106714549       -1.79536173719060        2.48248111851355
H           -1.83429486951498       -0.04684341372422        2.25787219546450
H           -3.61120139598167        5.72987319158663        0.58020754986284
H           -2.63469223213009        7.16478560769367        0.99477648460547
H           -2.57197317626352        6.47136447908300       -0.65313434926015
H            0.23247643955077        4.26045781408640        1.78451920495027
H            1.09915353391149        2.12370109444754        1.57145978346235
H            1.58059074571911        0.73094087056839       -2.21058439989810
H            3.08605922819073        1.64606655658016       -1.94638193288770
H            3.11671791062836       -0.13583772360885       -1.90023703062182
H            4.60101095393078       -2.04980986637580        1.74836516243172
H            4.59079261068551       -3.23740364950584        0.41981672671716
H            5.60592472851961       -1.77590492476815        0.30368582589198
H           -0.06867503748853       -3.16085186240401        2.05193244960181
H            0.97481450351866       -5.10753679625624        1.44557356993017
H            1.61813840971422       -4.45092253901622        2.97979299888187
H            2.62735863008169       -5.51201276557776        1.96679722224694
