----- Optimization -----
      -----------------------------------------------------------      
     |                   =====================                   |     
     |                           x T B                           |     
     |                   =====================                   |     
     |                         S. Grimme                         |     
     |          Mulliken Center for Theoretical Chemistry        |     
     |                    University of Bonn                     |     
      -----------------------------------------------------------      

   * xtb version 6.7.1 (edcfbbe) compiled by 'conda@3ef47c1a292c' on 2024-11-25

   xtb is free software: you can redistribute it and/or modify it under
   the terms of the GNU Lesser General Public License as published by
   the Free Software Foundation, either version 3 of the License, or
   (at your option) any later version.
   
   xtb is distributed in the hope that it will be useful,
   but WITHOUT ANY WARRANTY; without even the implied warranty of
   MERCHANTABILITY or FITNESS FOR A PARTICULAR PURPOSE.  See the
   GNU Lesser General Public License for more details.
   
   Cite this work as:
   * C. Bannwarth, E. Caldeweyher, S. Ehlert, A. Hansen, P. Pracht,
     J. Seibert, S. Spicher, S. Grimme, WIREs Comput. Mol. Sci., 2020, 11,
     e01493. DOI: 10.1002/wcms.1493
   
   for GFN2-xTB:
   * C. Bannwarth, S. Ehlert and S. Grimme., J. Chem. Theory Comput., 2019,
     15, 1652-1671. DOI: 10.1021/acs.jctc.8b01176
   for GFN1-xTB:
   * S. Grimme, C. Bannwarth, P. Shushkov, J. Chem. Theory Comput., 2017,
     13, 1989-2009. DOI: 10.1021/acs.jctc.7b00118
   for GFN0-xTB:
   * P. Pracht, E. Caldeweyher, S. Ehlert, S. Grimme, ChemRxiv, 2019, preprint.
     DOI: 10.26434/chemrxiv.8326202.v1
   for GFN-FF:
   * S. Spicher and S. Grimme, Angew. Chem. Int. Ed., 2020, 59, 15665-15673.
     DOI: 10.1002/anie.202004239
   
   for ALPB and GBSA implicit solvation:
   * S. Ehlert, M. Stahn, S. Spicher, S. Grimme, J. Chem. Theory Comput.,
     2021, 17, 4250-4261. DOI: 10.1021/acs.jctc.1c00471
   
   for ddCOSMO and CPCM-X implicit solvation:
   * M. Stahn, S. Ehlert, S. Grimme, J. Phys. Chem. A,
     2023, XX, XXXX-XXXX. DOI: 10.1021/acs.jpca.3c04382
   
   for DFT-D4:
   * E. Caldeweyher, C. Bannwarth and S. Grimme, J. Chem. Phys., 2017,
     147, 034112. DOI: 10.1063/1.4993215
   * E. Caldeweyher, S. Ehlert, A. Hansen, H. Neugebauer, S. Spicher,
     C. Bannwarth and S. Grimme, J. Chem. Phys., 2019, 150, 154122.
     DOI: 10.1063/1.5090222
   * E. Caldeweyher, J.-M. Mewes, S. Ehlert and S. Grimme, Phys. Chem. Chem. Phys.
     2020, 22, 8499-8512. DOI: 10.1039/D0CP00502A
   
   for sTDA-xTB:
   * S. Grimme and C. Bannwarth, J. Chem. Phys., 2016, 145, 054103.
     DOI: 10.1063/1.4959605
   
   in the mass-spec context:
   * V. Asgeirsson, C. Bauer and S. Grimme, Chem. Sci., 2017, 8, 4879.
     DOI: 10.1039/c7sc00601b
   * J. Koopman and S. Grimme, ACS Omega 2019, 4, 12, 15120-15133.
     DOI: 10.1021/acsomega.9b02011
   
   for metadynamics refer to:
   * S. Grimme, J. Chem. Theory Comput., 2019, 155, 2847-2862
     DOI: 10.1021/acs.jctc.9b00143
   
   for SPH calculations refer to:
   * S. Spicher and S. Grimme, J. Chem. Theory Comput., 2021, 17, 1701-1714
     DOI: 10.1021/acs.jctc.0c01306
   
   for ONIOM refer to:
   * C. Plett, A. Katbashev, S. Ehlert, S. Grimme, M. Bursch,
     Phys. Chem. Chem. Phys., 2023, 25, 17860-17868. DOI: 10.1039/D3CP02178E
   
   for DIPRO refer to:
   * J. Kohn, N. Gildemeister, S. Grimme, D. Fazzi, A. Hansen,
     J. Chem. Phys., 2023, just accepted.
   
   for PTB refer to:
   * S. Grimme, M. Mueller, A. Hansen, J. Chem. Phys., 2023, 158, 124111.
     DOI: 10.1063/5.0137838
   
   with help from (in alphabetical order)
   P. Atkinson, C. Bannwarth, F. Bohle, G. Brandenburg, E. Caldeweyher
   M. Checinski, S. Dohm, S. Ehlert, S. Ehrlich, I. Gerasimov, C. Hölzer
   A. Katbashev, J. Kohn, J. Koopman, C. Lavigne, S. Lehtola, F. März, M. Müller,
   F. Musil, H. Neugebauer, J. Pisarek, C. Plett, P. Pracht, F. Pultar,
   J. Seibert, P. Shushkov, S. Spicher, M. Stahn, M. Steiner, T. Strunk,
   J. Stückrath, T. Rose, and J. Unsleber
   
 * started run on 2025/05/15 at 16:27:16.096     
   ID    Z sym.   atoms
    1    8 O      1, 14
    2    6 C      2-5, 7-12, 15-19, 21, 22, 24, 26-30
    3    7 N      6, 13, 23, 25
    4    9 F      20
    5    1 H      31-57

           -------------------------------------------------
          |                Calculation Setup                |
           -------------------------------------------------

          program call               : xtb /rds/general/user/hgt20/home/callum/QDESCP/Risperidone_rdkit_conf_8/Risperidone_rdkit_conf_8.xyz --opt normal --acc 1 --gfn 2 --chrg 0 --uhf 0 -P 1
          hostname                   : login-c
          coordinate file            : /rds/general/user/hgt20/home/callum/QDESCP/Risperidone_rdkit_conf_8/Risperidone_rdkit_conf_8.xyz
          omp threads                :                     1


           -------------------------------------------------
          |                 G F N 2 - x T B                 |
           -------------------------------------------------

        Reference                      10.1021/acs.jctc.8b01176
      * Hamiltonian:
        H0-scaling (s, p, d)           1.850000    2.230000    2.230000
        zeta-weighting                 0.500000
      * Dispersion:
        s8                             2.700000
        a1                             0.520000
        a2                             5.000000
        s9                             5.000000
      * Repulsion:
        kExp                           1.500000    1.000000
        rExp                           1.000000
      * Coulomb:
        alpha                          2.000000
        third order                    shell-resolved
        anisotropic                    true
        a3                             3.000000
        a5                             4.000000
        cn-shift                       1.200000
        cn-exp                         4.000000
        max-rad                        5.000000


          ...................................................
          :                      SETUP                      :
          :.................................................:
          :  # basis functions                 147          :
          :  # atomic orbitals                 147          :
          :  # shells                           87          :
          :  # electrons                       158          :
          :  max. iterations                   250          :
          :  Hamiltonian                  GFN2-xTB          :
          :  restarted?                      false          :
          :  GBSA solvation                  false          :
          :  PC potential                    false          :
          :  electronic temp.          300.0000000     K    :
          :  accuracy                    1.0000000          :
          :  -> integral cutoff          0.2500000E+02      :
          :  -> integral neglect         0.1000000E-07      :
          :  -> SCF convergence          0.1000000E-05 Eh   :
          :  -> wf. convergence          0.1000000E-03 e    :
          :  Broyden damping             0.4000000          :
          :  net charge                          0          :
          :  unpaired electrons                  0          :
          ...................................................

 iter      E             dE          RMSdq      gap      omega  full diag
   1    -88.5853672 -0.885854E+02  0.351E+00    2.88       0.0  T
   2    -88.7127106 -0.127343E+00  0.212E+00    2.34       1.0  T
   3    -88.7179885 -0.527794E-02  0.114E+00    1.87       1.0  T
   4    -88.7326170 -0.146285E-01  0.414E-01    1.46       1.0  T
   5    -88.7383842 -0.576723E-02  0.110E-01    1.40       1.0  T
   6    -88.7386221 -0.237837E-03  0.593E-02    1.43       1.0  T
   7    -88.7387026 -0.805287E-04  0.237E-02    1.45       1.0  T
   8    -88.7387074 -0.476205E-05  0.927E-03    1.46       1.4  T
   9    -88.7387091 -0.169820E-05  0.390E-03    1.46       3.4  T
  10    -88.7387093 -0.253325E-06  0.128E-03    1.46      10.3  T
  11    -88.7387093 -0.199546E-07  0.786E-04    1.46      16.8  T
  12    -88.7387093 -0.147767E-07  0.318E-04    1.46      41.7  T

   *** convergence criteria satisfied after 12 iterations ***

         #    Occupation            Energy/Eh            Energy/eV
      -------------------------------------------------------------
         1        2.0000           -0.8295468             -22.5731
       ...           ...                  ...                  ...
        73        2.0000           -0.4171211             -11.3504
        74        2.0000           -0.4118774             -11.2078
        75        2.0000           -0.4086117             -11.1189
        76        2.0000           -0.3849202             -10.4742
        77        2.0000           -0.3804168             -10.3517
        78        2.0000           -0.3792636             -10.3203
        79        2.0000           -0.3380128              -9.1978 (HOMO)
        80                         -0.2844753              -7.7410 (LUMO)
        81                         -0.2482768              -6.7560
        82                         -0.2421677              -6.5897
        83                         -0.2233788              -6.0784
        84                         -0.2081327              -5.6636
       ...                                ...                  ...
       147                          0.6974947              18.9798
      -------------------------------------------------------------
                  HL-Gap            0.0535375 Eh            1.4568 eV
             Fermi-level           -0.3112441 Eh           -8.4694 eV

 SCC (total)                   0 d,  0 h,  0 min,  0.127 sec
 SCC setup                      ...        0 min,  0.001 sec (  0.466%)
 Dispersion                     ...        0 min,  0.001 sec (  0.647%)
 classical contributions        ...        0 min,  0.000 sec (  0.208%)
 integral evaluation            ...        0 min,  0.012 sec (  9.063%)
 iterations                     ...        0 min,  0.071 sec ( 55.556%)
 molecular gradient             ...        0 min,  0.043 sec ( 33.832%)
 printout                       ...        0 min,  0.000 sec (  0.223%)

         :::::::::::::::::::::::::::::::::::::::::::::::::::::
         ::                     SUMMARY                     ::
         :::::::::::::::::::::::::::::::::::::::::::::::::::::
         :: total energy             -87.629409499158 Eh    ::
         :: gradient norm              0.109342905583 Eh/a0 ::
         :: HOMO-LUMO gap              1.456829655173 eV    ::
         ::.................................................::
         :: SCC energy               -88.738704925228 Eh    ::
         :: -> isotropic ES            0.080754117739 Eh    ::
         :: -> anisotropic ES          0.008586475941 Eh    ::
         :: -> anisotropic XC          0.041217025970 Eh    ::
         :: -> dispersion             -0.061882019466 Eh    ::
         :: repulsion energy           1.109295426070 Eh    ::
         :: add. restraining           0.000000000000 Eh    ::
         :: total charge              -0.000000000000 e     ::
         :::::::::::::::::::::::::::::::::::::::::::::::::::::

      ----------------------------------------------------------- 
     |                   =====================                   |
     |                        A N C O P T                        |
     |                   =====================                   |
     |               Approximate Normal Coordinate               |
     |                Rational Function Optimizer                |
      ----------------------------------------------------------- 
      ----------------------------------------------------------- 
     |                   =====================                   |
     |                        A N C O P T                        |
     |                   =====================                   |
     |               Approximate Normal Coordinate               |
     |                Rational Function Optimizer                |
      ----------------------------------------------------------- 

          ...................................................
          :                      SETUP                      :
          :.................................................:
          :   optimization level            normal          :
          :   max. optcycles                   200          :
          :   ANC micro-cycles                  20          :
          :   degrees of freedom               165          :
          :.................................................:
          :   RF solver                   davidson          :
          :   write xtbopt.log                true          :
          :   linear?                        false          :
          :   energy convergence         0.5000000E-05 Eh   :
          :   grad. convergence          0.1000000E-02 Eh/α :
          :   maxmium RF displ.          1.0000000          :
          :   Hlow (freq-cutoff)         0.1000000E-01      :
          :   Hmax (freq-cutoff)         5.0000000          :
          :   S6 in model hess.         20.0000000          :
          ...................................................

generating ANC from exact Hessian ...
Using Lindh-Hessian (1995)
 Shifting diagonal of input Hessian by    9.8672474385257843E-003
 Lowest  eigenvalues of input Hessian
    0.000000    0.000000    0.000000    0.000000    0.000000    0.000000
    0.010000    0.010089    0.010282    0.010592    0.010690    0.011448
    0.011988    0.012593    0.012966    0.013651    0.015541    0.017012
 Highest eigenvalues
    1.921353    1.941133    2.069361    2.168762    2.175603    2.314750


........................................................................
.............................. CYCLE    1 ..............................
........................................................................

 iter      E             dE          RMSdq      gap      omega  full diag
   1    -88.7387094 -0.887387E+02  0.123E-04    1.46       0.0  T
   2    -88.7387094 -0.149825E-09  0.820E-05    1.46     161.4  T
   3    -88.7387094 -0.134008E-09  0.504E-05    1.46     262.6  T
     SCC iter.                  ...        0 min,  0.012 sec
     gradient                   ...        0 min,  0.076 sec
 * total energy  :   -87.6294095 Eh     change       -0.2264343E-08 Eh
   gradient norm :     0.1093435 Eh/α   predicted     0.0000000E+00 (-100.00%)
   displ. norm   :     0.3108762 α      lambda       -0.1521676E-01
   maximum displ.:     0.1048860 α      in ANC's #53, #12, #54, ...

........................................................................
.............................. CYCLE    2 ..............................
........................................................................

 iter      E             dE          RMSdq      gap      omega  full diag
   1    -88.7745255 -0.887745E+02  0.189E-01    1.56       0.0  T
   2    -88.7746137 -0.882165E-04  0.111E-01    1.59       1.0  T
   3    -88.7745662  0.475188E-04  0.435E-02    1.60       1.0  T
   4    -88.7746269 -0.607407E-04  0.106E-02    1.60       1.2  T
   5    -88.7746324 -0.546397E-05  0.359E-03    1.60       3.7  T
   6    -88.7746327 -0.312050E-06  0.157E-03    1.60       8.4  T
   7    -88.7746327 -0.221675E-07  0.662E-04    1.60      20.0  T
   8    -88.7746327 -0.726295E-08  0.237E-04    1.60      55.8  T
     SCC iter.                  ...        0 min,  0.028 sec
     gradient                   ...        0 min,  0.081 sec
 * total energy  :   -87.6399626 Eh     change       -0.1055307E-01 Eh
   gradient norm :     0.0486240 Eh/α   predicted    -0.8349825E-02 ( -20.88%)
   displ. norm   :     0.3167055 α      lambda       -0.5250318E-02
   maximum displ.:     0.1383916 α      in ANC's #12, #10, #21, ...

........................................................................
.............................. CYCLE    3 ..............................
........................................................................

 iter      E             dE          RMSdq      gap      omega  full diag
   1    -88.7954404 -0.887954E+02  0.121E-01    1.64       0.0  T
   2    -88.7954984 -0.580028E-04  0.710E-02    1.66       1.0  T
   3    -88.7954668  0.315165E-04  0.414E-02    1.66       1.0  T
   4    -88.7955152 -0.483462E-04  0.855E-03    1.66       1.5  T
   5    -88.7955191 -0.395933E-05  0.230E-03    1.67       5.8  T
   6    -88.7955192 -0.102522E-06  0.956E-04    1.67      13.9  T
   7    -88.7955193 -0.100004E-07  0.389E-04    1.67      34.0  T
     SCC iter.                  ...        0 min,  0.025 sec
     gradient                   ...        0 min,  0.076 sec
 * total energy  :   -87.6431777 Eh     change       -0.3215103E-02 Eh
   gradient norm :     0.0163396 Eh/α   predicted    -0.2890933E-02 ( -10.08%)
   displ. norm   :     0.2600542 α      lambda       -0.1225795E-02
   maximum displ.:     0.1327558 α      in ANC's #12, #10, #21, ...

........................................................................
.............................. CYCLE    4 ..............................
........................................................................

 iter      E             dE          RMSdq      gap      omega  full diag
   1    -88.7986052 -0.887986E+02  0.575E-02    1.65       0.0  T
   2    -88.7986123 -0.706596E-05  0.331E-02    1.65       1.0  T
   3    -88.7986017  0.105774E-04  0.204E-02    1.65       1.0  T
   4    -88.7986167 -0.150330E-04  0.279E-03    1.65       4.8  T
   5    -88.7986171 -0.333739E-06  0.975E-04    1.65      13.6  T
   6    -88.7986171 -0.861475E-08  0.442E-04    1.65      30.0  T
     SCC iter.                  ...        0 min,  0.050 sec
     gradient                   ...        0 min,  0.043 sec
 * total energy  :   -87.6440982 Eh     change       -0.9205045E-03 Eh
   gradient norm :     0.0116554 Eh/α   predicted    -0.6543612E-03 ( -28.91%)
   displ. norm   :     0.3461807 α      lambda       -0.1007622E-02
   maximum displ.:     0.1702701 α      in ANC's #12, #10, #21, ...

........................................................................
.............................. CYCLE    5 ..............................
........................................................................

 iter      E             dE          RMSdq      gap      omega  full diag
   1    -88.7985228 -0.887985E+02  0.640E-02    1.62       0.0  T
   2    -88.7985276 -0.483408E-05  0.370E-02    1.62       1.0  T
   3    -88.7985177  0.995341E-05  0.167E-02    1.62       1.0  T
   4    -88.7985298 -0.121446E-04  0.269E-03    1.62       4.9  T
   5    -88.7985301 -0.279693E-06  0.107E-03    1.62      12.4  T
   6    -88.7985301 -0.521666E-08  0.338E-04    1.62      39.2  T
   7    -88.7985301 -0.310847E-08  0.113E-04    1.62     116.8  T
     SCC iter.                  ...        0 min,  0.058 sec
     gradient                   ...        0 min,  0.043 sec
 * total energy  :   -87.6447668 Eh     change       -0.6686531E-03 Eh
   gradient norm :     0.0089995 Eh/α   predicted    -0.5641897E-03 ( -15.62%)
   displ. norm   :     0.2220808 α      lambda       -0.3447729E-03
   maximum displ.:     0.1042853 α      in ANC's #10, #12, #4, ...

........................................................................
.............................. CYCLE    6 ..............................
........................................................................

 iter      E             dE          RMSdq      gap      omega  full diag
   1    -88.7986379 -0.887986E+02  0.403E-02    1.60       0.0  T
   2    -88.7986397 -0.181004E-05  0.237E-02    1.60       1.0  T
   3    -88.7986386  0.115375E-05  0.546E-03    1.60       2.4  T
   4    -88.7986401 -0.153996E-05  0.153E-03    1.60       8.7  T
   5    -88.7986402 -0.784097E-07  0.670E-04    1.60      19.8  T
   6    -88.7986402 -0.385093E-08  0.237E-04    1.60      55.8  T
     SCC iter.                  ...        0 min,  0.021 sec
     gradient                   ...        0 min,  0.043 sec
 * total energy  :   -87.6450081 Eh     change       -0.2412490E-03 Eh
   gradient norm :     0.0071355 Eh/α   predicted    -0.1809260E-03 ( -25.00%)
   displ. norm   :     0.1883555 α      lambda       -0.2090088E-03
   maximum displ.:     0.0865788 α      in ANC's #4, #10, #7, ...

........................................................................
.............................. CYCLE    7 ..............................
........................................................................

 iter      E             dE          RMSdq      gap      omega  full diag
   1    -88.7995416 -0.887995E+02  0.350E-02    1.59       0.0  T
   2    -88.7995432 -0.156545E-05  0.206E-02    1.59       1.0  T
   3    -88.7995400  0.319860E-05  0.902E-03    1.59       1.5  T
   4    -88.7995439 -0.392458E-05  0.149E-03    1.59       8.9  T
   5    -88.7995440 -0.755804E-07  0.632E-04    1.59      21.0  T
   6    -88.7995440 -0.383785E-08  0.268E-04    1.59      49.4  T
     SCC iter.                  ...        0 min,  0.042 sec
     gradient                   ...        0 min,  0.043 sec
 * total energy  :   -87.6451564 Eh     change       -0.1482924E-03 Eh
   gradient norm :     0.0047553 Eh/α   predicted    -0.1082493E-03 ( -27.00%)
   displ. norm   :     0.1738319 α      lambda       -0.1388839E-03
   maximum displ.:     0.0901689 α      in ANC's #4, #7, #14, ...

........................................................................
.............................. CYCLE    8 ..............................
........................................................................

 iter      E             dE          RMSdq      gap      omega  full diag
   1    -88.8004462 -0.888004E+02  0.316E-02    1.59       0.0  T
   2    -88.8004471 -0.953589E-06  0.184E-02    1.59       1.0  T
   3    -88.8004446  0.256555E-05  0.817E-03    1.59       1.6  T
   4    -88.8004477 -0.307992E-05  0.115E-03    1.59      11.5  T
   5    -88.8004477 -0.447133E-07  0.493E-04    1.59      26.9  T
   6    -88.8004477 -0.199529E-08  0.226E-04    1.59      58.5  T
     SCC iter.                  ...        0 min,  0.021 sec
     gradient                   ...        0 min,  0.044 sec
 * total energy  :   -87.6452582 Eh     change       -0.1018503E-03 Eh
   gradient norm :     0.0038414 Eh/α   predicted    -0.7154111E-04 ( -29.76%)
   displ. norm   :     0.1875892 α      lambda       -0.1155922E-03
   maximum displ.:     0.1003755 α      in ANC's #4, #14, #7, ...

........................................................................
.............................. CYCLE    9 ..............................
........................................................................

 iter      E             dE          RMSdq      gap      omega  full diag
   1    -88.8009641 -0.888010E+02  0.333E-02    1.59       0.0  T
   2    -88.8009649 -0.799404E-06  0.195E-02    1.59       1.0  T
   3    -88.8009635  0.137963E-05  0.588E-03    1.59       2.3  T
   4    -88.8009652 -0.160385E-05  0.119E-03    1.59      11.1  T
   5    -88.8009652 -0.599710E-07  0.450E-04    1.59      29.5  T
   6    -88.8009652 -0.754966E-09  0.174E-04    1.59      75.9  T
     SCC iter.                  ...        0 min,  0.021 sec
     gradient                   ...        0 min,  0.076 sec
 * total energy  :   -87.6453448 Eh     change       -0.8652983E-04 Eh
   gradient norm :     0.0043133 Eh/α   predicted    -0.5983315E-04 ( -30.85%)
   displ. norm   :     0.2072880 α      lambda       -0.1090348E-03
   maximum displ.:     0.1126678 α      in ANC's #4, #14, #7, ...

........................................................................
.............................. CYCLE   10 ..............................
........................................................................

 iter      E             dE          RMSdq      gap      omega  full diag
   1    -88.8009703 -0.888010E+02  0.373E-02    1.59       0.0  T
   2    -88.8009713 -0.928785E-06  0.220E-02    1.59       1.0  T
   3    -88.8009706  0.639459E-06  0.398E-03    1.59       3.3  T
   4    -88.8009714 -0.806424E-06  0.109E-03    1.59      12.1  T
   5    -88.8009715 -0.459501E-07  0.486E-04    1.59      27.2  T
   6    -88.8009715 -0.157583E-08  0.217E-04    1.59      61.0  T
     SCC iter.                  ...        0 min,  0.021 sec
     gradient                   ...        0 min,  0.077 sec
 * total energy  :   -87.6454267 Eh     change       -0.8192004E-04 Eh
   gradient norm :     0.0049121 Eh/α   predicted    -0.5686430E-04 ( -30.59%)
   displ. norm   :     0.2172598 α      lambda       -0.1067938E-03
   maximum displ.:     0.1209636 α      in ANC's #4, #14, #7, ...

........................................................................
.............................. CYCLE   11 ..............................
........................................................................

 iter      E             dE          RMSdq      gap      omega  full diag
   1    -88.8006622 -0.888007E+02  0.404E-02    1.60       0.0  T
   2    -88.8006630 -0.859611E-06  0.239E-02    1.60       1.0  T
   3    -88.8006617  0.136021E-05  0.526E-03    1.60       2.5  T
   4    -88.8006633 -0.162586E-05  0.114E-03    1.60      11.6  T
   5    -88.8006633 -0.391071E-07  0.543E-04    1.60      24.4  T
   6    -88.8006633 -0.204570E-08  0.252E-04    1.60      52.5  T
     SCC iter.                  ...        0 min,  0.021 sec
     gradient                   ...        0 min,  0.070 sec
 * total energy  :   -87.6455065 Eh     change       -0.7986622E-04 Eh
   gradient norm :     0.0050444 Eh/α   predicted    -0.5592260E-04 ( -29.98%)
   displ. norm   :     0.2124557 α      lambda       -0.1037122E-03
   maximum displ.:     0.1212515 α      in ANC's #4, #14, #10, ...

........................................................................
.............................. CYCLE   12 ..............................
........................................................................

 iter      E             dE          RMSdq      gap      omega  full diag
   1    -88.8003569 -0.888004E+02  0.406E-02    1.60       0.0  T
   2    -88.8003576 -0.641075E-06  0.239E-02    1.60       1.0  T
   3    -88.8003554  0.212850E-05  0.662E-03    1.60       2.0  T
   4    -88.8003579 -0.247506E-05  0.105E-03    1.60      12.7  T
   5    -88.8003579 -0.235321E-07  0.542E-04    1.60      24.4  T
   6    -88.8003579 -0.250799E-08  0.243E-04    1.60      54.5  T
     SCC iter.                  ...        0 min,  0.021 sec
     gradient                   ...        0 min,  0.070 sec
 * total energy  :   -87.6455836 Eh     change       -0.7710362E-04 Eh
   gradient norm :     0.0046523 Eh/α   predicted    -0.5420809E-04 ( -29.69%)
   displ. norm   :     0.2123805 α      lambda       -0.9649004E-04
   maximum displ.:     0.1215987 α      in ANC's #4, #10, #14, ...

........................................................................
.............................. CYCLE   13 ..............................
........................................................................

 iter      E             dE          RMSdq      gap      omega  full diag
   1    -88.8000894 -0.888001E+02  0.397E-02    1.60       0.0  T
   2    -88.8000900 -0.576262E-06  0.233E-02    1.60       1.0  T
   3    -88.8000885  0.149705E-05  0.577E-03    1.60       2.3  T
   4    -88.8000903 -0.174446E-05  0.107E-03    1.60      12.4  T
   5    -88.8000903 -0.345596E-07  0.500E-04    1.60      26.5  T
   6    -88.8000903 -0.953577E-09  0.187E-04    1.60      70.7  T
     SCC iter.                  ...        0 min,  0.021 sec
     gradient                   ...        0 min,  0.076 sec
 * total energy  :   -87.6456550 Eh     change       -0.7138342E-04 Eh
   gradient norm :     0.0042096 Eh/α   predicted    -0.5042351E-04 ( -29.36%)
   displ. norm   :     0.1921242 α      lambda       -0.8930755E-04
   maximum displ.:     0.1068093 α      in ANC's #4, #10, #12, ...

........................................................................
.............................. CYCLE   14 ..............................
........................................................................

 iter      E             dE          RMSdq      gap      omega  full diag
   1    -88.8006238 -0.888006E+02  0.344E-02    1.60       0.0  T
   2    -88.8006247 -0.865728E-06  0.203E-02    1.60       1.0  T
   3    -88.8006239  0.766756E-06  0.446E-03    1.60       3.0  T
   4    -88.8006249 -0.922561E-06  0.115E-03    1.60      11.5  T
   5    -88.8006249 -0.560186E-07  0.463E-04    1.60      28.6  T
   6    -88.8006249 -0.119263E-08  0.223E-04    1.60      59.3  T
     SCC iter.                  ...        0 min,  0.021 sec
     gradient                   ...        0 min,  0.070 sec
 * total energy  :   -87.6457181 Eh     change       -0.6310777E-04 Eh
   gradient norm :     0.0035861 Eh/α   predicted    -0.4630646E-04 ( -26.62%)
   displ. norm   :     0.2918394 α      lambda       -0.8565050E-04
   maximum displ.:     0.1632340 α      in ANC's #4, #12, #14, ...

........................................................................
.............................. CYCLE   15 ..............................
........................................................................

 iter      E             dE          RMSdq      gap      omega  full diag
   1    -88.7984546 -0.887985E+02  0.486E-02    1.60       0.0  T
   2    -88.7984566 -0.201937E-05  0.286E-02    1.60       1.0  T
   3    -88.7984561  0.504020E-06  0.461E-03    1.60       2.9  T
   4    -88.7984569 -0.786198E-06  0.157E-03    1.60       8.4  T
   5    -88.7984570 -0.767457E-07  0.729E-04    1.60      18.2  T
   6    -88.7984570 -0.294337E-08  0.299E-04    1.60      44.3  T
     SCC iter.                  ...        0 min,  0.021 sec
     gradient                   ...        0 min,  0.064 sec
 * total energy  :   -87.6457276 Eh     change       -0.9457703E-05 Eh
   gradient norm :     0.0078720 Eh/α   predicted    -0.4647382E-04 ( 391.39%)
   displ. norm   :     0.1148648 α      lambda       -0.1631174E-03
   maximum displ.:     0.0551522 α      in ANC's #8, #7, #9, ...

........................................................................
.............................. CYCLE   16 ..............................
........................................................................

 iter      E             dE          RMSdq      gap      omega  full diag
   1    -88.8018574 -0.888019E+02  0.275E-02    1.61       0.0  T
   2    -88.8018600 -0.263951E-05  0.158E-02    1.60       1.0  T
   3    -88.8018592  0.842730E-06  0.578E-03    1.60       2.3  T
   4    -88.8018603 -0.108660E-05  0.192E-03    1.60       6.9  T
   5    -88.8018604 -0.158066E-06  0.605E-04    1.60      21.9  T
   6    -88.8018604 -0.247108E-08  0.327E-04    1.60      40.5  T
     SCC iter.                  ...        0 min,  0.021 sec
     gradient                   ...        0 min,  0.070 sec
 * total energy  :   -87.6458062 Eh     change       -0.7865466E-04 Eh
   gradient norm :     0.0049697 Eh/α   predicted    -0.8263700E-04 (   5.06%)
   displ. norm   :     0.0843253 α      lambda       -0.4232913E-04
   maximum displ.:     0.0435809 α      in ANC's #4, #12, #14, ...

........................................................................
.............................. CYCLE   17 ..............................
........................................................................

 iter      E             dE          RMSdq      gap      omega  full diag
   1    -88.8016614 -0.888017E+02  0.120E-02    1.61       0.0  T
   2    -88.8016616 -0.196019E-06  0.713E-03    1.61       1.9  T
   3    -88.8016615  0.941230E-07  0.179E-03    1.61       7.4  T
   4    -88.8016617 -0.114968E-06  0.478E-04    1.61      27.7  T
   5    -88.8016617 -0.106753E-07  0.161E-04    1.61      82.3  T
     SCC iter.                  ...        0 min,  0.051 sec
     gradient                   ...        0 min,  0.043 sec
 * total energy  :   -87.6458449 Eh     change       -0.3865170E-04 Eh
   gradient norm :     0.0038872 Eh/α   predicted    -0.2131652E-04 ( -44.85%)
   displ. norm   :     0.3749708 α      lambda       -0.1754131E-03
   maximum displ.:     0.1792026 α      in ANC's #4, #12, #14, ...

........................................................................
.............................. CYCLE   18 ..............................
........................................................................

 iter      E             dE          RMSdq      gap      omega  full diag
   1    -88.7998620 -0.887999E+02  0.553E-02    1.62       0.0  T
   2    -88.7998661 -0.410123E-05  0.326E-02    1.62       1.0  T
   3    -88.7998644  0.174036E-05  0.782E-03    1.62       1.7  T
   4    -88.7998665 -0.212436E-05  0.229E-03    1.62       5.8  T
   5    -88.7998667 -0.236767E-06  0.779E-04    1.62      17.0  T
   6    -88.7998667 -0.324148E-08  0.393E-04    1.62      33.7  T
     SCC iter.                  ...        0 min,  0.057 sec
     gradient                   ...        0 min,  0.043 sec
 * total energy  :   -87.6459229 Eh     change       -0.7797771E-04 Eh
   gradient norm :     0.0053711 Eh/α   predicted    -0.1000391E-03 (  28.29%)
   displ. norm   :     0.1275269 α      lambda       -0.7001002E-04
   maximum displ.:     0.0692148 α      in ANC's #4, #12, #5, ...

........................................................................
.............................. CYCLE   19 ..............................
........................................................................

 iter      E             dE          RMSdq      gap      omega  full diag
   1    -88.8021229 -0.888021E+02  0.276E-02    1.61       0.0  T
   2    -88.8021241 -0.124990E-05  0.160E-02    1.61       1.0  T
   3    -88.8021240  0.129835E-06  0.328E-03    1.61       4.0  T
   4    -88.8021243 -0.247865E-06  0.110E-03    1.61      12.1  T
   5    -88.8021243 -0.414402E-07  0.516E-04    1.61      25.7  T
   6    -88.8021243 -0.201210E-08  0.231E-04    1.61      57.4  T
     SCC iter.                  ...        0 min,  0.021 sec
     gradient                   ...        0 min,  0.073 sec
 * total energy  :   -87.6459405 Eh     change       -0.1760479E-04 Eh
   gradient norm :     0.0035463 Eh/α   predicted    -0.3557469E-04 ( 102.07%)
   displ. norm   :     0.0870816 α      lambda       -0.3061061E-04
   maximum displ.:     0.0415013 α      in ANC's #4, #10, #12, ...

........................................................................
.............................. CYCLE   20 ..............................
........................................................................

 iter      E             dE          RMSdq      gap      omega  full diag
   1    -88.8016751 -0.888017E+02  0.143E-02    1.61       0.0  T
   2    -88.8016755 -0.326726E-06  0.846E-03    1.61       1.6  T
   3    -88.8016753  0.122861E-06  0.203E-03    1.61       6.5  T
   4    -88.8016755 -0.164144E-06  0.527E-04    1.61      25.2  T
   5    -88.8016755 -0.117796E-07  0.228E-04    1.61      58.2  T
     SCC iter.                  ...        0 min,  0.018 sec
     gradient                   ...        0 min,  0.076 sec
 * total energy  :   -87.6459633 Eh     change       -0.2286229E-04 Eh
   gradient norm :     0.0017257 Eh/α   predicted    -0.1542218E-04 ( -32.54%)
   displ. norm   :     0.2583221 α      lambda       -0.3272312E-04
   maximum displ.:     0.1210763 α      in ANC's #4, #12, #10, ...
 * RMSD in coord.:     0.3691161 α      energy gain  -0.1655384E-01 Eh

generating ANC from exact Hessian ...
Using Lindh-Hessian (1995)
 Shifting diagonal of input Hessian by    9.8586461869935235E-003
 Lowest  eigenvalues of input Hessian
    0.000000    0.000000    0.000000    0.000000    0.000000    0.000000
    0.010000    0.010077    0.010269    0.010583    0.010734    0.011509
    0.012110    0.012645    0.013242    0.013761    0.015704    0.017266
 Highest eigenvalues
    1.974362    1.981776    2.087914    2.207718    2.212533    2.371040


........................................................................
.............................. CYCLE   21 ..............................
........................................................................

 iter      E             dE          RMSdq      gap      omega  full diag
   1    -88.7999897 -0.888000E+02  0.390E-02    1.61       0.0  T
   2    -88.7999907 -0.979730E-06  0.230E-02    1.61       1.0  T
   3    -88.7999906  0.769462E-07  0.256E-03    1.61       5.2  T
   4    -88.7999908 -0.213110E-06  0.102E-03    1.61      13.0  T
   5    -88.7999908 -0.248815E-07  0.521E-04    1.61      25.4  T
   6    -88.7999908 -0.376203E-08  0.187E-04    1.61      70.8  T
     SCC iter.                  ...        0 min,  0.064 sec
     gradient                   ...        0 min,  0.043 sec
 * total energy  :   -87.6459750 Eh     change       -0.1161141E-04 Eh
   gradient norm :     0.0040305 Eh/α   predicted     0.0000000E+00 (-100.00%)
   displ. norm   :     0.0230051 α      lambda       -0.3913405E-04
   maximum displ.:     0.0099758 α      in ANC's #8, #14, #9, ...

........................................................................
.............................. CYCLE   22 ..............................
........................................................................

 iter      E             dE          RMSdq      gap      omega  full diag
   1    -88.8014097 -0.888014E+02  0.791E-03    1.61       0.0  T
   2    -88.8014101 -0.332500E-06  0.432E-03    1.61       3.1  T
   3    -88.8014101 -0.934166E-08  0.151E-03    1.61       8.8  T
   4    -88.8014101 -0.103401E-07  0.475E-04    1.61      27.9  T
   5    -88.8014101 -0.689052E-08  0.212E-04    1.61      62.3  T
     SCC iter.                  ...        0 min,  0.018 sec
     gradient                   ...        0 min,  0.042 sec
 * total energy  :   -87.6460005 Eh     change       -0.2549610E-04 Eh
   gradient norm :     0.0009894 Eh/α   predicted    -0.1981856E-04 ( -22.27%)
   displ. norm   :     0.0434917 α      lambda       -0.1043159E-04
   maximum displ.:     0.0190573 α      in ANC's #9, #8, #14, ...

........................................................................
.............................. CYCLE   23 ..............................
........................................................................

 iter      E             dE          RMSdq      gap      omega  full diag
   1    -88.8022280 -0.888022E+02  0.802E-03    1.61       0.0  T
   2    -88.8022281 -0.123407E-06  0.464E-03    1.61       2.9  T
   3    -88.8022281  0.228678E-07  0.110E-03    1.61      12.0  T
   4    -88.8022281 -0.342113E-07  0.396E-04    1.61      33.5  T
   5    -88.8022281 -0.580671E-08  0.155E-04    1.61      85.3  T
     SCC iter.                  ...        0 min,  0.039 sec
     gradient                   ...        0 min,  0.043 sec
 * total energy  :   -87.6460101 Eh     change       -0.9689927E-05 Eh
   gradient norm :     0.0011838 Eh/α   predicted    -0.5221790E-05 ( -46.11%)
   displ. norm   :     0.0615247 α      lambda       -0.8966071E-05
   maximum displ.:     0.0268352 α      in ANC's #9, #5, #14, ...

........................................................................
.............................. CYCLE   24 ..............................
........................................................................

 iter      E             dE          RMSdq      gap      omega  full diag
   1    -88.8021707 -0.888022E+02  0.105E-02    1.61       0.0  T
   2    -88.8021707 -0.367697E-07  0.620E-03    1.61       2.1  T
   3    -88.8021707  0.350032E-07  0.941E-04    1.61      14.1  T
   4    -88.8021707 -0.489437E-07  0.262E-04    1.61      50.6  T
     SCC iter.                  ...        0 min,  0.014 sec
     gradient                   ...        0 min,  0.044 sec
 * total energy  :   -87.6460217 Eh     change       -0.1157774E-04 Eh
   gradient norm :     0.0013361 Eh/α   predicted    -0.4512191E-05 ( -61.03%)
   displ. norm   :     0.1729035 α      lambda       -0.2163023E-04
   maximum displ.:     0.0770153 α      in ANC's #5, #14, #9, ...

........................................................................
.............................. CYCLE   25 ..............................
........................................................................

 iter      E             dE          RMSdq      gap      omega  full diag
   1    -88.8012244 -0.888012E+02  0.304E-02    1.61       0.0  T
   2    -88.8012248 -0.319840E-06  0.179E-02    1.61       1.0  T
   3    -88.8012246  0.109836E-06  0.206E-03    1.61       6.4  T
   4    -88.8012248 -0.194113E-06  0.829E-04    1.61      16.0  T
   5    -88.8012248 -0.149356E-07  0.379E-04    1.61      35.0  T
     SCC iter.                  ...        0 min,  0.018 sec
     gradient                   ...        0 min,  0.043 sec
 * total energy  :   -87.6460403 Eh     change       -0.1859521E-04 Eh
   gradient norm :     0.0007251 Eh/α   predicted    -0.1095942E-04 ( -41.06%)
   displ. norm   :     0.0421661 α      lambda       -0.3352907E-05
   maximum displ.:     0.0231098 α      in ANC's #5, #14, #4, ...

........................................................................
.............................. CYCLE   26 ..............................
........................................................................

 iter      E             dE          RMSdq      gap      omega  full diag
   1    -88.8012656 -0.888013E+02  0.866E-03    1.61       0.0  T
   2    -88.8012657 -0.195446E-07  0.510E-03    1.61       2.6  T
   3    -88.8012656  0.201545E-07  0.722E-04    1.61      18.4  T
   4    -88.8012657 -0.276693E-07  0.218E-04    1.61      60.9  T
     SCC iter.                  ...        0 min,  0.029 sec
     gradient                   ...        0 min,  0.043 sec
 * total energy  :   -87.6460445 Eh     change       -0.4194961E-05 Eh
   gradient norm :     0.0005589 Eh/α   predicted    -0.1679423E-05 ( -59.97%)
   displ. norm   :     0.0860331 α      lambda       -0.7543715E-05
   maximum displ.:     0.0484463 α      in ANC's #5, #4, #14, ...

   *** GEOMETRY OPTIMIZATION CONVERGED AFTER 26 ITERATIONS ***

------------------------------------------------------------------------
 total energy gain   :        -0.0166350 Eh      -10.4386 kcal/mol
 total RMSD          :         0.3765795 a0        0.1993 Å
 total power (kW/mol):        -1.6798159 (step)  -15.0608 (real)
------------------------------------------------------------------------

 ANCopt (total)                0 d,  0 h,  0 min,  2.900 sec
 optimizer setup                ...        0 min,  0.000 sec (  0.003%)
 model hessian                  ...        0 min,  0.084 sec (  2.912%)
 ANC generation                 ...        0 min,  0.005 sec (  0.189%)
 coordinate transformation      ...        0 min,  0.000 sec (  0.013%)
 single point calculation       ...        0 min,  2.801 sec ( 96.573%)
 optimization log               ...        0 min,  0.005 sec (  0.178%)
 hessian update                 ...        0 min,  0.001 sec (  0.019%)
 rational function              ...        0 min,  0.002 sec (  0.079%)

================
 final structure:
================
57
 xtb: 6.7.1 (edcfbbe)
O            2.48079448827551        1.73708197132229       -1.16798026158026
C            3.04918035418945        1.05620697195135       -0.32926436802522
C            2.41280596607481        0.12770280299420        0.57153649218315
C            0.93323590653989       -0.02818734290825        0.42837273751518
C            0.61930511511793       -1.05881825767999       -0.68262281403582
N           -0.77486592347395       -1.35094119124775       -0.90436715210693
C           -1.56182943821730       -0.21453092745592       -1.34036303287285
C           -2.87688729358570       -0.71804701918443       -1.92625954032639
C           -3.67110163269393       -1.51062281898139       -0.87425840395570
C           -2.76659733214167       -2.59781611583685       -0.28570753650297
C           -1.43411120712633       -2.02915711822158        0.19575752739159
C           -4.23335073686151       -0.58239665030698        0.14876547068564
N           -3.58598411793971       -0.14630040237597        1.18607005385531
O           -4.38437225341990        0.71213317129668        1.89798770369194
C           -5.56550371145008        0.81051899736581        1.26843688956676
C           -5.54858723071297       -0.00211732329461        0.11861959846336
C           -6.66800313966353       -0.07196889200553       -0.70805031020103
C           -7.77213702137233        0.67209230550990       -0.36374853577423
C           -7.75287611289920        1.46884437106529        0.78460743434521
F           -8.86072035311750        2.17667218529620        1.07469038495098
C           -6.67016305809499        1.56830993000379        1.63067759164032
C            3.17907064677139       -0.56890330363863        1.46194348205104
N            4.52464627809092       -0.40842079663212        1.52671346162981
C            5.11316964969602        0.42004768802588        0.72635128114868
N            4.44662729231505        1.15464362371075       -0.19212321326099
C            5.08942406957885        2.12081144908632       -1.06991908806104
C            6.57629549552798        1.85996070243270       -1.22896322330023
C            7.20062582945377        1.72956364466959        0.15399718787924
C            6.60948107331443        0.50155381693369        0.83206485439960
C            2.61818668371419       -1.55166094969901        2.44195813715615
H            0.48460943900472       -0.34745230216504        1.36822663364325
H            0.51277455844814        0.93463413470031        0.13443748329836
H            1.03259282424339       -0.68071534193844       -1.62188225703806
H            1.12108169361890       -2.00296733340972       -0.44780636123356
H           -0.99966393046302        0.32478377117012       -2.10576339015158
H           -1.77672000305531        0.47825718643020       -0.51053124739152
H           -3.46942420649476        0.12220266375652       -2.29413707734414
H           -2.65745980113030       -1.38261295133216       -2.76281799075375
H           -4.52425769782363       -1.99010650342381       -1.36866410784385
H           -2.57214037461112       -3.33437501636652       -1.06741258089001
H           -3.27159823148613       -3.09570491300811        0.54357051942875
H           -1.62585496448859       -1.35673153496080        1.04461344598111
H           -0.79338809333594       -2.84978737896103        0.52923703295148
H           -6.66741386914367       -0.69024855270916       -1.59176029755389
H           -8.66715037121160        0.65795465032603       -0.96500105419294
H           -6.68505290444632        2.19104700261342        2.50840867685900
H            4.92140405134642        3.12089842600115       -0.65231314104377
H            4.56246883281073        2.07713701022179       -2.02787674835755
H            7.02168923322234        2.68399327189804       -1.78697130669645
H            6.73750579284604        0.93878557829454       -1.79279443816135
H            6.98258866402849        2.62509280972550        0.73952955094177
H            8.28433198022765        1.62772956125262        0.08433755077346
H            7.01161620062416       -0.40452731178454        0.36836253638349
H            6.87060141955849        0.45786648904947        1.88993504831456
H            2.03220379528061       -2.31407883717219        1.93332685705457
H            1.97073435427222       -1.04591345257818        3.15734939538113
H            3.43836332226985       -2.02151564782520        2.97707445909175

 Bond Distances (Angstroems)
 ---------------------------
O1-C2=1.2207         C2-O1=1.2207         C2-C3=1.4417         C2-N25=1.4076        C3-C2=1.4417         C3-C4=1.4946         
C3-C22=1.3657        C4-C3=1.4946         C4-C5=1.5476         C4-H31=1.0893        C4-H32=1.0910        C5-C4=1.5476         
C5-N6=1.4416         C5-H33=1.0936        C5-H34=1.0947        N6-C5=1.4416         N6-C7=1.4494         N6-C11=1.4508        
C7-N6=1.4494         C7-C8=1.5252         C7-H35=1.0921        C7-H36=1.1022        C8-C7=1.5252         C8-C9=1.5381         
C8-H37=1.0920        C8-H38=1.0907        C9-C8=1.5381         C9-C10=1.5318        C9-C12=1.4914        C9-H39=1.0965        
C10-C9=1.5318        C10-C11=1.5267       C10-H40=1.0915       C10-H41=1.0912       C11-N6=1.4508        C11-C10=1.5267       
C11-H42=1.0998       C11-H43=1.0932       C12-C9=1.4914        C12-N13=1.2982       C12-C16=1.4379       N13-C12=1.2982       
N13-O14=1.3716       O14-N13=1.3716       O14-C15=1.3420       C15-O14=1.3420       C15-C16=1.4081       C15-C21=1.3877       
C16-C12=1.4379       C16-C15=1.4081       C16-C17=1.3933       C17-C16=1.3933       C17-C18=1.3752       C17-H44=1.0785       
C18-C17=1.3752       C18-C19=1.3978       C18-H45=1.0783       C19-C18=1.3978       C19-F20=1.3463       C19-C21=1.3777       
F20-C19=1.3463       C21-C15=1.3877       C21-C19=1.3777       C21-H46=1.0763       C22-C3=1.3657        C22-N23=1.3567       
C22-C30=1.4969       N23-C22=1.3567       N23-C24=1.2936       C24-N23=1.2936       C24-N25=1.3519       C24-C29=1.5023       
N25-C2=1.4076        N25-C24=1.3519       N25-C26=1.4551       C26-N25=1.4551       C26-C27=1.5179       C26-H47=1.0967       
C26-H48=1.0942       C27-C26=1.5179       C27-C28=1.5229       C27-H49=1.0903       C27-H50=1.0920       C28-C27=1.5229       
C28-C29=1.5222       C28-H51=1.0920       C28-H52=1.0907       C29-C24=1.5023       C29-C28=1.5222       C29-H53=1.0944       
C29-H54=1.0905       C30-C22=1.4969       C30-H55=1.0878       C30-H56=1.0894       C30-H57=1.0862       H31-C4=1.0893        
H32-C4=1.0910        H33-C5=1.0936        H34-C5=1.0947        H35-C7=1.0921        H36-C7=1.1022        H37-C8=1.0920        
H38-C8=1.0907        H39-C9=1.0965        H40-C10=1.0915       H41-C10=1.0912       H42-C11=1.0998       H43-C11=1.0932       
H44-C17=1.0785       H45-C18=1.0783       H46-C21=1.0763       H47-C26=1.0967       H48-C26=1.0942       H49-C27=1.0903       
H50-C27=1.0920       H51-C28=1.0920       H52-C28=1.0907       H53-C29=1.0944       H54-C29=1.0905       H55-C30=1.0878       
H56-C30=1.0894       H57-C30=1.0862       
 C  H  Rav=1.0909 sigma=0.0057  Rmin=1.0763  Rmax=1.1022    27
 C  C  Rav=1.4668 sigma=0.0629  Rmin=1.3657  Rmax=1.5476    21
 N  C  Rav=1.3894 sigma=0.0621  Rmin=1.2936  Rmax=1.4551     9
 O  C  Rav=1.2814 sigma=0.0607  Rmin=1.2207  Rmax=1.3420     2
 O  N  Rav=1.3716 sigma=0.0000  Rmin=1.3716  Rmax=1.3716     1
 F  C  Rav=1.3463 sigma=0.0000  Rmin=1.3463  Rmax=1.3463     1

 selected bond angles (degree)
 --------------------
C3-C2-O1=125.66                N25-C2-O1=119.35               N25-C2-C3=114.98               C4-C3-C2=116.38                
C22-C3-C2=119.22               C22-C3-C4=124.38               C5-C4-C3=109.82                H31-C4-C3=110.83               
H31-C4-C5=109.92               H32-C4-C3=108.38               H32-C4-C5=108.43               H32-C4-H31=109.41              
N6-C5-C4=116.20                H33-C5-C4=108.04               H33-C5-N6=107.66               H34-C5-C4=109.11               
H34-C5-N6=107.55               H34-C5-H33=108.01              C7-N6-C5=114.36                C11-N6-C5=114.68               
C11-N6-C7=110.36               C8-C7-N6=108.96                H35-C7-N6=108.57               H35-C7-C8=109.73               
H36-C7-N6=111.85               H36-C7-C8=109.19               H36-C7-H35=108.52              C9-C8-C7=110.65                
H37-C8-C7=110.07               H37-C8-C9=110.29               H38-C8-C7=108.80               H38-C8-C9=108.33               
H38-C8-H37=108.64              C10-C9-C8=108.88               C12-C9-C8=110.07               C12-C9-C10=113.63              
H39-C9-C8=108.59               H39-C9-C10=108.80              H39-C9-C12=106.75              C11-C10-C9=111.85              
H40-C10-C9=108.00              H40-C10-C11=108.77             H41-C10-C9=110.03              H41-C10-C11=109.53             
H41-C10-H40=108.59             

 selected dihedral angles (degree)
 ---------------------------------
C4-C3-C2-O1=  1.67            C4-C3-C2-N25=181.56           C22-C3-C2-O1=180.02           C22-C3-C2-N25=359.90          
C5-C4-C3-C2= 84.50            C5-C4-C3-C22=266.25           H31-C4-C3-C2=206.14           H31-C4-C3-C22= 27.89          
H32-C4-C3-C2=326.22           H32-C4-C3-C22=147.97          N6-C5-C4-C3=177.88            N6-C5-C4-H31= 55.70           
N6-C5-C4-H32=296.13           H33-C5-C4-C3=298.94           H33-C5-C4-H31=176.76          H33-C5-C4-H32= 57.19          
H34-C5-C4-C3= 56.13           H34-C5-C4-H31=293.95          H34-C5-C4-H32=174.39          C7-N6-C5-C4= 62.44            
C7-N6-C5-H33=301.18           C7-N6-C5-H34=185.01           C11-N6-C5-C4=293.51           C11-N6-C5-H33=172.25          
C11-N6-C5-H34= 56.08          C8-C7-N6-C5=163.45            C8-C7-N6-C11=294.51           H35-C7-N6-C5= 43.97           
H35-C7-N6-C11=175.04          H36-C7-N6-C5=284.25           H36-C7-N6-C11= 55.32          C9-C8-C7-N6= 59.89            
C9-C8-C7-H35=178.64           C9-C8-C7-H36=297.47           H37-C8-C7-N6=182.05           H37-C8-C7-H35=300.80          
H37-C8-C7-H36= 59.62          H38-C8-C7-N6=300.99           H38-C8-C7-H35= 59.74          H38-C8-C7-H36=178.56          
C10-C9-C8-C7=307.30           C10-C9-C8-H37=185.27          C10-C9-C8-H38= 66.49          C12-C9-C8-C7= 72.46           
C12-C9-C8-H37=310.43          C12-C9-C8-H38=191.65          H39-C9-C8-C7=188.98           H39-C9-C8-H37= 66.95          
H39-C9-C8-H38=308.17          C11-C10-C9-C8= 51.44          C11-C10-C9-C12=288.39         C11-C10-C9-H39=169.63         
H40-C10-C9-C8=291.79          H40-C10-C9-C12=168.74         H40-C10-C9-H39= 49.98         H41-C10-C9-C8=173.42          
H41-C10-C9-C12= 50.36         H41-C10-C9-H39=291.60         
           -------------------------------------------------
          |                Final Singlepoint                |
           -------------------------------------------------

          ...................................................
          :                      SETUP                      :
          :.................................................:
          :  # basis functions                 147          :
          :  # atomic orbitals                 147          :
          :  # shells                           87          :
          :  # electrons                       158          :
          :  max. iterations                   250          :
          :  Hamiltonian                  GFN2-xTB          :
          :  restarted?                      false          :
          :  GBSA solvation                  false          :
          :  PC potential                    false          :
          :  electronic temp.          300.0000000     K    :
          :  accuracy                    1.0000000          :
          :  -> integral cutoff          0.2500000E+02      :
          :  -> integral neglect         0.1000000E-07      :
          :  -> SCF convergence          0.1000000E-05 Eh   :
          :  -> wf. convergence          0.1000000E-03 e    :
          :  Broyden damping             0.4000000          :
          :  net charge                          0          :
          :  unpaired electrons                  0          :
          ...................................................

 iter      E             dE          RMSdq      gap      omega  full diag
   1    -88.8012657 -0.888013E+02  0.103E-04    1.61       0.0  T
   2    -88.8012657 -0.789413E-10  0.614E-05    1.61     215.6  T
   3    -88.8012657 -0.371188E-10  0.396E-05    1.61     334.8  T

   *** convergence criteria satisfied after 3 iterations ***

         #    Occupation            Energy/Eh            Energy/eV
      -------------------------------------------------------------
         1        2.0000           -0.8264181             -22.4880
       ...           ...                  ...                  ...
        73        2.0000           -0.4197276             -11.4214
        74        2.0000           -0.4124888             -11.2244
        75        2.0000           -0.4076076             -11.0916
        76        2.0000           -0.3854587             -10.4889
        77        2.0000           -0.3781778             -10.2907
        78        2.0000           -0.3769633             -10.2577
        79        2.0000           -0.3358164              -9.1380 (HOMO)
        80                         -0.2768079              -7.5323 (LUMO)
        81                         -0.2486387              -6.7658
        82                         -0.2399844              -6.5303
        83                         -0.2176390              -5.9223
        84                         -0.2027383              -5.5168
       ...                                ...                  ...
       147                          0.6897591              18.7693
      -------------------------------------------------------------
                  HL-Gap            0.0590084 Eh            1.6057 eV
             Fermi-level           -0.3063122 Eh           -8.3352 eV

 SCC (total)                   0 d,  0 h,  0 min,  0.086 sec
 SCC setup                      ...        0 min,  0.001 sec (  0.617%)
 Dispersion                     ...        0 min,  0.001 sec (  0.995%)
 classical contributions        ...        0 min,  0.000 sec (  0.305%)
 integral evaluation            ...        0 min,  0.012 sec ( 13.422%)
 iterations                     ...        0 min,  0.012 sec ( 14.377%)
 molecular gradient             ...        0 min,  0.060 sec ( 69.872%)
 printout                       ...        0 min,  0.000 sec (  0.400%)

         :::::::::::::::::::::::::::::::::::::::::::::::::::::
         ::                     SUMMARY                     ::
         :::::::::::::::::::::::::::::::::::::::::::::::::::::
         :: total energy             -87.646044510109 Eh    ::
         :: gradient norm              0.000559040866 Eh/a0 ::
         :: HOMO-LUMO gap              1.605701292580 eV    ::
         ::.................................................::
         :: SCC energy               -88.801232137383 Eh    ::
         :: -> isotropic ES            0.080885188498 Eh    ::
         :: -> anisotropic ES          0.006023990674 Eh    ::
         :: -> anisotropic XC          0.040847015433 Eh    ::
         :: -> dispersion             -0.062926779680 Eh    ::
         :: repulsion energy           1.155187627274 Eh    ::
         :: add. restraining           0.000000000000 Eh    ::
         :: total charge               0.000000000000 e     ::
         :::::::::::::::::::::::::::::::::::::::::::::::::::::

           -------------------------------------------------
          |                Property Printout                |
           -------------------------------------------------

    * Orbital Energies and Occupations

         #    Occupation            Energy/Eh            Energy/eV
      -------------------------------------------------------------
         1        2.0000           -0.8264181             -22.4880
       ...           ...                  ...                  ...
        67        2.0000           -0.4408573             -11.9963
        68        2.0000           -0.4386262             -11.9356
        69        2.0000           -0.4280706             -11.6484
        70        2.0000           -0.4272062             -11.6249
        71        2.0000           -0.4230433             -11.5116
        72        2.0000           -0.4207204             -11.4484
        73        2.0000           -0.4197276             -11.4214
        74        2.0000           -0.4124888             -11.2244
        75        2.0000           -0.4076076             -11.0916
        76        2.0000           -0.3854587             -10.4889
        77        2.0000           -0.3781778             -10.2907
        78        2.0000           -0.3769633             -10.2577
        79        2.0000           -0.3358164              -9.1380 (HOMO)
        80                         -0.2768079              -7.5323 (LUMO)
        81                         -0.2486387              -6.7658
        82                         -0.2399844              -6.5303
        83                         -0.2176390              -5.9223
        84                         -0.2027383              -5.5168
        85                         -0.1156776              -3.1477
        86                         -0.1078856              -2.9357
        87                         -0.0453539              -1.2341
        88                         -0.0060059              -0.1634
        89                          0.0348876               0.9493
        90                          0.0449970               1.2244
       ...                                ...                  ...
       147                          0.6897591              18.7693
      -------------------------------------------------------------
                  HL-Gap            0.0590084 Eh            1.6057 eV
             Fermi-level           -0.3063122 Eh           -8.3352 eV

     #   Z          covCN         q      C6AA      α(0)
     1   8 O        0.858    -0.465    23.022     6.433
     2   6 C        2.789     0.256    22.696     7.804
     3   6 C        2.960    -0.058    29.433     8.899
     4   6 C        3.806    -0.064    21.731     6.636
     5   6 C        3.755     0.007    20.514     6.458
     6   7 N        2.731    -0.169    24.657     7.375
     7   6 C        3.765     0.007    20.498     6.453
     8   6 C        3.811    -0.059    21.625     6.619
     9   6 C        3.857    -0.016    20.828     6.491
    10   6 C        3.808    -0.062    21.679     6.628
    11   6 C        3.764     0.001    20.605     6.470
    12   6 C        3.006     0.083    26.127     8.385
    13   7 N        1.956    -0.125    24.479     7.337
    14   8 O        1.800    -0.142    16.431     5.474
    15   6 C        3.049     0.136    24.981     8.197
    16   6 C        3.031    -0.035    28.841     8.809
    17   6 C        2.914    -0.030    28.743     8.791
    18   6 C        2.920    -0.055    29.357     8.885
    19   6 C        2.797     0.173    24.282     8.072
    20   9 F        0.788    -0.215    11.390     3.987
    21   6 C        2.906    -0.072    29.795     8.950
    22   6 C        2.941     0.091    25.969     8.358
    23   7 N        1.851    -0.285    28.251     7.878
    24   6 C        2.880     0.158    24.576     8.127
    25   7 N        2.745    -0.075    22.696     7.076
    26   6 C        3.756     0.005    20.540     6.462
    27   6 C        3.808    -0.064    21.723     6.635
    28   6 C        3.808    -0.058    21.620     6.619
    29   6 C        3.817    -0.073    21.889     6.659
    30   6 C        3.760    -0.116    22.772     6.803
    31   1 H        0.925     0.039     2.462     2.454
    32   1 H        0.924     0.056     2.245     2.343
    33   1 H        0.924     0.043     2.404     2.425
    34   1 H        0.924     0.028     2.617     2.530
    35   1 H        0.924     0.043     2.410     2.428
    36   1 H        0.923     0.024     2.674     2.557
    37   1 H        0.924     0.032     2.555     2.500
    38   1 H        0.924     0.052     2.301     2.372
    39   1 H        0.924     0.037     2.492     2.469
    40   1 H        0.924     0.048     2.351     2.398
    41   1 H        0.924     0.037     2.494     2.469
    42   1 H        0.923     0.038     2.477     2.461
    43   1 H        0.924     0.033     2.549     2.497
    44   1 H        0.926     0.052     2.298     2.371
    45   1 H        0.926     0.066     2.133     2.284
    46   1 H        0.926     0.077     2.014     2.219
    47   1 H        0.924     0.055     2.254     2.348
    48   1 H        0.924     0.078     1.996     2.209
    49   1 H        0.924     0.046     2.364     2.405
    50   1 H        0.924     0.046     2.377     2.411
    51   1 H        0.924     0.043     2.415     2.430
    52   1 H        0.924     0.042     2.420     2.433
    53   1 H        0.924     0.065     2.141     2.288
    54   1 H        0.924     0.070     2.087     2.259
    55   1 H        0.925     0.053     2.284     2.363
    56   1 H        0.925     0.055     2.255     2.348
    57   1 H        0.925     0.065     2.145     2.290

 Mol. C6AA /au·bohr⁶  :      34367.717017
 Mol. C8AA /au·bohr⁸  :     797860.951014
 Mol. α(0) /au        :        282.329051


Wiberg/Mayer (AO) data.
largest (>0.10) Wiberg bond orders for each atom

 ---------------------------------------------------------------------------
     #   Z sym  total        # sym  WBO       # sym  WBO       # sym  WBO
 ---------------------------------------------------------------------------
     1   8 O    1.981 --     2 C    1.631    25 N    0.138
     2   6 C    3.950 --     1 O    1.631     3 C    1.133    25 N    1.066
     3   6 C    3.983 --    22 C    1.540     2 C    1.133     4 C    1.020
     4   6 C    3.994 --     3 C    1.020    31 H    0.970    32 H    0.967
                             5 C    0.960
     5   6 C    3.985 --     6 N    1.015    34 H    0.971    33 H    0.971
                             4 C    0.960
     6   7 N    3.148 --     5 C    1.015     7 C    1.004    11 C    1.003
     7   6 C    3.987 --     8 C    1.005     6 N    1.004    35 H    0.971
                            36 H    0.960
     8   6 C    3.994 --     7 C    1.005    37 H    0.977    38 H    0.973
                             9 C    0.970
     9   6 C    3.994 --    12 C    1.008    10 C    0.988     8 C    0.970
                            39 H    0.962
    10   6 C    3.995 --    11 C    1.004     9 C    0.988    41 H    0.977
                            40 H    0.976
    11   6 C    3.986 --    10 C    1.004     6 N    1.003    43 H    0.972
                            42 H    0.957
    12   6 C    3.975 --    13 N    1.640    16 C    1.165     9 C    1.008
    13   7 N    2.960 --    12 C    1.640    14 O    1.051
    14   8 O    2.409 --    15 C    1.127    13 N    1.051
    15   6 C    3.938 --    21 C    1.330    16 C    1.279    14 O    1.127
    16   6 C    3.983 --    17 C    1.329    15 C    1.279    12 C    1.165
    17   6 C    3.991 --    18 C    1.510    16 C    1.329    44 H    0.967
                            21 C    0.115
    18   6 C    3.986 --    17 C    1.510    19 C    1.332    45 H    0.966
    19   6 C    3.889 --    21 C    1.448    18 C    1.332    20 F    0.968
    20   9 F    1.097 --    19 C    0.968
    21   6 C    3.983 --    19 C    1.448    15 C    1.330    46 H    0.962
                            17 C    0.115
    22   6 C    3.977 --     3 C    1.540    23 N    1.237    30 C    1.024
    23   7 N    3.048 --    24 C    1.533    22 C    1.237
    24   6 C    3.958 --    23 N    1.533    25 N    1.243    29 C    1.003
    25   7 N    3.609 --    24 C    1.243     2 C    1.066    26 C    0.973
                             1 O    0.138
    26   6 C    3.963 --    27 C    1.009    25 N    0.973    47 H    0.962
                            48 H    0.961
    27   6 C    3.996 --    26 C    1.009    28 C    1.008    50 H    0.976
                            49 H    0.974
    28   6 C    3.997 --    29 C    1.008    27 C    1.008    51 H    0.977
                            52 H    0.977
    29   6 C    3.993 --    28 C    1.008    24 C    1.003    54 H    0.962
                            53 H    0.951
    30   6 C    3.994 --    22 C    1.024    57 H    0.983    55 H    0.970
                            56 H    0.965
    31   1 H    0.998 --     4 C    0.970
    32   1 H    0.997 --     4 C    0.967
    33   1 H    0.998 --     5 C    0.971
    34   1 H    0.999 --     5 C    0.971
    35   1 H    0.998 --     7 C    0.971
    36   1 H    0.999 --     7 C    0.960
    37   1 H    0.999 --     8 C    0.977
    38   1 H    0.996 --     8 C    0.973
    39   1 H    0.999 --     9 C    0.962
    40   1 H    0.997 --    10 C    0.976
    41   1 H    0.998 --    10 C    0.977
    42   1 H    0.998 --    11 C    0.957
    43   1 H    0.999 --    11 C    0.972
    44   1 H    0.997 --    17 C    0.967
    45   1 H    0.995 --    18 C    0.966
    46   1 H    0.994 --    21 C    0.962
    47   1 H    0.997 --    26 C    0.962
    48   1 H    0.994 --    26 C    0.961
    49   1 H    0.997 --    27 C    0.974
    50   1 H    0.998 --    27 C    0.976
    51   1 H    0.998 --    28 C    0.977
    52   1 H    0.998 --    28 C    0.977
    53   1 H    0.995 --    29 C    0.951
    54   1 H    0.995 --    29 C    0.962
    55   1 H    0.997 --    30 C    0.970
    56   1 H    0.997 --    30 C    0.965
    57   1 H    0.995 --    30 C    0.983
 ---------------------------------------------------------------------------

Topologies differ in total number of bonds
Writing topology from bond orders to xtbtopo.mol

molecular dipole:
                 x           y           z       tot (Debye)
 q only:        1.510      -0.994      -0.375
   full:        1.049      -0.655      -0.440       3.336
molecular quadrupole (traceless):
                xx          xy          yy          xz          yz          zz
 q only:       14.855      19.529      -7.721      12.125       0.143      -7.134
  q+dip:       17.888      20.702      -9.128      10.183       3.242      -8.760
   full:       17.624      21.815      -7.983       8.883       2.252      -9.641

           -------------------------------------------------
          |                Geometry Summary                 |
           -------------------------------------------------

      molecular mass/u    :      410.4853518
   center of mass at/Å    :       -0.6635477       0.1986269       0.1813886
  moments of inertia/u·Å² :        0.1220992E+04   0.1018176E+05   0.1036048E+05
rotational constants/cm⁻¹ :        0.1380650E-01   0.1655671E-02   0.1627109E-02

 * 55 selected distances

     #   Z          #   Z                                           value/Å
     1   8 O        2   6 C                                       1.2206957
     5   6 C        6   7 N                                       1.4416031
     6   7 N        7   6 C                                       1.4494249
     7   6 C        8   6 C                                       1.5251822
     8   6 C        9   6 C                                       1.5380701 (max)
     9   6 C       10   6 C                                       1.5318322
     6   7 N       11   6 C                                       1.4508121
    10   6 C       11   6 C                                       1.5266635
     9   6 C       12   6 C                                       1.4914108
    12   6 C       13   7 N                                       1.2981774
    13   7 N       14   8 O                                       1.3715535
    14   8 O       15   6 C                                       1.3420454
    12   6 C       16   6 C                                       1.4378735
    15   6 C       16   6 C                                       1.4080995
    16   6 C       17   6 C                                       1.3933251
    17   6 C       18   6 C                                       1.3752392
    18   6 C       19   6 C                                       1.3978221
    15   6 C       21   6 C                                       1.3877096
    19   6 C       21   6 C                                       1.3776778
     3   6 C       22   6 C                                       1.3657403
    22   6 C       23   7 N                                       1.3566591
    23   7 N       24   6 C                                       1.2935609
     2   6 C       25   7 N                                       1.4076064
    24   6 C       25   7 N                                       1.3518527
    25   7 N       26   6 C                                       1.4550581
    26   6 C       27   6 C                                       1.5179345
    27   6 C       28   6 C                                       1.5229484
    28   6 C       29   6 C                                       1.5222472
     4   6 C       31   1 H                                       1.0892756
     4   6 C       32   1 H                                       1.0909680
     5   6 C       33   1 H                                       1.0936074
     5   6 C       34   1 H                                       1.0946854
     7   6 C       35   1 H                                       1.0921210
     7   6 C       36   1 H                                       1.1021589
     8   6 C       37   1 H                                       1.0919953
     8   6 C       38   1 H                                       1.0907000
     9   6 C       39   1 H                                       1.0964566
    10   6 C       40   1 H                                       1.0915107
    10   6 C       41   1 H                                       1.0911560
    11   6 C       42   1 H                                       1.0997629
    11   6 C       43   1 H                                       1.0932378
    17   6 C       44   1 H                                       1.0785238
    18   6 C       45   1 H                                       1.0783105
    21   6 C       46   1 H                                       1.0763063 (min)
    26   6 C       47   1 H                                       1.0967222
    26   6 C       48   1 H                                       1.0941994
    27   6 C       49   1 H                                       1.0903112
    27   6 C       50   1 H                                       1.0919974
    28   6 C       51   1 H                                       1.0919529
    28   6 C       52   1 H                                       1.0907071
    29   6 C       53   1 H                                       1.0944020
    29   6 C       54   1 H                                       1.0904962
    30   6 C       55   1 H                                       1.0878249
    30   6 C       56   1 H                                       1.0893851
    30   6 C       57   1 H                                       1.0861873

 * 5 distinct bonds (by element types)

   Z      Z             #   av. dist./Å        max./Å        min./Å
   1 H    6 C          27     1.0909245     1.1021589     1.0763063
   6 C    6 C          16     1.4574860     1.5380701     1.3657403
   6 C    7 N           9     1.3894172     1.4550581     1.2935609
   6 C    8 O           2     1.2813705     1.3420454     1.2206957
   7 N    8 O           1     1.3715535     1.3715535     1.3715535


optimized geometry written to: xtbopt.xyz


           -------------------------------------------------
          | TOTAL ENERGY              -87.646044510109 Eh   |
          | GRADIENT NORM               0.000559040866 Eh/α |
          | HOMO-LUMO GAP               1.605701292580 eV   |
           -------------------------------------------------

------------------------------------------------------------------------
 * finished run on 2025/05/15 at 16:27:19.231     
------------------------------------------------------------------------
 total:
 * wall-time:     0 d,  0 h,  0 min,  3.134 sec
 *  cpu-time:     0 d,  0 h,  0 min,  2.222 sec
 * ratio c/w:     0.709 speedup
 SCF:
 * wall-time:     0 d,  0 h,  0 min,  0.127 sec
 *  cpu-time:     0 d,  0 h,  0 min,  0.101 sec
 * ratio c/w:     0.791 speedup
 ANC optimizer:
 * wall-time:     0 d,  0 h,  0 min,  2.989 sec
 *  cpu-time:     0 d,  0 h,  0 min,  2.105 sec
 * ratio c/w:     0.704 speedup



----- Single-point -----
      -----------------------------------------------------------      
     |                   =====================                   |     
     |                           x T B                           |     
     |                   =====================                   |     
     |                         S. Grimme                         |     
     |          Mulliken Center for Theoretical Chemistry        |     
     |                    University of Bonn                     |     
      -----------------------------------------------------------      

   * xtb version 6.7.1 (edcfbbe) compiled by 'conda@3ef47c1a292c' on 2024-11-25

   xtb is free software: you can redistribute it and/or modify it under
   the terms of the GNU Lesser General Public License as published by
   the Free Software Foundation, either version 3 of the License, or
   (at your option) any later version.
   
   xtb is distributed in the hope that it will be useful,
   but WITHOUT ANY WARRANTY; without even the implied warranty of
   MERCHANTABILITY or FITNESS FOR A PARTICULAR PURPOSE.  See the
   GNU Lesser General Public License for more details.
   
   Cite this work as:
   * C. Bannwarth, E. Caldeweyher, S. Ehlert, A. Hansen, P. Pracht,
     J. Seibert, S. Spicher, S. Grimme, WIREs Comput. Mol. Sci., 2020, 11,
     e01493. DOI: 10.1002/wcms.1493
   
   for GFN2-xTB:
   * C. Bannwarth, S. Ehlert and S. Grimme., J. Chem. Theory Comput., 2019,
     15, 1652-1671. DOI: 10.1021/acs.jctc.8b01176
   for GFN1-xTB:
   * S. Grimme, C. Bannwarth, P. Shushkov, J. Chem. Theory Comput., 2017,
     13, 1989-2009. DOI: 10.1021/acs.jctc.7b00118
   for GFN0-xTB:
   * P. Pracht, E. Caldeweyher, S. Ehlert, S. Grimme, ChemRxiv, 2019, preprint.
     DOI: 10.26434/chemrxiv.8326202.v1
   for GFN-FF:
   * S. Spicher and S. Grimme, Angew. Chem. Int. Ed., 2020, 59, 15665-15673.
     DOI: 10.1002/anie.202004239
   
   for ALPB and GBSA implicit solvation:
   * S. Ehlert, M. Stahn, S. Spicher, S. Grimme, J. Chem. Theory Comput.,
     2021, 17, 4250-4261. DOI: 10.1021/acs.jctc.1c00471
   
   for ddCOSMO and CPCM-X implicit solvation:
   * M. Stahn, S. Ehlert, S. Grimme, J. Phys. Chem. A,
     2023, XX, XXXX-XXXX. DOI: 10.1021/acs.jpca.3c04382
   
   for DFT-D4:
   * E. Caldeweyher, C. Bannwarth and S. Grimme, J. Chem. Phys., 2017,
     147, 034112. DOI: 10.1063/1.4993215
   * E. Caldeweyher, S. Ehlert, A. Hansen, H. Neugebauer, S. Spicher,
     C. Bannwarth and S. Grimme, J. Chem. Phys., 2019, 150, 154122.
     DOI: 10.1063/1.5090222
   * E. Caldeweyher, J.-M. Mewes, S. Ehlert and S. Grimme, Phys. Chem. Chem. Phys.
     2020, 22, 8499-8512. DOI: 10.1039/D0CP00502A
   
   for sTDA-xTB:
   * S. Grimme and C. Bannwarth, J. Chem. Phys., 2016, 145, 054103.
     DOI: 10.1063/1.4959605
   
   in the mass-spec context:
   * V. Asgeirsson, C. Bauer and S. Grimme, Chem. Sci., 2017, 8, 4879.
     DOI: 10.1039/c7sc00601b
   * J. Koopman and S. Grimme, ACS Omega 2019, 4, 12, 15120-15133.
     DOI: 10.1021/acsomega.9b02011
   
   for metadynamics refer to:
   * S. Grimme, J. Chem. Theory Comput., 2019, 155, 2847-2862
     DOI: 10.1021/acs.jctc.9b00143
   
   for SPH calculations refer to:
   * S. Spicher and S. Grimme, J. Chem. Theory Comput., 2021, 17, 1701-1714
     DOI: 10.1021/acs.jctc.0c01306
   
   for ONIOM refer to:
   * C. Plett, A. Katbashev, S. Ehlert, S. Grimme, M. Bursch,
     Phys. Chem. Chem. Phys., 2023, 25, 17860-17868. DOI: 10.1039/D3CP02178E
   
   for DIPRO refer to:
   * J. Kohn, N. Gildemeister, S. Grimme, D. Fazzi, A. Hansen,
     J. Chem. Phys., 2023, just accepted.
   
[...]
   M. Checinski, S. Dohm, S. Ehlert, S. Ehrlich, I. Gerasimov, C. Hölzer
   A. Katbashev, J. Kohn, J. Koopman, C. Lavigne, S. Lehtola, F. März, M. Müller,
   F. Musil, H. Neugebauer, J. Pisarek, C. Plett, P. Pracht, F. Pultar,
   J. Seibert, P. Shushkov, S. Spicher, M. Stahn, M. Steiner, T. Strunk,
   J. Stückrath, T. Rose, and J. Unsleber
   
 * started run on 2025/05/15 at 16:27:22.081     
   ID    Z sym.   atoms
    1    8 O      1, 14
    2    6 C      2-5, 7-12, 15-19, 21, 22, 24, 26-30
    3    7 N      6, 13, 23, 25
    4    9 F      20
    5    1 H      31-57

           -------------------------------------------------
          |                Calculation Setup                |
           -------------------------------------------------

          program call               : xtb /rds/general/user/hgt20/home/callum/QDESCP/Risperidone_rdkit_conf_8/Risperidone_rdkit_conf_8.xyz --acc 1 --gfn 2 --chrg 0 --uhf 2 --etemp 300 --input /rds/general/user/hgt20/home/callum/QDESCP/Risperidone_rdkit_conf_8/Risperidone_rdkit_conf_8_xtb.inp -P 1
          hostname                   : login-c
          coordinate file            : /rds/general/user/hgt20/home/callum/QDESCP/Risperidone_rdkit_conf_8/Risperidone_rdkit_conf_8.xyz
          omp threads                :                     1


           -------------------------------------------------
          |                 G F N 2 - x T B                 |
           -------------------------------------------------

        Reference                      10.1021/acs.jctc.8b01176
      * Hamiltonian:
        H0-scaling (s, p, d)           1.850000    2.230000    2.230000
        zeta-weighting                 0.500000
      * Dispersion:
        s8                             2.700000
        a1                             0.520000
        a2                             5.000000
        s9                             5.000000
      * Repulsion:
        kExp                           1.500000    1.000000
        rExp                           1.000000
      * Coulomb:
        alpha                          2.000000
        third order                    shell-resolved
        anisotropic                    true
        a3                             3.000000
        a5                             4.000000
        cn-shift                       1.200000
        cn-exp                         4.000000
        max-rad                        5.000000


          ...................................................
          :                      SETUP                      :
          :.................................................:
          :  # basis functions                 147          :
          :  # atomic orbitals                 147          :
          :  # shells                           87          :
          :  # electrons                       158          :
          :  max. iterations                   250          :
          :  Hamiltonian                  GFN2-xTB          :
          :  restarted?                      false          :
          :  GBSA solvation                  false          :
          :  PC potential                    false          :
          :  electronic temp.          300.0000000     K    :
          :  accuracy                    1.0000000          :
          :  -> integral cutoff          0.2500000E+02      :
          :  -> integral neglect         0.1000000E-07      :
          :  -> SCF convergence          0.1000000E-05 Eh   :
          :  -> wf. convergence          0.1000000E-03 e    :
          :  Broyden damping             0.4000000          :
          :  net charge                          0          :
          :  unpaired electrons                  2          :
          ...................................................

 iter      E             dE          RMSdq      gap      omega  full diag
   1    -88.4013580 -0.884014E+02  0.335E+00    0.18       0.0  T
   2    -88.2544746  0.146883E+00  0.289E+00    0.97       1.0  T
   3    -88.4215761 -0.167101E+00  0.197E+00    1.03       1.0  T
   4    -88.4653939 -0.438178E-01  0.159E+00    0.92       1.0  T
   5    -88.5881848 -0.122791E+00  0.903E-01    0.09       1.0  T
   6    -88.4949170  0.932678E-01  0.102E+00    0.66       1.0  T
   7    -88.6405493 -0.145632E+00  0.669E-01    0.09       1.0  T
   8    -88.6674823 -0.269330E-01  0.415E-01    0.04       1.0  T
   9    -88.6500640  0.174183E-01  0.524E-01    0.15       1.0  T
  10    -88.6899123 -0.398483E-01  0.134E-01    0.02       1.0  T
  11    -88.6756969  0.142154E-01  0.313E-01    0.09       1.0  T
  12    -88.6886337 -0.129368E-01  0.125E-01    0.01       1.0  T
  13    -88.6908589 -0.222521E-02  0.284E-02    0.02       1.0  T
  14    -88.6909211 -0.621468E-04  0.201E-02    0.03       1.0  T
  15    -88.6906591  0.261968E-03  0.436E-02    0.02       1.0  T
  16    -88.6909593 -0.300203E-03  0.126E-02    0.03       1.1  T
  17    -88.6909820 -0.227349E-04  0.497E-03    0.03       2.7  T
  18    -88.6909795  0.250253E-05  0.636E-03    0.03       2.1  T
  19    -88.6909860 -0.644646E-05  0.182E-03    0.03       7.3  T
  20    -88.6909866 -0.582289E-06  0.853E-05    0.03     155.2  T
  21    -88.6909865  0.117141E-07  0.268E-04    0.03      49.4  T

   *** convergence criteria satisfied after 21 iterations ***

         #    Occupation            Energy/Eh            Energy/eV
      -------------------------------------------------------------
         1        2.0000           -0.7992699             -21.7492
       ...           ...                  ...                  ...
        74        2.0000           -0.3992585             -10.8644
        75        2.0000           -0.3942845             -10.7290
        76        2.0000           -0.3920971             -10.6695
        77        1.9933           -0.3868199             -10.5259
        78        1.9631           -0.3851712             -10.4810
        79        1.0437           -0.3791401             -10.3169
        80        0.6258           -0.2505706              -6.8184 (HOMO)
        81        0.3742           -0.2495939              -6.7918 (LUMO)
        82                         -0.2248900              -6.1196
        83                         -0.2111206              -5.7449
        84                         -0.1775900              -4.8325
        85                         -0.1232453              -3.3537
       ...                                ...                  ...
       147                          0.7046546              19.1746
      -------------------------------------------------------------
                  HL-Gap            0.0009767 Eh            0.0266 eV
             Fermi-level           -0.3160774 Eh           -8.6009 eV

 transition dipole moment (au) for excitation:          79          80
     X       Y       Z   
   1.1975  -0.1258   0.5341  total (au/Debye):    1.317   3.348
 dE (eV)             :    3.499
 oscillator strength :  0.21032E+00

 SCC (total)                   0 d,  0 h,  0 min,  0.155 sec
 SCC setup                      ...        0 min,  0.001 sec (  0.373%)
 Dispersion                     ...        0 min,  0.001 sec (  0.590%)
 classical contributions        ...        0 min,  0.000 sec (  0.167%)
 integral evaluation            ...        0 min,  0.012 sec (  7.549%)
 iterations                     ...        0 min,  0.091 sec ( 58.673%)
 molecular gradient             ...        0 min,  0.041 sec ( 26.442%)
 printout                       ...        0 min,  0.010 sec (  6.201%)

         :::::::::::::::::::::::::::::::::::::::::::::::::::::
         ::                     SUMMARY                     ::
         :::::::::::::::::::::::::::::::::::::::::::::::::::::
         :: total energy             -87.535765395933 Eh    ::
         :: gradient norm              0.119903526858 Eh/a0 ::
         :: HOMO-LUMO gap              0.026577588598 eV    ::
         ::.................................................::
         :: SCC energy               -88.690953023207 Eh    ::
         :: -> isotropic ES            0.079130931569 Eh    ::
         :: -> anisotropic ES          0.001980760966 Eh    ::
         :: -> anisotropic XC          0.035753843559 Eh    ::
         :: -> dispersion             -0.062482028531 Eh    ::
         :: repulsion energy           1.155187627274 Eh    ::
         :: add. restraining           0.000000000000 Eh    ::
         :: total charge               0.000000000038 e     ::
         :::::::::::::::::::::::::::::::::::::::::::::::::::::

           -------------------------------------------------
          |                Property Printout                |
           -------------------------------------------------

    * Orbital Energies and Occupations

         #    Occupation            Energy/Eh            Energy/eV
      -------------------------------------------------------------
         1        2.0000           -0.7992699             -21.7492
       ...           ...                  ...                  ...
        68        2.0000           -0.4444955             -12.0953
        69        2.0000           -0.4417510             -12.0207
        70        2.0000           -0.4300933             -11.7034
        71        2.0000           -0.4247923             -11.5592
        72        2.0000           -0.4239417             -11.5360
        73        2.0000           -0.4033843             -10.9766
        74        2.0000           -0.3992585             -10.8644
        75        2.0000           -0.3942845             -10.7290
        76        2.0000           -0.3920971             -10.6695
        77        1.9933           -0.3868199             -10.5259
        78        1.9631           -0.3851712             -10.4810
        79        1.0437           -0.3791401             -10.3169
        80        0.6258           -0.2505706              -6.8184 (HOMO)
        81        0.3742           -0.2495939              -6.7918 (LUMO)
        82                         -0.2248900              -6.1196
        83                         -0.2111206              -5.7449
        84                         -0.1775900              -4.8325
        85                         -0.1232453              -3.3537
        86                         -0.0788632              -2.1460
        87                         -0.0266435              -0.7250
        88                         -0.0103943              -0.2828
        89                         -0.0006069              -0.0165
        90                          0.0477616               1.2997
        91                          0.0513641               1.3977
       ...                                ...                  ...
       147                          0.7046546              19.1746
      -------------------------------------------------------------
                  HL-Gap            0.0009767 Eh            0.0266 eV
             Fermi-level           -0.3160774 Eh           -8.6009 eV

     #   Z          covCN         q      C6AA      α(0)
     1   8 O        0.858    -0.443    22.565     6.369
     2   6 C        2.789     0.251    22.778     7.818
     3   6 C        2.960    -0.057    29.410     8.895
     4   6 C        3.806    -0.058    21.605     6.617
     5   6 C        3.755    -0.001    20.656     6.481
     6   7 N        2.731    -0.074    22.682     7.073
     7   6 C        3.765    -0.006    20.724     6.489
     8   6 C        3.811    -0.061    21.668     6.626
     9   6 C        3.857    -0.020    20.896     6.501
    10   6 C        3.808    -0.063    21.699     6.631
    11   6 C        3.764    -0.011    20.812     6.503
    12   6 C        3.006     0.059    26.659     8.470
    13   7 N        1.956    -0.169    25.443     7.480
    14   8 O        1.800    -0.161    16.708     5.520
    15   6 C        3.049     0.132    25.066     8.211
    16   6 C        3.031    -0.046    29.110     8.850
    17   6 C        2.914    -0.052    29.287     8.874
    18   6 C        2.920    -0.060    29.487     8.905
    19   6 C        2.797     0.157    24.583     8.122
    20   9 F        0.788    -0.231    11.563     4.017
    21   6 C        2.906    -0.088    30.200     9.011
    22   6 C        2.941     0.067    26.497     8.442
    23   7 N        1.851    -0.261    27.642     7.792
    24   6 C        2.880     0.138    24.996     8.196
    25   7 N        2.745    -0.093    23.061     7.132
    26   6 C        3.756     0.007    20.518     6.459
    27   6 C        3.808    -0.063    21.711     6.633
    28   6 C        3.808    -0.058    21.611     6.618
    29   6 C        3.817    -0.072    21.860     6.654
    30   6 C        3.760    -0.115    22.754     6.800
    31   1 H        0.925     0.055     2.264     2.353
    32   1 H        0.924     0.068     2.103     2.268
    33   1 H        0.924     0.065     2.137     2.286
    34   1 H        0.924     0.051     2.311     2.378
    35   1 H        0.924     0.056     2.242     2.341
    36   1 H        0.923     0.066     2.131     2.283
    37   1 H        0.924     0.048     2.349     2.397
    38   1 H        0.924     0.049     2.331     2.388
    39   1 H        0.924     0.044     2.398     2.422
    40   1 H        0.924     0.048     2.343     2.394
    41   1 H        0.924     0.050     2.314     2.379
    42   1 H        0.923     0.082     1.962     2.191
    43   1 H        0.924     0.048     2.341     2.393
    44   1 H        0.926     0.029     2.603     2.523
    45   1 H        0.926     0.049     2.327     2.385
    46   1 H        0.926     0.059     2.215     2.327
    47   1 H        0.924     0.051     2.311     2.377
    48   1 H        0.924     0.073     2.057     2.243
    49   1 H        0.924     0.045     2.385     2.415
    50   1 H        0.924     0.044     2.392     2.419
    51   1 H        0.924     0.042     2.418     2.432
    52   1 H        0.924     0.041     2.438     2.442
    53   1 H        0.924     0.061     2.193     2.316
    54   1 H        0.924     0.066     2.125     2.280
    55   1 H        0.925     0.045     2.387     2.416
    56   1 H        0.925     0.052     2.297     2.370
    57   1 H        0.925     0.065     2.142     2.289

 Mol. C6AA /au·bohr⁶  :      34259.417961
 Mol. C8AA /au·bohr⁸  :     797031.080503
 Mol. α(0) /au        :        281.891169


Wiberg/Mayer (AO) data.
largest (>0.10) Wiberg bond orders for each atom

 ---------------------------------------------------------------------------
     #   Z sym  total        # sym  WBO       # sym  WBO       # sym  WBO
 ---------------------------------------------------------------------------
     1   8 O    1.940 --     2 C    1.608
     2   6 C    3.921 --     1 O    1.608     3 C    1.172    25 N    1.032
     3   6 C    3.796 --    22 C    1.247     2 C    1.172     4 C    1.056
     4   6 C    3.980 --     3 C    1.056    31 H    0.963    32 H    0.961
                             5 C    0.910
     5   6 C    3.965 --     6 N    1.040    34 H    0.968    33 H    0.965
                             4 C    0.910
     6   7 N    3.319 --     5 C    1.040    11 C    1.010     7 C    1.006
     7   6 C    3.970 --     6 N    1.006     8 C    0.999    35 H    0.970
                            36 H    0.938
     8   6 C    3.983 --     7 C    0.999     9 C    0.976    37 H    0.975
                            38 H    0.974
     9   6 C    3.995 --    12 C    1.003    10 C    0.991     8 C    0.976
                            39 H    0.961
    10   6 C    3.987 --    11 C    0.999     9 C    0.991    41 H    0.975
                            40 H    0.974
    11   6 C    3.966 --     6 N    1.010    10 C    0.999    43 H    0.970
                            42 H    0.926
    12   6 C    3.889 --    13 N    1.532    16 C    1.201     9 C    1.003
    13   7 N    2.828 --    12 C    1.532    14 O    1.033
    14   8 O    2.357 --    15 C    1.112    13 N    1.033
    15   6 C    3.928 --    21 C    1.346    16 C    1.273    14 O    1.112
    16   6 C    3.954 --    17 C    1.283    15 C    1.273    12 C    1.201
    17   6 C    3.877 --    18 C    1.479    16 C    1.283    44 H    0.969
    18   6 C    3.978 --    17 C    1.479    19 C    1.355    45 H    0.968
    19   6 C    3.811 --    21 C    1.383    18 C    1.355    20 F    0.954
    20   9 F    1.071 --    19 C    0.954
    21   6 C    3.906 --    19 C    1.383    15 C    1.346    46 H    0.965
    22   6 C    3.778 --    23 N    1.320     3 C    1.247    30 C    1.026
    23   7 N    3.001 --    24 C    1.438    22 C    1.320
    24   6 C    3.800 --    23 N    1.438    25 N    1.190    29 C    1.005
    25   7 N    3.460 --    24 C    1.190     2 C    1.032    26 C    0.976
    26   6 C    3.964 --    27 C    1.009    25 N    0.976    47 H    0.961
                            48 H    0.961
    27   6 C    3.995 --    26 C    1.009    28 C    1.008    50 H    0.976
                            49 H    0.975
    28   6 C    3.996 --    29 C    1.008    27 C    1.008    52 H    0.977
                            51 H    0.977
    29   6 C    3.990 --    28 C    1.008    24 C    1.005    54 H    0.961
                            53 H    0.949
    30   6 C    3.992 --    22 C    1.026    57 H    0.983    55 H    0.967
                            56 H    0.963
    31   1 H    0.995 --     4 C    0.963
    32   1 H    0.993 --     4 C    0.961
    33   1 H    0.994 --     5 C    0.965
    34   1 H    0.996 --     5 C    0.968
    35   1 H    0.996 --     7 C    0.970
    36   1 H    0.986 --     7 C    0.938
    37   1 H    0.997 --     8 C    0.975
    38   1 H    0.995 --     8 C    0.974
    39   1 H    0.996 --     9 C    0.961
    40   1 H    0.995 --    10 C    0.974
    41   1 H    0.997 --    10 C    0.975
    42   1 H    0.978 --    11 C    0.926
    43   1 H    0.997 --    11 C    0.970
    44   1 H    0.999 --    17 C    0.969
    45   1 H    0.997 --    18 C    0.968
    46   1 H    0.996 --    21 C    0.965
    47   1 H    0.991 --    26 C    0.961
    48   1 H    0.991 --    26 C    0.961
    49   1 H    0.997 --    27 C    0.975
    50   1 H    0.998 --    27 C    0.976
    51   1 H    0.998 --    28 C    0.977
    52   1 H    0.998 --    28 C    0.977
    53   1 H    0.987 --    29 C    0.949
    54   1 H    0.990 --    29 C    0.961
    55   1 H    0.992 --    30 C    0.967
    56   1 H    0.990 --    30 C    0.963
    57   1 H    0.995 --    30 C    0.983
 ---------------------------------------------------------------------------

Topologies differ in total number of bonds
Writing topology from bond orders to xtbtopo.mol

molecular dipole:
                 x           y           z       tot (Debye)
 q only:        3.214      -1.724      -0.902
   full:        2.827      -1.479      -1.056       8.543
molecular quadrupole (traceless):
                xx          xy          yy          xz          yz          zz
 q only:      -19.637      24.847      10.508      15.567      -0.761       9.128
  q+dip:      -18.424      25.920      10.142      13.466       2.881       8.282
   full:      -18.726      26.904      11.155      12.461       2.050       7.572


           -------------------------------------------------
          | TOTAL ENERGY              -87.535765395933 Eh   |
          | GRADIENT NORM               0.119903526858 Eh/α |
          | HOMO-LUMO GAP               0.026577588598 eV   |
           -------------------------------------------------

------------------------------------------------------------------------
 * finished run on 2025/05/15 at 16:27:22.281     
------------------------------------------------------------------------
 total:
 * wall-time:     0 d,  0 h,  0 min,  0.200 sec
 *  cpu-time:     0 d,  0 h,  0 min,  0.156 sec
 * ratio c/w:     0.781 speedup
 SCF:
 * wall-time:     0 d,  0 h,  0 min,  0.156 sec
 *  cpu-time:     0 d,  0 h,  0 min,  0.141 sec
 * ratio c/w:     0.904 speedup


