57
 energy: -87.646044510109 gnorm: 0.000559040866 xtb: 6.7.1 (edcfbbe)
O            2.48079448827551        1.73708197132229       -1.16798026158026
C            3.04918035418945        1.05620697195135       -0.32926436802522
C            2.41280596607481        0.12770280299420        0.57153649218315
C            0.93323590653989       -0.02818734290825        0.42837273751518
C            0.61930511511793       -1.05881825767999       -0.68262281403582
N           -0.77486592347395       -1.35094119124775       -0.90436715210693
C           -1.56182943821730       -0.21453092745592       -1.34036303287285
C           -2.87688729358570       -0.71804701918443       -1.92625954032639
C           -3.67110163269393       -1.51062281898139       -0.87425840395570
C           -2.76659733214167       -2.59781611583685       -0.28570753650297
C           -1.43411120712633       -2.02915711822158        0.19575752739159
C           -4.23335073686151       -0.58239665030698        0.14876547068564
N           -3.58598411793971       -0.14630040237597        1.18607005385531
O           -4.38437225341990        0.71213317129668        1.89798770369194
C           -5.56550371145008        0.81051899736581        1.26843688956676
C           -5.54858723071297       -0.00211732329461        0.11861959846336
C           -6.66800313966353       -0.07196889200553       -0.70805031020103
C           -7.77213702137233        0.67209230550990       -0.36374853577423
C           -7.75287611289920        1.46884437106529        0.78460743434521
F           -8.86072035311750        2.17667218529620        1.07469038495098
C           -6.67016305809499        1.56830993000379        1.63067759164032
C            3.17907064677139       -0.56890330363863        1.46194348205104
N            4.52464627809092       -0.40842079663212        1.52671346162981
C            5.11316964969602        0.42004768802588        0.72635128114868
N            4.44662729231505        1.15464362371075       -0.19212321326099
C            5.08942406957885        2.12081144908632       -1.06991908806104
C            6.57629549552798        1.85996070243270       -1.22896322330023
C            7.20062582945377        1.72956364466959        0.15399718787924
C            6.60948107331443        0.50155381693369        0.83206485439960
C            2.61818668371419       -1.55166094969901        2.44195813715615
H            0.48460943900472       -0.34745230216504        1.36822663364325
H            0.51277455844814        0.93463413470031        0.13443748329836
H            1.03259282424339       -0.68071534193844       -1.62188225703806
H            1.12108169361890       -2.00296733340972       -0.44780636123356
H           -0.99966393046302        0.32478377117012       -2.10576339015158
H           -1.77672000305531        0.47825718643020       -0.51053124739152
H           -3.46942420649476        0.12220266375652       -2.29413707734414
H           -2.65745980113030       -1.38261295133216       -2.76281799075375
H           -4.52425769782363       -1.99010650342381       -1.36866410784385
H           -2.57214037461112       -3.33437501636652       -1.06741258089001
H           -3.27159823148613       -3.09570491300811        0.54357051942875
H           -1.62585496448859       -1.35673153496080        1.04461344598111
H           -0.79338809333594       -2.84978737896103        0.52923703295148
H           -6.66741386914367       -0.69024855270916       -1.59176029755389
H           -8.66715037121160        0.65795465032603       -0.96500105419294
H           -6.68505290444632        2.19104700261342        2.50840867685900
H            4.92140405134642        3.12089842600115       -0.65231314104377
H            4.56246883281073        2.07713701022179       -2.02787674835755
H            7.02168923322234        2.68399327189804       -1.78697130669645
H            6.73750579284604        0.93878557829454       -1.79279443816135
H            6.98258866402849        2.62509280972550        0.73952955094177
H            8.28433198022765        1.62772956125262        0.08433755077346
H            7.01161620062416       -0.40452731178454        0.36836253638349
H            6.87060141955849        0.45786648904947        1.88993504831456
H            2.03220379528061       -2.31407883717219        1.93332685705457
H            1.97073435427222       -1.04591345257818        3.15734939538113
H            3.43836332226985       -2.02151564782520        2.97707445909175
