20
 energy: -32.783631078405 gnorm: 0.000346543915 xtb: 6.7.1 (edcfbbe)
O           -1.99704378224463        0.72944017283970        1.76154362122681
C           -2.24553082373453        0.53573076065043        0.59373601961754
C           -3.64066839302120        0.66201429008468        0.01088975169831
N           -1.32540334158781        0.18435279227998       -0.34956776420459
C            0.04978300559891       -0.04073069147662       -0.20373086420049
C            0.77075518961188       -0.43043072760787       -1.33153291034496
C            2.12597238695444       -0.67155619367812       -1.25512626363076
C            2.79081583053404       -0.52636328422379       -0.04139873278152
O            4.12933538962291       -0.77555575982152       -0.00348230748756
C            2.07492852113656       -0.13525213197227        1.08276341022913
C            0.71611552731967        0.10692899631462        1.00750138539906
H           -3.94815305811180       -0.27885465679680       -0.44123981245669
H           -4.33472667519407        0.92038318769801        0.80492058330744
H           -3.66060102180110        1.44156622755615       -0.74834184117679
H           -1.66832787454280        0.04880934771064       -1.29067355038527
H            0.26295123484614       -0.54647870985988       -2.27904596147804
H            2.68718798229787       -0.97422104590681       -2.12441093367106
H            4.45914588854818       -0.63988504184745        0.89279461344459
H            2.58423154111343       -0.01825791142572        2.03009741023450
H            0.16923247265402        0.40856037948264        1.88440414666037
