----- Optimization -----
      -----------------------------------------------------------      
     |                   =====================                   |     
     |                           x T B                           |     
     |                   =====================                   |     
     |                         S. Grimme                         |     
     |          Mulliken Center for Theoretical Chemistry        |     
     |                    University of Bonn                     |     
      -----------------------------------------------------------      

   * xtb version 6.7.1 (edcfbbe) compiled by 'conda@3ef47c1a292c' on 2024-11-25

   xtb is free software: you can redistribute it and/or modify it under
   the terms of the GNU Lesser General Public License as published by
   the Free Software Foundation, either version 3 of the License, or
   (at your option) any later version.
   
   xtb is distributed in the hope that it will be useful,
   but WITHOUT ANY WARRANTY; without even the implied warranty of
   MERCHANTABILITY or FITNESS FOR A PARTICULAR PURPOSE.  See the
   GNU Lesser General Public License for more details.
   
   Cite this work as:
   * C. Bannwarth, E. Caldeweyher, S. Ehlert, A. Hansen, P. Pracht,
     J. Seibert, S. Spicher, S. Grimme, WIREs Comput. Mol. Sci., 2020, 11,
     e01493. DOI: 10.1002/wcms.1493
   
   for GFN2-xTB:
   * C. Bannwarth, S. Ehlert and S. Grimme., J. Chem. Theory Comput., 2019,
     15, 1652-1671. DOI: 10.1021/acs.jctc.8b01176
   for GFN1-xTB:
   * S. Grimme, C. Bannwarth, P. Shushkov, J. Chem. Theory Comput., 2017,
     13, 1989-2009. DOI: 10.1021/acs.jctc.7b00118
   for GFN0-xTB:
   * P. Pracht, E. Caldeweyher, S. Ehlert, S. Grimme, ChemRxiv, 2019, preprint.
     DOI: 10.26434/chemrxiv.8326202.v1
   for GFN-FF:
   * S. Spicher and S. Grimme, Angew. Chem. Int. Ed., 2020, 59, 15665-15673.
     DOI: 10.1002/anie.202004239
   
   for ALPB and GBSA implicit solvation:
   * S. Ehlert, M. Stahn, S. Spicher, S. Grimme, J. Chem. Theory Comput.,
     2021, 17, 4250-4261. DOI: 10.1021/acs.jctc.1c00471
   
   for ddCOSMO and CPCM-X implicit solvation:
   * M. Stahn, S. Ehlert, S. Grimme, J. Phys. Chem. A,
     2023, XX, XXXX-XXXX. DOI: 10.1021/acs.jpca.3c04382
   
   for DFT-D4:
   * E. Caldeweyher, C. Bannwarth and S. Grimme, J. Chem. Phys., 2017,
     147, 034112. DOI: 10.1063/1.4993215
   * E. Caldeweyher, S. Ehlert, A. Hansen, H. Neugebauer, S. Spicher,
     C. Bannwarth and S. Grimme, J. Chem. Phys., 2019, 150, 154122.
     DOI: 10.1063/1.5090222
   * E. Caldeweyher, J.-M. Mewes, S. Ehlert and S. Grimme, Phys. Chem. Chem. Phys.
     2020, 22, 8499-8512. DOI: 10.1039/D0CP00502A
   
   for sTDA-xTB:
   * S. Grimme and C. Bannwarth, J. Chem. Phys., 2016, 145, 054103.
     DOI: 10.1063/1.4959605
   
   in the mass-spec context:
   * V. Asgeirsson, C. Bauer and S. Grimme, Chem. Sci., 2017, 8, 4879.
     DOI: 10.1039/c7sc00601b
   * J. Koopman and S. Grimme, ACS Omega 2019, 4, 12, 15120-15133.
     DOI: 10.1021/acsomega.9b02011
   
   for metadynamics refer to:
   * S. Grimme, J. Chem. Theory Comput., 2019, 155, 2847-2862
     DOI: 10.1021/acs.jctc.9b00143
   
   for SPH calculations refer to:
   * S. Spicher and S. Grimme, J. Chem. Theory Comput., 2021, 17, 1701-1714
     DOI: 10.1021/acs.jctc.0c01306
   
   for ONIOM refer to:
   * C. Plett, A. Katbashev, S. Ehlert, S. Grimme, M. Bursch,
     Phys. Chem. Chem. Phys., 2023, 25, 17860-17868. DOI: 10.1039/D3CP02178E
   
   for DIPRO refer to:
   * J. Kohn, N. Gildemeister, S. Grimme, D. Fazzi, A. Hansen,
     J. Chem. Phys., 2023, just accepted.
   
   for PTB refer to:
   * S. Grimme, M. Mueller, A. Hansen, J. Chem. Phys., 2023, 158, 124111.
     DOI: 10.1063/5.0137838
   
   with help from (in alphabetical order)
   P. Atkinson, C. Bannwarth, F. Bohle, G. Brandenburg, E. Caldeweyher
   M. Checinski, S. Dohm, S. Ehlert, S. Ehrlich, I. Gerasimov, C. Hölzer
   A. Katbashev, J. Kohn, J. Koopman, C. Lavigne, S. Lehtola, F. März, M. Müller,
   F. Musil, H. Neugebauer, J. Pisarek, C. Plett, P. Pracht, F. Pultar,
   J. Seibert, P. Shushkov, S. Spicher, M. Stahn, M. Steiner, T. Strunk,
   J. Stückrath, T. Rose, and J. Unsleber
   
 * started run on 2025/05/15 at 16:29:27.644     
   ID    Z sym.   atoms
    1    8 O      1, 9
    2    6 C      2, 3, 5-8, 10, 11
    3    7 N      4
    4    1 H      12-20

           -------------------------------------------------
          |                Calculation Setup                |
           -------------------------------------------------

          program call               : xtb /rds/general/user/hgt20/home/callum/QDESCP/Paracetamol_rdkit_conf_1/Paracetamol_rdkit_conf_1.xyz --opt normal --acc 1 --gfn 2 --chrg 0 --uhf 0 -P 1
          hostname                   : login-c
          coordinate file            : /rds/general/user/hgt20/home/callum/QDESCP/Paracetamol_rdkit_conf_1/Paracetamol_rdkit_conf_1.xyz
          omp threads                :                     1


           -------------------------------------------------
          |                 G F N 2 - x T B                 |
           -------------------------------------------------

        Reference                      10.1021/acs.jctc.8b01176
      * Hamiltonian:
        H0-scaling (s, p, d)           1.850000    2.230000    2.230000
        zeta-weighting                 0.500000
      * Dispersion:
        s8                             2.700000
        a1                             0.520000
        a2                             5.000000
        s9                             5.000000
      * Repulsion:
        kExp                           1.500000    1.000000
        rExp                           1.000000
      * Coulomb:
        alpha                          2.000000
        third order                    shell-resolved
        anisotropic                    true
        a3                             3.000000
        a5                             4.000000
        cn-shift                       1.200000
        cn-exp                         4.000000
        max-rad                        5.000000


          ...................................................
          :                      SETUP                      :
          :.................................................:
          :  # basis functions                  53          :
          :  # atomic orbitals                  53          :
          :  # shells                           31          :
          :  # electrons                        58          :
          :  max. iterations                   250          :
          :  Hamiltonian                  GFN2-xTB          :
          :  restarted?                      false          :
          :  GBSA solvation                  false          :
          :  PC potential                    false          :
          :  electronic temp.          300.0000000     K    :
          :  accuracy                    1.0000000          :
          :  -> integral cutoff          0.2500000E+02      :
          :  -> integral neglect         0.1000000E-07      :
          :  -> SCF convergence          0.1000000E-05 Eh   :
          :  -> wf. convergence          0.1000000E-03 e    :
          :  Broyden damping             0.4000000          :
          :  net charge                          0          :
          :  unpaired electrons                  0          :
          ...................................................

 iter      E             dE          RMSdq      gap      omega  full diag
   1    -33.1558312 -0.331558E+02  0.451E+00    3.28       0.0  T
   2    -33.2131967 -0.573655E-01  0.261E+00    3.70       1.0  T
   3    -33.2145513 -0.135455E-02  0.127E+00    3.66       1.0  T
   4    -33.2184219 -0.387065E-02  0.245E-01    3.65       1.0  T
   5    -33.2191899 -0.767965E-03  0.912E-02    3.69       1.0  T
   6    -33.2191979 -0.798866E-05  0.472E-02    3.69       1.0  T
   7    -33.2192204 -0.225835E-04  0.174E-02    3.69       1.3  T
   8    -33.2192216 -0.119139E-05  0.509E-03    3.69       4.4  T
   9    -33.2192217 -0.353133E-07  0.265E-03    3.69       8.4  T
  10    -33.2192217 -0.611435E-07  0.971E-04    3.69      23.0  T
  11    -33.2192217 -0.612203E-08  0.382E-04    3.69      58.6  T

   *** convergence criteria satisfied after 11 iterations ***

         #    Occupation            Energy/Eh            Energy/eV
      -------------------------------------------------------------
         1        2.0000           -0.7104247             -19.3316
       ...           ...                  ...                  ...
        23        2.0000           -0.4709707             -12.8158
        24        2.0000           -0.4594911             -12.5034
        25        2.0000           -0.4314089             -11.7392
        26        2.0000           -0.4310856             -11.7304
        27        2.0000           -0.4072629             -11.0822
        28        2.0000           -0.3938184             -10.7163
        29        2.0000           -0.3716458             -10.1130 (HOMO)
        30                         -0.2361594              -6.4262 (LUMO)
        31                         -0.2319543              -6.3118
        32                         -0.1904784              -5.1832
        33                         -0.0915857              -2.4922
        34                         -0.0063884              -0.1738
       ...                                ...                  ...
        53                          0.6474816              17.6189
      -------------------------------------------------------------
                  HL-Gap            0.1354864 Eh            3.6868 eV
             Fermi-level           -0.3039026 Eh           -8.2696 eV

 SCC (total)                   0 d,  0 h,  0 min,  0.042 sec
 SCC setup                      ...        0 min,  0.000 sec (  0.419%)
 Dispersion                     ...        0 min,  0.000 sec (  0.295%)
 classical contributions        ...        0 min,  0.000 sec (  0.105%)
 integral evaluation            ...        0 min,  0.002 sec (  5.437%)
 iterations                     ...        0 min,  0.034 sec ( 80.335%)
 molecular gradient             ...        0 min,  0.006 sec ( 13.203%)
 printout                       ...        0 min,  0.000 sec (  0.192%)

         :::::::::::::::::::::::::::::::::::::::::::::::::::::
         ::                     SUMMARY                     ::
         :::::::::::::::::::::::::::::::::::::::::::::::::::::
         :: total energy             -32.780396126322 Eh    ::
         :: gradient norm              0.051615278139 Eh/a0 ::
         :: HOMO-LUMO gap              3.686771580992 eV    ::
         ::.................................................::
         :: SCC energy               -33.219265513748 Eh    ::
         :: -> isotropic ES            0.058459413422 Eh    ::
         :: -> anisotropic ES          0.004370506710 Eh    ::
         :: -> anisotropic XC          0.010541118982 Eh    ::
         :: -> dispersion             -0.015934964026 Eh    ::
         :: repulsion energy           0.438869387426 Eh    ::
         :: add. restraining           0.000000000000 Eh    ::
         :: total charge              -0.000000000000 e     ::
         :::::::::::::::::::::::::::::::::::::::::::::::::::::

      ----------------------------------------------------------- 
     |                   =====================                   |
     |                        A N C O P T                        |
     |                   =====================                   |
     |               Approximate Normal Coordinate               |
     |                Rational Function Optimizer                |
      ----------------------------------------------------------- 
      ----------------------------------------------------------- 
     |                   =====================                   |
     |                        A N C O P T                        |
     |                   =====================                   |
     |               Approximate Normal Coordinate               |
     |                Rational Function Optimizer                |
      ----------------------------------------------------------- 

          ...................................................
          :                      SETUP                      :
          :.................................................:
          :   optimization level            normal          :
          :   max. optcycles                   200          :
          :   ANC micro-cycles                  20          :
          :   degrees of freedom                54          :
          :.................................................:
          :   RF solver                   davidson          :
          :   write xtbopt.log                true          :
          :   linear?                        false          :
          :   energy convergence         0.5000000E-05 Eh   :
          :   grad. convergence          0.1000000E-02 Eh/α :
          :   maxmium RF displ.          1.0000000          :
          :   Hlow (freq-cutoff)         0.1000000E-01      :
          :   Hmax (freq-cutoff)         5.0000000          :
          :   S6 in model hess.         20.0000000          :
          ...................................................

generating ANC from exact Hessian ...
Using Lindh-Hessian (1995)
 Shifting diagonal of input Hessian by    8.4513847214993752E-003
 Lowest  eigenvalues of input Hessian
    0.000000    0.000000    0.000000    0.000000    0.000000    0.000000
    0.010000    0.011613    0.012736    0.015195    0.022052    0.024143
    0.026047    0.028157    0.032516    0.046448    0.048751    0.050410
 Highest eigenvalues
    1.654165    1.878614    1.939511    2.014956    2.110289    2.279193


........................................................................
.............................. CYCLE    1 ..............................
........................................................................

 iter      E             dE          RMSdq      gap      omega  full diag
   1    -33.2192217 -0.332192E+02  0.146E-04    3.69       0.0  T
   2    -33.2192217 -0.794103E-10  0.885E-05    3.69     252.7  T
   3    -33.2192217 -0.413394E-10  0.555E-05    3.69     403.1  T
     SCC iter.                  ...        0 min,  0.002 sec
     gradient                   ...        0 min,  0.005 sec
 * total energy  :   -32.7803961 Eh     change       -0.9120811E-09 Eh
   gradient norm :     0.0516175 Eh/α   predicted     0.0000000E+00 (-100.00%)
   displ. norm   :     0.1437534 α      lambda       -0.4141597E-02
   maximum displ.:     0.0573731 α      in ANC's #29, #10, #20, ...

........................................................................
.............................. CYCLE    2 ..............................
........................................................................

 iter      E             dE          RMSdq      gap      omega  full diag
   1    -33.2416770 -0.332417E+02  0.154E-01    3.77       0.0  T
   2    -33.2417127 -0.356301E-04  0.954E-02    3.76       1.0  T
   3    -33.2417019  0.107291E-04  0.400E-02    3.76       1.0  T
   4    -33.2417211 -0.191060E-04  0.827E-03    3.76       2.7  T
   5    -33.2417218 -0.747959E-06  0.313E-03    3.76       7.2  T
   6    -33.2417218 -0.393319E-07  0.183E-03    3.76      12.2  T
   7    -33.2417219 -0.125237E-07  0.627E-04    3.76      35.7  T
   8    -33.2417219 -0.931479E-09  0.249E-04    3.76      89.7  T
     SCC iter.                  ...        0 min,  0.004 sec
     gradient                   ...        0 min,  0.005 sec
 * total energy  :   -32.7830242 Eh     change       -0.2628033E-02 Eh
   gradient norm :     0.0169403 Eh/α   predicted    -0.2113692E-02 ( -19.57%)
   displ. norm   :     0.0661375 α      lambda       -0.5248876E-03
   maximum displ.:     0.0284832 α      in ANC's #19, #10, #4, ...

........................................................................
.............................. CYCLE    3 ..............................
........................................................................

 iter      E             dE          RMSdq      gap      omega  full diag
   1    -33.2480106 -0.332480E+02  0.704E-02    3.77       0.0  T
   2    -33.2480143 -0.379414E-05  0.415E-02    3.77       1.0  T
   3    -33.2480129  0.139633E-05  0.126E-02    3.77       1.8  T
   4    -33.2480150 -0.200848E-05  0.295E-03    3.77       7.6  T
   5    -33.2480151 -0.104473E-06  0.119E-03    3.77      18.8  T
   6    -33.2480151 -0.387393E-08  0.661E-04    3.77      33.8  T
   7    -33.2480151 -0.195818E-08  0.185E-04    3.77     121.1  T
     SCC iter.                  ...        0 min,  0.004 sec
     gradient                   ...        0 min,  0.006 sec
 * total energy  :   -32.7833142 Eh     change       -0.2900325E-03 Eh
   gradient norm :     0.0048627 Eh/α   predicted    -0.2636212E-03 (  -9.11%)
   displ. norm   :     0.0318675 α      lambda       -0.4545458E-04
   maximum displ.:     0.0133192 α      in ANC's #3, #5, #4, ...

........................................................................
.............................. CYCLE    4 ..............................
........................................................................

 iter      E             dE          RMSdq      gap      omega  full diag
   1    -33.2477019 -0.332477E+02  0.217E-02    3.76       0.0  T
   2    -33.2477023 -0.400397E-06  0.126E-02    3.76       1.8  T
   3    -33.2477021  0.212360E-06  0.495E-03    3.76       4.5  T
   4    -33.2477024 -0.300361E-06  0.923E-04    3.76      24.2  T
   5    -33.2477024 -0.142989E-07  0.290E-04    3.76      77.1  T
     SCC iter.                  ...        0 min,  0.003 sec
     gradient                   ...        0 min,  0.051 sec
 * total energy  :   -32.7833498 Eh     change       -0.3560326E-04 Eh
   gradient norm :     0.0019876 Eh/α   predicted    -0.2378795E-04 ( -33.19%)
   displ. norm   :     0.0943070 α      lambda       -0.4373700E-04
   maximum displ.:     0.0432494 α      in ANC's #5, #4, #3, ...

........................................................................
.............................. CYCLE    5 ..............................
........................................................................

 iter      E             dE          RMSdq      gap      omega  full diag
   1    -33.2462567 -0.332463E+02  0.421E-02    3.74       0.0  T
   2    -33.2462581 -0.141328E-05  0.251E-02    3.74       1.0  T
   3    -33.2462568  0.132874E-05  0.112E-02    3.74       2.0  T
   4    -33.2462587 -0.192390E-05  0.148E-03    3.74      15.1  T
   5    -33.2462587 -0.210911E-07  0.630E-04    3.74      35.5  T
   6    -33.2462587 -0.539245E-09  0.289E-04    3.74      77.4  T
     SCC iter.                  ...        0 min,  0.003 sec
     gradient                   ...        0 min,  0.006 sec
 * total energy  :   -32.7833807 Eh     change       -0.3094083E-04 Eh
   gradient norm :     0.0037576 Eh/α   predicted    -0.2198978E-04 ( -28.93%)
   displ. norm   :     0.0291928 α      lambda       -0.1664180E-04
   maximum displ.:     0.0153814 α      in ANC's #5, #7, #4, ...

........................................................................
.............................. CYCLE    6 ..............................
........................................................................

 iter      E             dE          RMSdq      gap      omega  full diag
   1    -33.2463455 -0.332463E+02  0.111E-02    3.75       0.0  T
   2    -33.2463455 -0.349817E-07  0.645E-03    3.75       3.5  T
   3    -33.2463455  0.210608E-08  0.953E-04    3.75      23.5  T
   4    -33.2463455 -0.707358E-08  0.294E-04    3.75      76.1  T
     SCC iter.                  ...        0 min,  0.002 sec
     gradient                   ...        0 min,  0.005 sec
 * total energy  :   -32.7833963 Eh     change       -0.1558795E-04 Eh
   gradient norm :     0.0030782 Eh/α   predicted    -0.8337569E-05 ( -46.51%)
   displ. norm   :     0.2945224 α      lambda       -0.1413211E-03
   maximum displ.:     0.1606963 α      in ANC's #5, #7, #4, ...

........................................................................
.............................. CYCLE    7 ..............................
........................................................................

 iter      E             dE          RMSdq      gap      omega  full diag
   1    -33.2457831 -0.332458E+02  0.101E-01    3.76       0.0  T
   2    -33.2457853 -0.217041E-05  0.590E-02    3.75       1.0  T
   3    -33.2457854 -0.494713E-07  0.708E-03    3.75       3.2  T
   4    -33.2457858 -0.395207E-06  0.298E-03    3.75       7.5  T
   5    -33.2457858 -0.595195E-07  0.148E-03    3.75      15.1  T
   6    -33.2457858 -0.886739E-08  0.431E-04    3.75      51.8  T
   7    -33.2457858 -0.652236E-09  0.227E-04    3.75      98.5  T
     SCC iter.                  ...        0 min,  0.004 sec
     gradient                   ...        0 min,  0.005 sec
 * total energy  :   -32.7834676 Eh     change       -0.7126395E-04 Eh
   gradient norm :     0.0057175 Eh/α   predicted    -0.7679597E-04 (   7.76%)
   displ. norm   :     0.0192520 α      lambda       -0.4252268E-04
   maximum displ.:     0.0125903 α      in ANC's #3, #4, #7, ...

........................................................................
.............................. CYCLE    8 ..............................
........................................................................

 iter      E             dE          RMSdq      gap      omega  full diag
   1    -33.2469218 -0.332469E+02  0.132E-02    3.76       0.0  T
   2    -33.2469222 -0.362156E-06  0.722E-03    3.76       3.1  T
   3    -33.2469222  0.212844E-07  0.318E-03    3.76       7.0  T
   4    -33.2469222 -0.544291E-07  0.101E-03    3.76      22.1  T
   5    -33.2469222 -0.125747E-07  0.366E-04    3.76      61.2  T
   6    -33.2469222 -0.299849E-10  0.855E-05    3.76     261.4  T
     SCC iter.                  ...        0 min,  0.003 sec
     gradient                   ...        0 min,  0.006 sec
 * total energy  :   -32.7834973 Eh     change       -0.2971872E-04 Eh
   gradient norm :     0.0030285 Eh/α   predicted    -0.2126988E-04 ( -28.43%)
   displ. norm   :     0.1590443 α      lambda       -0.5766437E-04
   maximum displ.:     0.0937019 α      in ANC's #5, #7, #6, ...

........................................................................
.............................. CYCLE    9 ..............................
........................................................................

 iter      E             dE          RMSdq      gap      omega  full diag
   1    -33.2472306 -0.332472E+02  0.530E-02    3.76       0.0  T
   2    -33.2472310 -0.453110E-06  0.314E-02    3.76       1.0  T
   3    -33.2472308  0.258784E-06  0.500E-03    3.76       4.5  T
   4    -33.2472312 -0.420741E-06  0.155E-03    3.76      14.5  T
   5    -33.2472312 -0.107166E-07  0.664E-04    3.76      33.7  T
   6    -33.2472312 -0.143417E-08  0.228E-04    3.76      98.0  T
     SCC iter.                  ...        0 min,  0.048 sec
     gradient                   ...        0 min,  0.005 sec
 * total energy  :   -32.7835413 Eh     change       -0.4402237E-04 Eh
   gradient norm :     0.0021689 Eh/α   predicted    -0.2956211E-04 ( -32.85%)
   displ. norm   :     0.2025222 α      lambda       -0.5040065E-04
   maximum displ.:     0.1193761 α      in ANC's #5, #7, #6, ...

........................................................................
.............................. CYCLE   10 ..............................
........................................................................

 iter      E             dE          RMSdq      gap      omega  full diag
   1    -33.2463358 -0.332463E+02  0.634E-02    3.75       0.0  T
   2    -33.2463365 -0.702475E-06  0.375E-02    3.75       1.0  T
   3    -33.2463366 -0.116664E-06  0.334E-03    3.75       6.7  T
   4    -33.2463367 -0.657973E-07  0.168E-03    3.75      13.3  T
   5    -33.2463367 -0.963154E-08  0.755E-04    3.75      29.6  T
   6    -33.2463367 -0.366158E-08  0.277E-04    3.75      80.6  T
     SCC iter.                  ...        0 min,  0.003 sec
     gradient                   ...        0 min,  0.005 sec
 * total energy  :   -32.7835656 Eh     change       -0.2425312E-04 Eh
   gradient norm :     0.0030663 Eh/α   predicted    -0.2623676E-04 (   8.18%)
   displ. norm   :     0.0357880 α      lambda       -0.3126487E-04
   maximum displ.:     0.0275579 α      in ANC's #3, #1, #8, ...

........................................................................
.............................. CYCLE   11 ..............................
........................................................................

 iter      E             dE          RMSdq      gap      omega  full diag
   1    -33.2473620 -0.332474E+02  0.171E-02    3.75       0.0  T
   2    -33.2473624 -0.413112E-06  0.963E-03    3.75       2.3  T
   3    -33.2473624  0.135192E-07  0.312E-03    3.75       7.2  T
   4    -33.2473625 -0.425551E-07  0.992E-04    3.75      22.5  T
   5    -33.2473625 -0.128114E-07  0.447E-04    3.75      50.0  T
     SCC iter.                  ...        0 min,  0.003 sec
     gradient                   ...        0 min,  0.005 sec
 * total energy  :   -32.7835786 Eh     change       -0.1303980E-04 Eh
   gradient norm :     0.0020434 Eh/α   predicted    -0.1565520E-04 (  20.06%)
   displ. norm   :     0.0586210 α      lambda       -0.1020052E-04
   maximum displ.:     0.0323559 α      in ANC's #5, #7, #6, ...

........................................................................
.............................. CYCLE   12 ..............................
........................................................................

 iter      E             dE          RMSdq      gap      omega  full diag
   1    -33.2470255 -0.332470E+02  0.173E-02    3.75       0.0  T
   2    -33.2470256 -0.769268E-07  0.103E-02    3.75       2.2  T
   3    -33.2470256  0.189362E-07  0.171E-03    3.75      13.1  T
   4    -33.2470256 -0.344625E-07  0.571E-04    3.75      39.2  T
   5    -33.2470256 -0.197619E-08  0.257E-04    3.75      86.9  T
     SCC iter.                  ...        0 min,  0.003 sec
     gradient                   ...        0 min,  0.005 sec
 * total energy  :   -32.7835866 Eh     change       -0.8002327E-05 Eh
   gradient norm :     0.0013457 Eh/α   predicted    -0.5133348E-05 ( -35.85%)
   displ. norm   :     0.1531685 α      lambda       -0.1445820E-04
   maximum displ.:     0.0771597 α      in ANC's #2, #5, #7, ...

........................................................................
.............................. CYCLE   13 ..............................
........................................................................

 iter      E             dE          RMSdq      gap      omega  full diag
   1    -33.2464894 -0.332465E+02  0.409E-02    3.75       0.0  T
   2    -33.2464897 -0.327846E-06  0.245E-02    3.75       1.0  T
   3    -33.2464896  0.115830E-06  0.388E-03    3.75       5.8  T
   4    -33.2464898 -0.194138E-06  0.126E-03    3.75      17.8  T
   5    -33.2464898 -0.884998E-08  0.527E-04    3.75      42.4  T
   6    -33.2464898 -0.700872E-09  0.130E-04    3.75     172.2  T
     SCC iter.                  ...        0 min,  0.003 sec
     gradient                   ...        0 min,  0.006 sec
 * total energy  :   -32.7835918 Eh     change       -0.5224578E-05 Eh
   gradient norm :     0.0029448 Eh/α   predicted    -0.7308318E-05 (  39.88%)
   displ. norm   :     0.0412698 α      lambda       -0.1369796E-04
   maximum displ.:     0.0243546 α      in ANC's #5, #7, #6, ...

........................................................................
.............................. CYCLE   14 ..............................
........................................................................

 iter      E             dE          RMSdq      gap      omega  full diag
   1    -33.2471083 -0.332471E+02  0.160E-02    3.75       0.0  T
   2    -33.2471084 -0.137573E-06  0.930E-03    3.75       2.4  T
   3    -33.2471084 -0.961598E-08  0.139E-03    3.75      16.1  T
   4    -33.2471084 -0.548439E-08  0.511E-04    3.75      43.7  T
   5    -33.2471084 -0.137066E-08  0.281E-04    3.75      79.6  T
     SCC iter.                  ...        0 min,  0.003 sec
     gradient                   ...        0 min,  0.005 sec
 * total energy  :   -32.7836001 Eh     change       -0.8206998E-05 Eh
   gradient norm :     0.0017018 Eh/α   predicted    -0.6862948E-05 ( -16.38%)
   displ. norm   :     0.0347069 α      lambda       -0.7353521E-05
   maximum displ.:     0.0272453 α      in ANC's #2, #1, #4, ...

........................................................................
.............................. CYCLE   15 ..............................
........................................................................

 iter      E             dE          RMSdq      gap      omega  full diag
   1    -33.2474981 -0.332475E+02  0.169E-02    3.75       0.0  T
   2    -33.2474982 -0.859423E-07  0.995E-03    3.75       2.2  T
   3    -33.2474982  0.270957E-07  0.182E-03    3.75      12.3  T
   4    -33.2474983 -0.430877E-07  0.515E-04    3.75      43.4  T
   5    -33.2474983 -0.213283E-08  0.257E-04    3.75      87.2  T
     SCC iter.                  ...        0 min,  0.003 sec
     gradient                   ...        0 min,  0.038 sec
 * total energy  :   -32.7836074 Eh     change       -0.7317813E-05 Eh
   gradient norm :     0.0008502 Eh/α   predicted    -0.3681118E-05 ( -49.70%)
   displ. norm   :     0.0948386 α      lambda       -0.8498180E-05
   maximum displ.:     0.0755208 α      in ANC's #2, #1, #4, ...

........................................................................
.............................. CYCLE   16 ..............................
........................................................................

 iter      E             dE          RMSdq      gap      omega  full diag
   1    -33.2474138 -0.332474E+02  0.306E-02    3.75       0.0  T
   2    -33.2474138 -0.564606E-07  0.182E-02    3.75       1.2  T
   3    -33.2474138  0.907193E-08  0.157E-03    3.75      14.2  T
   4    -33.2474139 -0.351765E-07  0.602E-04    3.75      37.1  T
   5    -33.2474139 -0.879602E-09  0.292E-04    3.75      76.7  T
     SCC iter.                  ...        0 min,  0.003 sec
     gradient                   ...        0 min,  0.005 sec
 * total energy  :   -32.7836180 Eh     change       -0.1060639E-04 Eh
   gradient norm :     0.0009378 Eh/α   predicted    -0.4263569E-05 ( -59.80%)
   displ. norm   :     0.2597922 α      lambda       -0.1743457E-04
   maximum displ.:     0.2101279 α      in ANC's #2, #1, #5, ...

........................................................................
.............................. CYCLE   17 ..............................
........................................................................

 iter      E             dE          RMSdq      gap      omega  full diag
   1    -33.2459294 -0.332459E+02  0.839E-02    3.75       0.0  T
   2    -33.2459301 -0.728613E-06  0.498E-02    3.75       1.0  T
   3    -33.2459303 -0.124337E-06  0.329E-03    3.75       6.8  T
   4    -33.2459303 -0.655692E-07  0.167E-03    3.75      13.4  T
   5    -33.2459303 -0.593395E-08  0.926E-04    3.75      24.1  T
   6    -33.2459303 -0.330616E-08  0.230E-04    3.75      97.3  T
     SCC iter.                  ...        0 min,  0.003 sec
     gradient                   ...        0 min,  0.005 sec
 * total energy  :   -32.7836139 Eh     change        0.4069131E-05 Eh
   gradient norm :     0.0034109 Eh/α   predicted    -0.8939437E-05 (-319.69%)
   displ. norm   :     0.0931443 α      lambda       -0.3135908E-04
   maximum displ.:     0.0615798 α      in ANC's #2, #5, #4, ...

........................................................................
.............................. CYCLE   18 ..............................
........................................................................

 iter      E             dE          RMSdq      gap      omega  full diag
   1    -33.2469883 -0.332470E+02  0.268E-02    3.75       0.0  T
   2    -33.2469886 -0.251928E-06  0.158E-02    3.75       1.4  T
   3    -33.2469886 -0.151242E-07  0.193E-03    3.75      11.6  T
   4    -33.2469886 -0.127507E-07  0.659E-04    3.75      33.9  T
   5    -33.2469886 -0.123578E-08  0.348E-04    3.75      64.2  T
     SCC iter.                  ...        0 min,  0.003 sec
     gradient                   ...        0 min,  0.005 sec
 * total energy  :   -32.7836293 Eh     change       -0.1539294E-04 Eh
   gradient norm :     0.0009183 Eh/α   predicted    -0.1595017E-04 (   3.62%)
   displ. norm   :     0.0158127 α      lambda       -0.1664591E-05
   maximum displ.:     0.0137135 α      in ANC's #2, #5, #4, ...

........................................................................
.............................. CYCLE   19 ..............................
........................................................................

 iter      E             dE          RMSdq      gap      omega  full diag
   1    -33.2472255 -0.332472E+02  0.841E-03    3.75       0.0  T
   2    -33.2472256 -0.235474E-07  0.495E-03    3.75       4.5  T
   3    -33.2472255  0.514880E-08  0.769E-04    3.75      29.1  T
   4    -33.2472256 -0.887292E-08  0.248E-04    3.75      90.1  T
     SCC iter.                  ...        0 min,  0.002 sec
     gradient                   ...        0 min,  0.005 sec
 * total energy  :   -32.7836311 Eh     change       -0.1772782E-05 Eh
   gradient norm :     0.0003468 Eh/α   predicted    -0.8320080E-06 ( -53.07%)
   displ. norm   :     0.0402360 α      lambda       -0.1730105E-05
   maximum displ.:     0.0384392 α      in ANC's #2, #31, #1, ...

   *** GEOMETRY OPTIMIZATION CONVERGED AFTER 19 ITERATIONS ***

------------------------------------------------------------------------
 total energy gain   :        -0.0032350 Eh       -2.0300 kcal/mol
 total RMSD          :         0.2607613 a0        0.1380 Å
 total power (kW/mol):        -0.4470191 (step)  -25.1222 (real)
------------------------------------------------------------------------

 ANCopt (total)                0 d,  0 h,  0 min,  0.338 sec
 optimizer setup                ...        0 min,  0.000 sec (  0.023%)
 model hessian                  ...        0 min,  0.002 sec (  0.559%)
 ANC generation                 ...        0 min,  0.000 sec (  0.114%)
 coordinate transformation      ...        0 min,  0.000 sec (  0.016%)
 single point calculation       ...        0 min,  0.331 sec ( 97.929%)
 optimization log               ...        0 min,  0.002 sec (  0.577%)
 hessian update                 ...        0 min,  0.000 sec (  0.031%)
 rational function              ...        0 min,  0.001 sec (  0.293%)

================
 final structure:
================
20
 xtb: 6.7.1 (edcfbbe)
O           -1.99704378224463        0.72944017283970        1.76154362122681
C           -2.24553082373453        0.53573076065043        0.59373601961754
C           -3.64066839302120        0.66201429008468        0.01088975169831
N           -1.32540334158781        0.18435279227998       -0.34956776420459
C            0.04978300559891       -0.04073069147662       -0.20373086420049
C            0.77075518961188       -0.43043072760787       -1.33153291034496
C            2.12597238695444       -0.67155619367812       -1.25512626363076
C            2.79081583053404       -0.52636328422379       -0.04139873278152
O            4.12933538962291       -0.77555575982152       -0.00348230748756
C            2.07492852113656       -0.13525213197227        1.08276341022913
C            0.71611552731967        0.10692899631462        1.00750138539906
H           -3.94815305811180       -0.27885465679680       -0.44123981245669
H           -4.33472667519407        0.92038318769801        0.80492058330744
H           -3.66060102180110        1.44156622755615       -0.74834184117679
H           -1.66832787454280        0.04880934771064       -1.29067355038527
H            0.26295123484614       -0.54647870985988       -2.27904596147804
H            2.68718798229787       -0.97422104590681       -2.12441093367106
H            4.45914588854818       -0.63988504184745        0.89279461344459
H            2.58423154111343       -0.01825791142572        2.03009741023450
H            0.16923247265402        0.40856037948264        1.88440414666037

 Bond Distances (Angstroems)
 ---------------------------
O1-C2=1.2096         C2-O1=1.2096         C2-C3=1.5173         C2-N4=1.3638         C3-C2=1.5173         C3-H12=1.0882        
C3-H13=1.0858        C3-H14=1.0884        N4-C2=1.3638         N4-C5=1.4011         N4-H15=1.0108        C5-N4=1.4011         
C5-C6=1.3941         C5-C11=1.3903        C6-C5=1.3941         C6-C7=1.3786         C6-H16=1.0813        C7-C6=1.3786         
C7-C8=1.3915         C7-H17=1.0781        C8-C7=1.3915         C8-O9=1.3620         C8-C10=1.3890        O9-C8=1.3620         
O9-H18=0.9646        C10-C8=1.3890        C10-C11=1.3823       C10-H19=1.0819       C11-C5=1.3903        C11-C10=1.3823       
C11-H20=1.0766       H12-C3=1.0882        H13-C3=1.0858        H14-C3=1.0884        H15-N4=1.0108        H16-C6=1.0813        
H17-C7=1.0781        H18-O9=0.9646        H19-C10=1.0819       H20-C11=1.0766       
 C  H  Rav=1.0829 sigma=0.0044  Rmin=1.0766  Rmax=1.0884     7
 C  C  Rav=1.4061 sigma=0.0456  Rmin=1.3786  Rmax=1.5173     7
 N  H  Rav=1.0108 sigma=0.0000  Rmin=1.0108  Rmax=1.0108     1
 N  C  Rav=1.3824 sigma=0.0187  Rmin=1.3638  Rmax=1.4011     2
 O  H  Rav=0.9646 sigma=0.0000  Rmin=0.9646  Rmax=0.9646     1
 O  C  Rav=1.2858 sigma=0.0762  Rmin=1.2096  Rmax=1.3620     2

 selected bond angles (degree)
 --------------------
C3-C2-O1=123.12                N4-C2-O1=124.78                N4-C2-C3=112.09                H12-C3-C2=110.33               
H13-C3-C2=109.07               H13-C3-H12=109.21              H14-C3-C2=110.15               H14-C3-H12=108.92              
H14-C3-H13=109.15              C5-N4-C2=129.17                H15-N4-C2=116.72               H15-N4-C5=114.10               
C6-C5-N4=117.92                C11-C5-N4=122.96               C11-C5-C6=119.12               C7-C6-C5=120.83                
H16-C6-C5=119.74               H16-C6-C7=119.44               C8-C7-C6=119.99                H17-C7-C6=121.07               
H17-C7-C8=118.94               O9-C8-C7=118.34                C10-C8-C7=119.28               C10-C8-O9=122.38               
H18-O9-C8=109.64               C11-C10-C8=120.79              H19-C10-C8=119.77              H19-C10-C11=119.44             

 selected dihedral angles (degree)
 ---------------------------------
H12-C3-C2-O1=238.72           H12-C3-C2-N4= 58.79           H13-C3-C2-O1=358.67           H13-C3-C2-N4=178.74           
H14-C3-C2-O1=118.43           H14-C3-C2-N4=298.51           C5-N4-C2-O1=  0.79            C5-N4-C2-C3=180.72            
H15-N4-C2-O1=179.74           H15-N4-C2-C3=359.66           C6-C5-N4-C2=178.23            C6-C5-N4-H15=359.26           
C11-C5-N4-C2=358.26           C11-C5-N4-H15=179.29          C7-C6-C5-N4=180.19            C7-C6-C5-C11=  0.16           
H16-C6-C5-N4=  0.14           H16-C6-C5-C11=180.12          C8-C7-C6-C5=  0.00            C8-C7-C6-H16=180.03           
H17-C7-C6-C5=179.93           H17-C7-C6-H16=359.97          O9-C8-C7-C6=179.88            O9-C8-C7-H17=359.94           
C10-C8-C7-C6=359.87           C10-C8-C7-H17=179.93          H18-O9-C8-C7=180.16           H18-O9-C8-C10=  0.17          
C11-C10-C8-C7=  0.13          C11-C10-C8-O9=180.12          H19-C10-C8-C7=180.11          H19-C10-C8-O9=  0.10          
           -------------------------------------------------
          |                Final Singlepoint                |
           -------------------------------------------------

          ...................................................
          :                      SETUP                      :
          :.................................................:
          :  # basis functions                  53          :
          :  # atomic orbitals                  53          :
          :  # shells                           31          :
          :  # electrons                        58          :
          :  max. iterations                   250          :
          :  Hamiltonian                  GFN2-xTB          :
          :  restarted?                      false          :
          :  GBSA solvation                  false          :
          :  PC potential                    false          :
          :  electronic temp.          300.0000000     K    :
          :  accuracy                    1.0000000          :
          :  -> integral cutoff          0.2500000E+02      :
          :  -> integral neglect         0.1000000E-07      :
          :  -> SCF convergence          0.1000000E-05 Eh   :
          :  -> wf. convergence          0.1000000E-03 e    :
          :  Broyden damping             0.4000000          :
          :  net charge                          0          :
          :  unpaired electrons                  0          :
          ...................................................

 iter      E             dE          RMSdq      gap      omega  full diag
   1    -33.2472256 -0.332472E+02  0.125E-04    3.75       0.0  T
   2    -33.2472256 -0.268869E-10  0.798E-05    3.75     280.3  T
   3    -33.2472256  0.537881E-11  0.488E-05    3.75     458.7  T

   *** convergence criteria satisfied after 3 iterations ***

         #    Occupation            Energy/Eh            Energy/eV
      -------------------------------------------------------------
         1        2.0000           -0.7104205             -19.3315
       ...           ...                  ...                  ...
        23        2.0000           -0.4744618             -12.9108
        24        2.0000           -0.4606337             -12.5345
        25        2.0000           -0.4322798             -11.7629
        26        2.0000           -0.4294021             -11.6846
        27        2.0000           -0.4091665             -11.1340
        28        2.0000           -0.3937705             -10.7150
        29        2.0000           -0.3706199             -10.0851 (HOMO)
        30                         -0.2328173              -6.3353 (LUMO)
        31                         -0.2269915              -6.1768
        32                         -0.1863990              -5.0722
        33                         -0.0857375              -2.3330
        34                          0.0083358               0.2268
       ...                                ...                  ...
        53                          0.6783523              18.4589
      -------------------------------------------------------------
                  HL-Gap            0.1378026 Eh            3.7498 eV
             Fermi-level           -0.3017186 Eh           -8.2102 eV

 SCC (total)                   0 d,  0 h,  0 min,  0.059 sec
 SCC setup                      ...        0 min,  0.000 sec (  0.180%)
 Dispersion                     ...        0 min,  0.000 sec (  0.124%)
 classical contributions        ...        0 min,  0.000 sec (  0.058%)
 integral evaluation            ...        0 min,  0.051 sec ( 87.067%)
 iterations                     ...        0 min,  0.002 sec (  3.113%)
 molecular gradient             ...        0 min,  0.005 sec (  9.330%)
 printout                       ...        0 min,  0.000 sec (  0.117%)

         :::::::::::::::::::::::::::::::::::::::::::::::::::::
         ::                     SUMMARY                     ::
         :::::::::::::::::::::::::::::::::::::::::::::::::::::
         :: total energy             -32.783631078405 Eh    ::
         :: gradient norm              0.000346543915 Eh/a0 ::
         :: HOMO-LUMO gap              3.749799853329 eV    ::
         ::.................................................::
         :: SCC energy               -33.247270238768 Eh    ::
         :: -> isotropic ES            0.057751897589 Eh    ::
         :: -> anisotropic ES          0.004063632864 Eh    ::
         :: -> anisotropic XC          0.009581146024 Eh    ::
         :: -> dispersion             -0.016031827495 Eh    ::
         :: repulsion energy           0.463639160364 Eh    ::
         :: add. restraining           0.000000000000 Eh    ::
         :: total charge              -0.000000000000 e     ::
         :::::::::::::::::::::::::::::::::::::::::::::::::::::

           -------------------------------------------------
          |                Property Printout                |
           -------------------------------------------------

    * Orbital Energies and Occupations

         #    Occupation            Energy/Eh            Energy/eV
      -------------------------------------------------------------
         1        2.0000           -0.7104205             -19.3315
       ...           ...                  ...                  ...
        17        2.0000           -0.4998222             -13.6009
        18        2.0000           -0.4920261             -13.3887
        19        2.0000           -0.4916537             -13.3786
        20        2.0000           -0.4838866             -13.1672
        21        2.0000           -0.4814732             -13.1016
        22        2.0000           -0.4746737             -12.9165
        23        2.0000           -0.4744618             -12.9108
        24        2.0000           -0.4606337             -12.5345
        25        2.0000           -0.4322798             -11.7629
        26        2.0000           -0.4294021             -11.6846
        27        2.0000           -0.4091665             -11.1340
        28        2.0000           -0.3937705             -10.7150
        29        2.0000           -0.3706199             -10.0851 (HOMO)
        30                         -0.2328173              -6.3353 (LUMO)
        31                         -0.2269915              -6.1768
        32                         -0.1863990              -5.0722
        33                         -0.0857375              -2.3330
        34                          0.0083358               0.2268
        35                          0.0698601               1.9010
        36                          0.0863044               2.3485
        37                          0.1279309               3.4812
        38                          0.1512611               4.1160
        39                          0.1536132               4.1800
        40                          0.1644869               4.4759
       ...                                ...                  ...
        53                          0.6783523              18.4589
      -------------------------------------------------------------
                  HL-Gap            0.1378026 Eh            3.7498 eV
             Fermi-level           -0.3017186 Eh           -8.2102 eV

     #   Z          covCN         q      C6AA      α(0)
     1   8 O        0.858    -0.415    21.987     6.287
     2   6 C        2.745     0.280    22.253     7.724
     3   6 C        3.758    -0.146    23.360     6.891
     4   7 N        2.697    -0.163    24.528     7.356
     5   6 C        2.904     0.064    26.557     8.450
     6   6 C        2.926    -0.055    29.373     8.888
     7   6 C        2.919    -0.053    29.312     8.878
     8   6 C        2.845     0.140    24.946     8.186
     9   8 O        1.659    -0.393    20.713     6.144
    10   6 C        2.920    -0.068    29.703     8.937
    11   6 C        2.920    -0.048    29.185     8.859
    12   1 H        0.925     0.055     2.256     2.349
    13   1 H        0.925     0.073     2.056     2.242
    14   1 H        0.925     0.056     2.241     2.341
    15   1 H        0.860     0.174     1.248     1.750
    16   1 H        0.925     0.032     2.564     2.504
    17   1 H        0.926     0.053     2.284     2.363
    18   1 H        0.805     0.300     0.722     1.334
    19   1 H        0.925     0.034     2.531     2.488
    20   1 H        0.926     0.080     1.983     2.202

 Mol. C6AA /au·bohr⁶  :       4614.818403
 Mol. C8AA /au·bohr⁸  :     108981.633573
 Mol. α(0) /au        :        106.172220


Wiberg/Mayer (AO) data.
largest (>0.10) Wiberg bond orders for each atom

 ---------------------------------------------------------------------------
     #   Z sym  total        # sym  WBO       # sym  WBO       # sym  WBO
 ---------------------------------------------------------------------------
     1   8 O    2.029 --     2 C    1.713     4 N    0.168
     2   6 C    3.947 --     1 O    1.713     4 N    1.199     3 C    0.978
     3   6 C    3.993 --    13 H    0.983     2 C    0.978    12 H    0.972
                            14 H    0.971
     4   7 N    3.488 --     2 C    1.199     5 C    1.067    15 H    0.937
                             1 O    0.168
     5   6 C    3.961 --    11 C    1.374     6 C    1.361     4 N    1.067
     6   6 C    3.989 --     7 C    1.469     5 C    1.361    16 H    0.967
                            10 C    0.102
     7   6 C    3.988 --     6 C    1.469     8 C    1.356    17 H    0.968
                            11 C    0.105
     8   6 C    3.939 --    10 C    1.374     7 C    1.356     9 O    1.068
     9   8 O    2.111 --     8 C    1.068    18 H    0.889
    10   6 C    3.988 --    11 C    1.451     8 C    1.374    19 H    0.966
                             6 C    0.102
    11   6 C    3.986 --    10 C    1.451     5 C    1.374    20 H    0.959
                             7 C    0.105
    12   1 H    0.997 --     3 C    0.972
    13   1 H    0.994 --     3 C    0.983
    14   1 H    0.996 --     3 C    0.971
    15   1 H    0.969 --     4 N    0.937
    16   1 H    0.999 --     6 C    0.967
    17   1 H    0.997 --     7 C    0.968
    18   1 H    0.910 --     9 O    0.889
    19   1 H    0.998 --    10 C    0.966
    20   1 H    0.994 --    11 C    0.959
 ---------------------------------------------------------------------------

Topologies differ in total number of bonds
Writing topology from bond orders to xtbtopo.mol

molecular dipole:
                 x           y           z       tot (Debye)
 q only:       -0.107      -0.141      -0.831
   full:       -0.229      -0.146      -0.966       2.551
molecular quadrupole (traceless):
                xx          xy          yy          xz          yz          zz
 q only:        5.180       1.526      -2.567      13.197      -2.557      -2.613
  q+dip:        5.904       1.850      -5.073      17.538      -2.376      -0.831
   full:        5.363       2.442      -2.831      17.592      -3.329      -2.533

           -------------------------------------------------
          |                Geometry Summary                 |
           -------------------------------------------------

      molecular mass/u    :      151.1628670
   center of mass at/Å    :        0.2898122      -0.0250883       0.1343306
  moments of inertia/u·Å² :        0.1398056E+03   0.9128006E+03   0.1049394E+04
rotational constants/cm⁻¹ :        0.1205791E+00   0.1846803E-01   0.1606416E-01

 * 19 selected distances

     #   Z          #   Z                                           value/Å
     1   8 O        2   6 C                                       1.2095636
     2   6 C        4   7 N                                       1.3637901
     4   7 N        5   6 C                                       1.4010956 (max)
     5   6 C        6   6 C                                       1.3941323
     6   6 C        7   6 C                                       1.3786201
     7   6 C        8   6 C                                       1.3914858
     8   6 C        9   8 O                                       1.3620461
     8   6 C       10   6 C                                       1.3889577
     5   6 C       11   6 C                                       1.3902828
    10   6 C       11   6 C                                       1.3822768
     3   6 C       12   1 H                                       1.0882107
     3   6 C       13   1 H                                       1.0857977
     3   6 C       14   1 H                                       1.0883618
     4   7 N       15   1 H                                       1.0107668
     6   6 C       16   1 H                                       1.0812554
     7   6 C       17   1 H                                       1.0780654
     9   8 O       18   1 H                                       0.9646212 (min)
    10   6 C       19   1 H                                       1.0819053
    11   6 C       20   1 H                                       1.0765785

 * 6 distinct bonds (by element types)

   Z      Z             #   av. dist./Å        max./Å        min./Å
   1 H    6 C           7     1.0828821     1.0883618     1.0765785
   6 C    6 C           6     1.3876259     1.3941323     1.3786201
   1 H    7 N           1     1.0107668     1.0107668     1.0107668
   6 C    7 N           2     1.3824428     1.4010956     1.3637901
   1 H    8 O           1     0.9646212     0.9646212     0.9646212
   6 C    8 O           2     1.2858048     1.3620461     1.2095636


optimized geometry written to: xtbopt.xyz


           -------------------------------------------------
          | TOTAL ENERGY              -32.783631078405 Eh   |
          | GRADIENT NORM               0.000346543915 Eh/α |
          | HOMO-LUMO GAP               3.749799853329 eV   |
           -------------------------------------------------

------------------------------------------------------------------------
 * finished run on 2025/05/15 at 16:29:28.092     
------------------------------------------------------------------------
 total:
 * wall-time:     0 d,  0 h,  0 min,  0.448 sec
 *  cpu-time:     0 d,  0 h,  0 min,  0.244 sec
 * ratio c/w:     0.545 speedup
 SCF:
 * wall-time:     0 d,  0 h,  0 min,  0.042 sec
 *  cpu-time:     0 d,  0 h,  0 min,  0.015 sec
 * ratio c/w:     0.355 speedup
 ANC optimizer:
 * wall-time:     0 d,  0 h,  0 min,  0.399 sec
 *  cpu-time:     0 d,  0 h,  0 min,  0.223 sec
 * ratio c/w:     0.559 speedup



----- Single-point -----
      -----------------------------------------------------------      
     |                   =====================                   |     
     |                           x T B                           |     
     |                   =====================                   |     
     |                         S. Grimme                         |     
     |          Mulliken Center for Theoretical Chemistry        |     
     |                    University of Bonn                     |     
      -----------------------------------------------------------      

   * xtb version 6.7.1 (edcfbbe) compiled by 'conda@3ef47c1a292c' on 2024-11-25

   xtb is free software: you can redistribute it and/or modify it under
   the terms of the GNU Lesser General Public License as published by
   the Free Software Foundation, either version 3 of the License, or
   (at your option) any later version.
   
   xtb is distributed in the hope that it will be useful,
   but WITHOUT ANY WARRANTY; without even the implied warranty of
   MERCHANTABILITY or FITNESS FOR A PARTICULAR PURPOSE.  See the
   GNU Lesser General Public License for more details.
   
   Cite this work as:
   * C. Bannwarth, E. Caldeweyher, S. Ehlert, A. Hansen, P. Pracht,
     J. Seibert, S. Spicher, S. Grimme, WIREs Comput. Mol. Sci., 2020, 11,
     e01493. DOI: 10.1002/wcms.1493
   
   for GFN2-xTB:
   * C. Bannwarth, S. Ehlert and S. Grimme., J. Chem. Theory Comput., 2019,
     15, 1652-1671. DOI: 10.1021/acs.jctc.8b01176
   for GFN1-xTB:
   * S. Grimme, C. Bannwarth, P. Shushkov, J. Chem. Theory Comput., 2017,
     13, 1989-2009. DOI: 10.1021/acs.jctc.7b00118
   for GFN0-xTB:
   * P. Pracht, E. Caldeweyher, S. Ehlert, S. Grimme, ChemRxiv, 2019, preprint.
     DOI: 10.26434/chemrxiv.8326202.v1
   for GFN-FF:
   * S. Spicher and S. Grimme, Angew. Chem. Int. Ed., 2020, 59, 15665-15673.
     DOI: 10.1002/anie.202004239
   
   for ALPB and GBSA implicit solvation:
   * S. Ehlert, M. Stahn, S. Spicher, S. Grimme, J. Chem. Theory Comput.,
     2021, 17, 4250-4261. DOI: 10.1021/acs.jctc.1c00471
   
   for ddCOSMO and CPCM-X implicit solvation:
   * M. Stahn, S. Ehlert, S. Grimme, J. Phys. Chem. A,
     2023, XX, XXXX-XXXX. DOI: 10.1021/acs.jpca.3c04382
   
   for DFT-D4:
   * E. Caldeweyher, C. Bannwarth and S. Grimme, J. Chem. Phys., 2017,
     147, 034112. DOI: 10.1063/1.4993215
   * E. Caldeweyher, S. Ehlert, A. Hansen, H. Neugebauer, S. Spicher,
     C. Bannwarth and S. Grimme, J. Chem. Phys., 2019, 150, 154122.
     DOI: 10.1063/1.5090222
   * E. Caldeweyher, J.-M. Mewes, S. Ehlert and S. Grimme, Phys. Chem. Chem. Phys.
     2020, 22, 8499-8512. DOI: 10.1039/D0CP00502A
   
   for sTDA-xTB:
   * S. Grimme and C. Bannwarth, J. Chem. Phys., 2016, 145, 054103.
     DOI: 10.1063/1.4959605
   
   in the mass-spec context:
   * V. Asgeirsson, C. Bauer and S. Grimme, Chem. Sci., 2017, 8, 4879.
     DOI: 10.1039/c7sc00601b
   * J. Koopman and S. Grimme, ACS Omega 2019, 4, 12, 15120-15133.
     DOI: 10.1021/acsomega.9b02011
   
   for metadynamics refer to:
   * S. Grimme, J. Chem. Theory Comput., 2019, 155, 2847-2862
     DOI: 10.1021/acs.jctc.9b00143
   
   for SPH calculations refer to:
   * S. Spicher and S. Grimme, J. Chem. Theory Comput., 2021, 17, 1701-1714
     DOI: 10.1021/acs.jctc.0c01306
   
   for ONIOM refer to:
   * C. Plett, A. Katbashev, S. Ehlert, S. Grimme, M. Bursch,
     Phys. Chem. Chem. Phys., 2023, 25, 17860-17868. DOI: 10.1039/D3CP02178E
   
   for DIPRO refer to:
   * J. Kohn, N. Gildemeister, S. Grimme, D. Fazzi, A. Hansen,
     J. Chem. Phys., 2023, just accepted.
   
   for PTB refer to:
   * S. Grimme, M. Mueller, A. Hansen, J. Chem. Phys., 2023, 158, 124111.
     DOI: 10.1063/5.0137838
   
   with help from (in alphabetical order)
   P. Atkinson, C. Bannwarth, F. Bohle, G. Brandenburg, E. Caldeweyher
   M. Checinski, S. Dohm, S. Ehlert, S. Ehrlich, I. Gerasimov, C. Hölzer
   A. Katbashev, J. Kohn, J. Koopman, C. Lavigne, S. Lehtola, F. März, M. Müller,
   F. Musil, H. Neugebauer, J. Pisarek, C. Plett, P. Pracht, F. Pultar,
   J. Seibert, P. Shushkov, S. Spicher, M. Stahn, M. Steiner, T. Strunk,
   J. Stückrath, T. Rose, and J. Unsleber
   
 * started run on 2025/05/15 at 16:29:28.130     
   ID    Z sym.   atoms
    1    8 O      1, 9
    2    6 C      2, 3, 5-8, 10, 11
    3    7 N      4
    4    1 H      12-20

           -------------------------------------------------
          |                Calculation Setup                |
           -------------------------------------------------

          program call               : xtb /rds/general/user/hgt20/home/callum/QDESCP/Paracetamol_rdkit_conf_1/Paracetamol_rdkit_conf_1.xyz --acc 1 --gfn 2 --chrg 0 --uhf 0 --etemp 300 --input /rds/general/user/hgt20/home/callum/QDESCP/Paracetamol_rdkit_conf_1/Paracetamol_rdkit_conf_1_xtb.inp -P 1
          hostname                   : login-c
          coordinate file            : /rds/general/user/hgt20/home/callum/QDESCP/Paracetamol_rdkit_conf_1/Paracetamol_rdkit_conf_1.xyz
          omp threads                :                     1


           -------------------------------------------------
          |                 G F N 2 - x T B                 |
           -------------------------------------------------

        Reference                      10.1021/acs.jctc.8b01176
      * Hamiltonian:
        H0-scaling (s, p, d)           1.850000    2.230000    2.230000
        zeta-weighting                 0.500000
      * Dispersion:
        s8                             2.700000
        a1                             0.520000
        a2                             5.000000
        s9                             5.000000
      * Repulsion:
        kExp                           1.500000    1.000000
        rExp                           1.000000
      * Coulomb:
        alpha                          2.000000
        third order                    shell-resolved
        anisotropic                    true
        a3                             3.000000
        a5                             4.000000
        cn-shift                       1.200000
        cn-exp                         4.000000
        max-rad                        5.000000

q/qsh data taken from xtbrestart
CAMM data taken from xtbrestart

          ...................................................
          :                      SETUP                      :
          :.................................................:
          :  # basis functions                  53          :
          :  # atomic orbitals                  53          :
          :  # shells                           31          :
          :  # electrons                        58          :
          :  max. iterations                   250          :
          :  Hamiltonian                  GFN2-xTB          :
          :  restarted?                       true          :
          :  GBSA solvation                  false          :
          :  PC potential                    false          :
          :  electronic temp.          300.0000000     K    :
          :  accuracy                    1.0000000          :
          :  -> integral cutoff          0.2500000E+02      :
          :  -> integral neglect         0.1000000E-07      :
          :  -> SCF convergence          0.1000000E-05 Eh   :
          :  -> wf. convergence          0.1000000E-03 e    :
          :  Broyden damping             0.4000000          :
          :  net charge                          0          :
          :  unpaired electrons                  0          :
          ...................................................

 iter      E             dE          RMSdq      gap      omega  full diag
   1    -33.2472256 -0.332472E+02  0.828E-06    3.75       0.0  T
   2    -33.2472256 -0.170530E-12  0.519E-06    3.75    4309.5  T
   3    -33.2472256  0.639488E-13  0.275E-06    3.75    8123.5  T

   *** convergence criteria satisfied after 3 iterations ***

         #    Occupation            Energy/Eh            Energy/eV
      -------------------------------------------------------------
         1        2.0000           -0.7104209             -19.3315
       ...           ...                  ...                  ...
        23        2.0000           -0.4744616             -12.9108
        24        2.0000           -0.4606336             -12.5345
        25        2.0000           -0.4322799             -11.7629
        26        2.0000           -0.4294022             -11.6846
        27        2.0000           -0.4091666             -11.1340
        28        2.0000           -0.3937703             -10.7150
        29        2.0000           -0.3706199             -10.0851 (HOMO)
        30                         -0.2328172              -6.3353 (LUMO)
        31                         -0.2269916              -6.1768
        32                         -0.1863990              -5.0722
        33                         -0.0857376              -2.3330
        34                          0.0083360               0.2268
       ...                                ...                  ...
        53                          0.6783524              18.4589
      -------------------------------------------------------------
                  HL-Gap            0.1378027 Eh            3.7498 eV
             Fermi-level           -0.3017185 Eh           -8.2102 eV

 SCC (total)                   0 d,  0 h,  0 min,  0.011 sec
 SCC setup                      ...        0 min,  0.000 sec (  1.264%)
 Dispersion                     ...        0 min,  0.000 sec (  1.089%)
 classical contributions        ...        0 min,  0.000 sec (  0.358%)
 integral evaluation            ...        0 min,  0.002 sec ( 20.773%)
 iterations                     ...        0 min,  0.002 sec ( 21.697%)
 molecular gradient             ...        0 min,  0.006 sec ( 53.729%)
 printout                       ...        0 min,  0.000 sec (  1.038%)

         :::::::::::::::::::::::::::::::::::::::::::::::::::::
         ::                     SUMMARY                     ::
         :::::::::::::::::::::::::::::::::::::::::::::::::::::
         :: total energy             -32.783631078431 Eh    ::
         :: gradient norm              0.000346661760 Eh/a0 ::
         :: HOMO-LUMO gap              3.749803328073 eV    ::
         ::.................................................::
         :: SCC energy               -33.247270238795 Eh    ::
         :: -> isotropic ES            0.057751961800 Eh    ::
         :: -> anisotropic ES          0.004063619192 Eh    ::
         :: -> anisotropic XC          0.009581135576 Eh    ::
         :: -> dispersion             -0.016031826015 Eh    ::
         :: repulsion energy           0.463639160364 Eh    ::
         :: add. restraining           0.000000000000 Eh    ::
         :: total charge              -0.000000000000 e     ::
         :::::::::::::::::::::::::::::::::::::::::::::::::::::

           -------------------------------------------------
          |                Property Printout                |
           -------------------------------------------------

    * Orbital Energies and Occupations

         #    Occupation            Energy/Eh            Energy/eV
      -------------------------------------------------------------
         1        2.0000           -0.7104209             -19.3315
       ...           ...                  ...                  ...
        17        2.0000           -0.4998221             -13.6009
        18        2.0000           -0.4920258             -13.3887
        19        2.0000           -0.4916538             -13.3786
        20        2.0000           -0.4838866             -13.1672
        21        2.0000           -0.4814732             -13.1016
        22        2.0000           -0.4746738             -12.9165
        23        2.0000           -0.4744616             -12.9108
        24        2.0000           -0.4606336             -12.5345
        25        2.0000           -0.4322799             -11.7629
        26        2.0000           -0.4294022             -11.6846
        27        2.0000           -0.4091666             -11.1340
        28        2.0000           -0.3937703             -10.7150
        29        2.0000           -0.3706199             -10.0851 (HOMO)
        30                         -0.2328172              -6.3353 (LUMO)
        31                         -0.2269916              -6.1768
        32                         -0.1863990              -5.0722
        33                         -0.0857376              -2.3330
        34                          0.0083360               0.2268
        35                          0.0698599               1.9010
        36                          0.0863045               2.3485
        37                          0.1279308               3.4812
        38                          0.1512612               4.1160
        39                          0.1536131               4.1800
        40                          0.1644868               4.4759
       ...                                ...                  ...
        53                          0.6783524              18.4589
      -------------------------------------------------------------
                  HL-Gap            0.1378027 Eh            3.7498 eV
             Fermi-level           -0.3017185 Eh           -8.2102 eV

     #   Z          covCN         q      C6AA      α(0)
     1   8 O        0.858    -0.415    21.987     6.287
     2   6 C        2.745     0.280    22.253     7.724
     3   6 C        3.758    -0.146    23.360     6.891
     4   7 N        2.697    -0.163    24.528     7.356
     5   6 C        2.904     0.064    26.557     8.450
     6   6 C        2.926    -0.055    29.373     8.888
     7   6 C        2.919    -0.053    29.312     8.878
     8   6 C        2.845     0.140    24.946     8.186
     9   8 O        1.659    -0.393    20.713     6.144
    10   6 C        2.920    -0.068    29.703     8.937
    11   6 C        2.920    -0.048    29.185     8.859
    12   1 H        0.925     0.055     2.256     2.349
    13   1 H        0.925     0.073     2.056     2.242
    14   1 H        0.925     0.056     2.241     2.341
    15   1 H        0.860     0.174     1.248     1.750
    16   1 H        0.925     0.032     2.564     2.504
    17   1 H        0.926     0.053     2.284     2.363
    18   1 H        0.805     0.300     0.722     1.334
    19   1 H        0.925     0.034     2.531     2.488
    20   1 H        0.926     0.080     1.983     2.202

 Mol. C6AA /au·bohr⁶  :       4614.818538
 Mol. C8AA /au·bohr⁸  :     108981.634992
 Mol. α(0) /au        :        106.172222


Wiberg/Mayer (AO) data.
largest (>0.10) Wiberg bond orders for each atom

 ---------------------------------------------------------------------------
     #   Z sym  total        # sym  WBO       # sym  WBO       # sym  WBO
 ---------------------------------------------------------------------------
     1   8 O    2.029 --     2 C    1.713     4 N    0.168
     2   6 C    3.947 --     1 O    1.713     4 N    1.199     3 C    0.978
     3   6 C    3.993 --    13 H    0.983     2 C    0.978    12 H    0.972
                            14 H    0.971
     4   7 N    3.488 --     2 C    1.199     5 C    1.067    15 H    0.937
                             1 O    0.168
     5   6 C    3.961 --    11 C    1.374     6 C    1.361     4 N    1.067
     6   6 C    3.989 --     7 C    1.469     5 C    1.361    16 H    0.967
                            10 C    0.102
     7   6 C    3.988 --     6 C    1.469     8 C    1.356    17 H    0.968
                            11 C    0.105
     8   6 C    3.939 --    10 C    1.374     7 C    1.356     9 O    1.068
     9   8 O    2.111 --     8 C    1.068    18 H    0.889
    10   6 C    3.988 --    11 C    1.451     8 C    1.374    19 H    0.966
                             6 C    0.102
    11   6 C    3.986 --    10 C    1.451     5 C    1.374    20 H    0.959
                             7 C    0.105
    12   1 H    0.997 --     3 C    0.972
    13   1 H    0.994 --     3 C    0.983
    14   1 H    0.996 --     3 C    0.971
    15   1 H    0.969 --     4 N    0.937
    16   1 H    0.999 --     6 C    0.967
    17   1 H    0.997 --     7 C    0.968
    18   1 H    0.910 --     9 O    0.889
    19   1 H    0.998 --    10 C    0.966
    20   1 H    0.994 --    11 C    0.959
 ---------------------------------------------------------------------------

Topologies differ in total number of bonds
Writing topology from bond orders to xtbtopo.mol

molecular dipole:
                 x           y           z       tot (Debye)
 q only:       -0.107      -0.141      -0.831
   full:       -0.229      -0.146      -0.966       2.551
molecular quadrupole (traceless):
                xx          xy          yy          xz          yz          zz
 q only:        5.180       1.525      -2.567      13.197      -2.557      -2.613
  q+dip:        5.904       1.850      -5.073      17.538      -2.376      -0.831
   full:        5.363       2.442      -2.831      17.592      -3.329      -2.533


           -------------------------------------------------
          | TOTAL ENERGY              -32.783631078431 Eh   |
          | GRADIENT NORM               0.000346661760 Eh/α |
          | HOMO-LUMO GAP               3.749803328073 eV   |
           -------------------------------------------------

------------------------------------------------------------------------
 * finished run on 2025/05/15 at 16:29:28.149     
------------------------------------------------------------------------
 total:
 * wall-time:     0 d,  0 h,  0 min,  0.018 sec
 *  cpu-time:     0 d,  0 h,  0 min,  0.017 sec
 * ratio c/w:     0.945 speedup
 SCF:
 * wall-time:     0 d,  0 h,  0 min,  0.011 sec
 *  cpu-time:     0 d,  0 h,  0 min,  0.011 sec
 * ratio c/w:     0.992 speedup



----- FOD -----
      -----------------------------------------------------------      
     |                   =====================                   |     
     |                           x T B                           |     
     |                   =====================                   |     
     |                         S. Grimme                         |     
     |          Mulliken Center for Theoretical Chemistry        |     
     |                    University of Bonn                     |     
      -----------------------------------------------------------      

   * xtb version 6.7.1 (edcfbbe) compiled by 'conda@3ef47c1a292c' on 2024-11-25

   xtb is free software: you can redistribute it and/or modify it under
   the terms of the GNU Lesser General Public License as published by
   the Free Software Foundation, either version 3 of the License, or
   (at your option) any later version.
   
   xtb is distributed in the hope that it will be useful,
   but WITHOUT ANY WARRANTY; without even the implied warranty of
   MERCHANTABILITY or FITNESS FOR A PARTICULAR PURPOSE.  See the
   GNU Lesser General Public License for more details.
   
   Cite this work as:
   * C. Bannwarth, E. Caldeweyher, S. Ehlert, A. Hansen, P. Pracht,
     J. Seibert, S. Spicher, S. Grimme, WIREs Comput. Mol. Sci., 2020, 11,
     e01493. DOI: 10.1002/wcms.1493
   
   for GFN2-xTB:
   * C. Bannwarth, S. Ehlert and S. Grimme., J. Chem. Theory Comput., 2019,
     15, 1652-1671. DOI: 10.1021/acs.jctc.8b01176
   for GFN1-xTB:
   * S. Grimme, C. Bannwarth, P. Shushkov, J. Chem. Theory Comput., 2017,
     13, 1989-2009. DOI: 10.1021/acs.jctc.7b00118
   for GFN0-xTB:
   * P. Pracht, E. Caldeweyher, S. Ehlert, S. Grimme, ChemRxiv, 2019, preprint.
     DOI: 10.26434/chemrxiv.8326202.v1
   for GFN-FF:
   * S. Spicher and S. Grimme, Angew. Chem. Int. Ed., 2020, 59, 15665-15673.
     DOI: 10.1002/anie.202004239
   
   for ALPB and GBSA implicit solvation:
   * S. Ehlert, M. Stahn, S. Spicher, S. Grimme, J. Chem. Theory Comput.,
     2021, 17, 4250-4261. DOI: 10.1021/acs.jctc.1c00471
   
   for ddCOSMO and CPCM-X implicit solvation:
   * M. Stahn, S. Ehlert, S. Grimme, J. Phys. Chem. A,
     2023, XX, XXXX-XXXX. DOI: 10.1021/acs.jpca.3c04382
   
   for DFT-D4:
   * E. Caldeweyher, C. Bannwarth and S. Grimme, J. Chem. Phys., 2017,
     147, 034112. DOI: 10.1063/1.4993215
   * E. Caldeweyher, S. Ehlert, A. Hansen, H. Neugebauer, S. Spicher,
     C. Bannwarth and S. Grimme, J. Chem. Phys., 2019, 150, 154122.
     DOI: 10.1063/1.5090222
   * E. Caldeweyher, J.-M. Mewes, S. Ehlert and S. Grimme, Phys. Chem. Chem. Phys.
     2020, 22, 8499-8512. DOI: 10.1039/D0CP00502A
   
   for sTDA-xTB:
   * S. Grimme and C. Bannwarth, J. Chem. Phys., 2016, 145, 054103.
     DOI: 10.1063/1.4959605
   
   in the mass-spec context:
   * V. Asgeirsson, C. Bauer and S. Grimme, Chem. Sci., 2017, 8, 4879.
     DOI: 10.1039/c7sc00601b
   * J. Koopman and S. Grimme, ACS Omega 2019, 4, 12, 15120-15133.
     DOI: 10.1021/acsomega.9b02011
   
   for metadynamics refer to:
   * S. Grimme, J. Chem. Theory Comput., 2019, 155, 2847-2862
     DOI: 10.1021/acs.jctc.9b00143
   
   for SPH calculations refer to:
   * S. Spicher and S. Grimme, J. Chem. Theory Comput., 2021, 17, 1701-1714
     DOI: 10.1021/acs.jctc.0c01306
   
   for ONIOM refer to:
   * C. Plett, A. Katbashev, S. Ehlert, S. Grimme, M. Bursch,
     Phys. Chem. Chem. Phys., 2023, 25, 17860-17868. DOI: 10.1039/D3CP02178E
   
   for DIPRO refer to:
   * J. Kohn, N. Gildemeister, S. Grimme, D. Fazzi, A. Hansen,
     J. Chem. Phys., 2023, just accepted.
   
   for PTB refer to:
   * S. Grimme, M. Mueller, A. Hansen, J. Chem. Phys., 2023, 158, 124111.
     DOI: 10.1063/5.0137838
   
   with help from (in alphabetical order)
   P. Atkinson, C. Bannwarth, F. Bohle, G. Brandenburg, E. Caldeweyher
   M. Checinski, S. Dohm, S. Ehlert, S. Ehrlich, I. Gerasimov, C. Hölzer
   A. Katbashev, J. Kohn, J. Koopman, C. Lavigne, S. Lehtola, F. März, M. Müller,
   F. Musil, H. Neugebauer, J. Pisarek, C. Plett, P. Pracht, F. Pultar,
   J. Seibert, P. Shushkov, S. Spicher, M. Stahn, M. Steiner, T. Strunk,
   J. Stückrath, T. Rose, and J. Unsleber
   
 * started run on 2025/05/15 at 16:29:28.501     
   ID    Z sym.   atoms
    1    8 O      1, 9
    2    6 C      2, 3, 5-8, 10, 11
    3    7 N      4
    4    1 H      12-20

           -------------------------------------------------
          |                Calculation Setup                |
           -------------------------------------------------

          program call               : xtb /rds/general/user/hgt20/home/callum/QDESCP/Paracetamol_rdkit_conf_1/Paracetamol_rdkit_conf_1.xyz --fod --gfn 2 --chrg 0 --acc 1 --uhf 0 --etemp 300 -P 1
          hostname                   : login-c
          coordinate file            : /rds/general/user/hgt20/home/callum/QDESCP/Paracetamol_rdkit_conf_1/Paracetamol_rdkit_conf_1.xyz
          omp threads                :                     1


           -------------------------------------------------
          |                 G F N 2 - x T B                 |
           -------------------------------------------------

        Reference                      10.1021/acs.jctc.8b01176
      * Hamiltonian:
        H0-scaling (s, p, d)           1.850000    2.230000    2.230000
        zeta-weighting                 0.500000
      * Dispersion:
        s8                             2.700000
        a1                             0.520000
        a2                             5.000000
        s9                             5.000000
      * Repulsion:
        kExp                           1.500000    1.000000
        rExp                           1.000000
      * Coulomb:
        alpha                          2.000000
        third order                    shell-resolved
        anisotropic                    true
        a3                             3.000000
        a5                             4.000000
        cn-shift                       1.200000
        cn-exp                         4.000000
        max-rad                        5.000000


          ...................................................
          :                      SETUP                      :
          :.................................................:
          :  # basis functions                  53          :
          :  # atomic orbitals                  53          :
          :  # shells                           31          :
          :  # electrons                        58          :
          :  max. iterations                   250          :
          :  Hamiltonian                  GFN2-xTB          :
          :  restarted?                      false          :
          :  GBSA solvation                  false          :
          :  PC potential                    false          :
          :  electronic temp.         5000.0000000     K    :
          :  accuracy                    1.0000000          :
          :  -> integral cutoff          0.2500000E+02      :
          :  -> integral neglect         0.1000000E-07      :
          :  -> SCF convergence          0.1000000E-05 Eh   :
          :  -> wf. convergence          0.1000000E-03 e    :
          :  Broyden damping             0.4000000          :
[...]
  q+dip:        7.721       2.018      -5.933      20.592      -2.985      -1.788
   full:        7.174       2.609      -3.694      20.641      -3.934      -3.480


           -------------------------------------------------
          | TOTAL ENERGY              -32.799445204393 Eh   |
          | GRADIENT NORM               0.032284736308 Eh/α |
          | HOMO-LUMO GAP               3.678242768822 eV   |
           -------------------------------------------------

------------------------------------------------------------------------
 * finished run on 2025/05/15 at 16:29:29.036     
------------------------------------------------------------------------
 total:
 * wall-time:     0 d,  0 h,  0 min,  0.024 sec
 *  cpu-time:     0 d,  0 h,  0 min,  0.022 sec
 * ratio c/w:     0.948 speedup
 SCF:
 * wall-time:     0 d,  0 h,  0 min,  0.016 sec
 *  cpu-time:     0 d,  0 h,  0 min,  0.016 sec
 * ratio c/w:     0.994 speedup



----- Triplet -----
      -----------------------------------------------------------      
     |                   =====================                   |     
     |                           x T B                           |     
     |                   =====================                   |     
     |                         S. Grimme                         |     
     |          Mulliken Center for Theoretical Chemistry        |     
     |                    University of Bonn                     |     
      -----------------------------------------------------------      

   * xtb version 6.7.1 (edcfbbe) compiled by 'conda@3ef47c1a292c' on 2024-11-25

   xtb is free software: you can redistribute it and/or modify it under
   the terms of the GNU Lesser General Public License as published by
   the Free Software Foundation, either version 3 of the License, or
   (at your option) any later version.
   
   xtb is distributed in the hope that it will be useful,
   but WITHOUT ANY WARRANTY; without even the implied warranty of
   MERCHANTABILITY or FITNESS FOR A PARTICULAR PURPOSE.  See the
   GNU Lesser General Public License for more details.
   
   Cite this work as:
   * C. Bannwarth, E. Caldeweyher, S. Ehlert, A. Hansen, P. Pracht,
     J. Seibert, S. Spicher, S. Grimme, WIREs Comput. Mol. Sci., 2020, 11,
     e01493. DOI: 10.1002/wcms.1493
   
   for GFN2-xTB:
   * C. Bannwarth, S. Ehlert and S. Grimme., J. Chem. Theory Comput., 2019,
     15, 1652-1671. DOI: 10.1021/acs.jctc.8b01176
   for GFN1-xTB:
   * S. Grimme, C. Bannwarth, P. Shushkov, J. Chem. Theory Comput., 2017,
     13, 1989-2009. DOI: 10.1021/acs.jctc.7b00118
   for GFN0-xTB:
   * P. Pracht, E. Caldeweyher, S. Ehlert, S. Grimme, ChemRxiv, 2019, preprint.
     DOI: 10.26434/chemrxiv.8326202.v1
   for GFN-FF:
   * S. Spicher and S. Grimme, Angew. Chem. Int. Ed., 2020, 59, 15665-15673.
     DOI: 10.1002/anie.202004239
   
   for ALPB and GBSA implicit solvation:
   * S. Ehlert, M. Stahn, S. Spicher, S. Grimme, J. Chem. Theory Comput.,
     2021, 17, 4250-4261. DOI: 10.1021/acs.jctc.1c00471
   
   for ddCOSMO and CPCM-X implicit solvation:
   * M. Stahn, S. Ehlert, S. Grimme, J. Phys. Chem. A,
     2023, XX, XXXX-XXXX. DOI: 10.1021/acs.jpca.3c04382
   
   for DFT-D4:
   * E. Caldeweyher, C. Bannwarth and S. Grimme, J. Chem. Phys., 2017,
     147, 034112. DOI: 10.1063/1.4993215
   * E. Caldeweyher, S. Ehlert, A. Hansen, H. Neugebauer, S. Spicher,
     C. Bannwarth and S. Grimme, J. Chem. Phys., 2019, 150, 154122.
     DOI: 10.1063/1.5090222
   * E. Caldeweyher, J.-M. Mewes, S. Ehlert and S. Grimme, Phys. Chem. Chem. Phys.
     2020, 22, 8499-8512. DOI: 10.1039/D0CP00502A
   
   for sTDA-xTB:
   * S. Grimme and C. Bannwarth, J. Chem. Phys., 2016, 145, 054103.
     DOI: 10.1063/1.4959605
   
   in the mass-spec context:
   * V. Asgeirsson, C. Bauer and S. Grimme, Chem. Sci., 2017, 8, 4879.
     DOI: 10.1039/c7sc00601b
   * J. Koopman and S. Grimme, ACS Omega 2019, 4, 12, 15120-15133.
     DOI: 10.1021/acsomega.9b02011
   
   for metadynamics refer to:
   * S. Grimme, J. Chem. Theory Comput., 2019, 155, 2847-2862
     DOI: 10.1021/acs.jctc.9b00143
   
   for SPH calculations refer to:
   * S. Spicher and S. Grimme, J. Chem. Theory Comput., 2021, 17, 1701-1714
     DOI: 10.1021/acs.jctc.0c01306
   
   for ONIOM refer to:
   * C. Plett, A. Katbashev, S. Ehlert, S. Grimme, M. Bursch,
     Phys. Chem. Chem. Phys., 2023, 25, 17860-17868. DOI: 10.1039/D3CP02178E
   
   for DIPRO refer to:
   * J. Kohn, N. Gildemeister, S. Grimme, D. Fazzi, A. Hansen,
     J. Chem. Phys., 2023, just accepted.
   
   for PTB refer to:
   * S. Grimme, M. Mueller, A. Hansen, J. Chem. Phys., 2023, 158, 124111.
     DOI: 10.1063/5.0137838
   
   with help from (in alphabetical order)
   P. Atkinson, C. Bannwarth, F. Bohle, G. Brandenburg, E. Caldeweyher
   M. Checinski, S. Dohm, S. Ehlert, S. Ehrlich, I. Gerasimov, C. Hölzer
   A. Katbashev, J. Kohn, J. Koopman, C. Lavigne, S. Lehtola, F. März, M. Müller,
   F. Musil, H. Neugebauer, J. Pisarek, C. Plett, P. Pracht, F. Pultar,
   J. Seibert, P. Shushkov, S. Spicher, M. Stahn, M. Steiner, T. Strunk,
   J. Stückrath, T. Rose, and J. Unsleber
   
 * started run on 2025/05/15 at 16:29:29.091     
   ID    Z sym.   atoms
    1    8 O      1, 9
    2    6 C      2, 3, 5-8, 10, 11
    3    7 N      4
    4    1 H      12-20

           -------------------------------------------------
          |                Calculation Setup                |
           -------------------------------------------------

          program call               : xtb /rds/general/user/hgt20/home/callum/QDESCP/Paracetamol_rdkit_conf_1/Paracetamol_rdkit_conf_1.xyz --acc 1 --gfn 2 --chrg 0 --uhf 2 --etemp 300 --input /rds/general/user/hgt20/home/callum/QDESCP/Paracetamol_rdkit_conf_1/Paracetamol_rdkit_conf_1_xtb.inp -P 1
          hostname                   : login-c
          coordinate file            : /rds/general/user/hgt20/home/callum/QDESCP/Paracetamol_rdkit_conf_1/Paracetamol_rdkit_conf_1.xyz
          omp threads                :                     1


           -------------------------------------------------
          |                 G F N 2 - x T B                 |
           -------------------------------------------------

        Reference                      10.1021/acs.jctc.8b01176
      * Hamiltonian:
        H0-scaling (s, p, d)           1.850000    2.230000    2.230000
        zeta-weighting                 0.500000
      * Dispersion:
        s8                             2.700000
        a1                             0.520000
        a2                             5.000000
        s9                             5.000000
      * Repulsion:
        kExp                           1.500000    1.000000
        rExp                           1.000000
      * Coulomb:
        alpha                          2.000000
        third order                    shell-resolved
        anisotropic                    true
        a3                             3.000000
        a5                             4.000000
        cn-shift                       1.200000
        cn-exp                         4.000000
        max-rad                        5.000000


          ...................................................
          :                      SETUP                      :
          :.................................................:
          :  # basis functions                  53          :
          :  # atomic orbitals                  53          :
          :  # shells                           31          :
          :  # electrons                        58          :
          :  max. iterations                   250          :
          :  Hamiltonian                  GFN2-xTB          :
          :  restarted?                      false          :
          :  GBSA solvation                  false          :
          :  PC potential                    false          :
          :  electronic temp.          300.0000000     K    :
          :  accuracy                    1.0000000          :
          :  -> integral cutoff          0.2500000E+02      :
          :  -> integral neglect         0.1000000E-07      :
          :  -> SCF convergence          0.1000000E-05 Eh   :
          :  -> wf. convergence          0.1000000E-03 e    :
          :  Broyden damping             0.4000000          :
          :  net charge                          0          :
          :  unpaired electrons                  2          :
          ...................................................

 iter      E             dE          RMSdq      gap      omega  full diag
   1    -32.9370831 -0.329371E+02  0.432E+00    0.30       0.0  T
   2    -32.8388244  0.982586E-01  0.429E+00    1.55       1.0  T
   3    -32.8771874 -0.383630E-01  0.279E+00    0.01       1.0  T
   4    -32.9177578 -0.405704E-01  0.305E+00    1.29       1.0  T
   5    -33.0333619 -0.115604E+00  0.193E+00    0.59       1.0  T
   6    -33.0496515 -0.162897E-01  0.143E+00    0.39       1.0  T
   7    -33.0822438 -0.325923E-01  0.105E+00    0.17       1.0  T
   8    -33.0976403 -0.153965E-01  0.693E-01    0.08       1.0  T
   9    -33.0929432  0.469709E-02  0.711E-01    0.15       1.0  T
  10    -33.1017904 -0.884718E-02  0.296E-01    0.08       1.0  T
  11    -33.1028357 -0.104532E-02  0.272E-01    0.04       1.0  T
  12    -33.1031253 -0.289587E-03  0.135E-01    0.07       1.0  T
  13    -33.1031299 -0.460431E-05  0.171E-01    0.04       1.0  T
  14    -33.1035087 -0.378784E-03  0.353E-02    0.06       1.0  T
  15    -33.1034347  0.739950E-04  0.794E-02    0.05       1.0  T
  16    -33.1035316 -0.968624E-04  0.130E-02    0.06       1.7  T
  17    -33.1035338 -0.219941E-05  0.175E-03    0.06      12.8  T
  18    -33.1035338 -0.551394E-07  0.557E-04    0.06      40.1  T
  19    -33.1035338  0.191044E-09  0.597E-04    0.06      37.5  T

   *** convergence criteria satisfied after 19 iterations ***

         #    Occupation            Energy/Eh            Energy/eV
      -------------------------------------------------------------
         1        2.0000           -0.7269755             -19.7820
       ...           ...                  ...                  ...
        24        2.0000           -0.4624408             -12.5837
        25        2.0000           -0.4379590             -11.9175
        26        2.0000           -0.4305916             -11.7170
        27        2.0000           -0.4090044             -11.1296
        28        1.9887           -0.3858616             -10.4998
        29        1.0113           -0.3773586             -10.2685
        30        0.7514           -0.2288939              -6.2285 (HOMO)
        31        0.2486           -0.2267919              -6.1713 (LUMO)
        32                         -0.1842189              -5.0129
        33                         -0.0880432              -2.3958
        34                          0.0043233               0.1176
        35                          0.0617385               1.6800
       ...                                ...                  ...
        53                          0.6826285              18.5753
      -------------------------------------------------------------
                  HL-Gap            0.0021020 Eh            0.0572 eV
             Fermi-level           -0.3047265 Eh           -8.2920 eV

 transition dipole moment (au) for excitation:          29          30
     X       Y       Z   
   1.8185  -0.4325  -0.4415  total (au/Debye):    1.921   4.882
 dE (eV)             :    4.040
 oscillator strength :  0.51636E+00

 SCC (total)                   0 d,  0 h,  0 min,  0.022 sec
 SCC setup                      ...        0 min,  0.000 sec (  0.718%)
 Dispersion                     ...        0 min,  0.000 sec (  0.550%)
 classical contributions        ...        0 min,  0.000 sec (  0.192%)
 integral evaluation            ...        0 min,  0.002 sec ( 10.442%)
 iterations                     ...        0 min,  0.011 sec ( 50.711%)
 molecular gradient             ...        0 min,  0.006 sec ( 27.045%)
 printout                       ...        0 min,  0.002 sec ( 10.311%)

         :::::::::::::::::::::::::::::::::::::::::::::::::::::
         ::                     SUMMARY                     ::
         :::::::::::::::::::::::::::::::::::::::::::::::::::::
         :: total energy             -32.639939337828 Eh    ::
         :: gradient norm              0.130921218233 Eh/a0 ::
         :: HOMO-LUMO gap              0.057199413560 eV    ::
         ::.................................................::
         :: SCC energy               -33.103578498192 Eh    ::
         :: -> isotropic ES            0.055814939923 Eh    ::
         :: -> anisotropic ES          0.004093610697 Eh    ::
         :: -> anisotropic XC          0.008823675935 Eh    ::
         :: -> dispersion             -0.016050806220 Eh    ::
         :: repulsion energy           0.463639160364 Eh    ::
         :: add. restraining           0.000000000000 Eh    ::
         :: total charge               0.000000000000 e     ::
         :::::::::::::::::::::::::::::::::::::::::::::::::::::

           -------------------------------------------------
          |                Property Printout                |
           -------------------------------------------------

    * Orbital Energies and Occupations

         #    Occupation            Energy/Eh            Energy/eV
      -------------------------------------------------------------
         1        2.0000           -0.7269755             -19.7820
       ...           ...                  ...                  ...
        18        2.0000           -0.4925781             -13.4037
        19        2.0000           -0.4907484             -13.3539
        20        2.0000           -0.4825368             -13.1305
        21        2.0000           -0.4800158             -13.0619
        22        2.0000           -0.4730597             -12.8726
        23        2.0000           -0.4682326             -12.7413
        24        2.0000           -0.4624408             -12.5837
        25        2.0000           -0.4379590             -11.9175
        26        2.0000           -0.4305916             -11.7170
        27        2.0000           -0.4090044             -11.1296
        28        1.9887           -0.3858616             -10.4998
        29        1.0113           -0.3773586             -10.2685
        30        0.7514           -0.2288939              -6.2285 (HOMO)
        31        0.2486           -0.2267919              -6.1713 (LUMO)
        32                         -0.1842189              -5.0129
        33                         -0.0880432              -2.3958
        34                          0.0043233               0.1176
        35                          0.0617385               1.6800
        36                          0.0847378               2.3058
        37                          0.1244254               3.3858
        38                          0.1512958               4.1170
        39                          0.1557352               4.2378
        40                          0.1655337               4.5044
        41                          0.1828403               4.9753
       ...                                ...                  ...
        53                          0.6826285              18.5753
      -------------------------------------------------------------
                  HL-Gap            0.0021020 Eh            0.0572 eV
             Fermi-level           -0.3047265 Eh           -8.2920 eV

     #   Z          covCN         q      C6AA      α(0)
     1   8 O        0.858    -0.428    22.250     6.324
     2   6 C        2.745     0.243    22.931     7.841
     3   6 C        3.758    -0.142    23.284     6.880
     4   7 N        2.697    -0.121    23.643     7.222
     5   6 C        2.904     0.070    26.423     8.429
     6   6 C        2.926    -0.069    29.718     8.940
     7   6 C        2.919    -0.055    29.369     8.887
     8   6 C        2.845     0.143    24.886     8.176
     9   8 O        1.659    -0.357    20.036     6.043
    10   6 C        2.920    -0.077    29.922     8.970
    11   6 C        2.920    -0.050    29.241     8.868
    12   1 H        0.925     0.045     2.383     2.414
    13   1 H        0.925     0.069     2.100     2.266
    14   1 H        0.925     0.046     2.368     2.406
    15   1 H        0.860     0.184     1.191     1.710
    16   1 H        0.925     0.027     2.629     2.535
    17   1 H        0.926     0.050     2.319     2.381
    18   1 H        0.805     0.311     0.690     1.304
    19   1 H        0.925     0.030     2.583     2.513
    20   1 H        0.926     0.081     1.966     2.193

 Mol. C6AA /au·bohr⁶  :       4623.787002
 Mol. C8AA /au·bohr⁸  :     109163.373048
 Mol. α(0) /au        :        106.301185


Wiberg/Mayer (AO) data.
largest (>0.10) Wiberg bond orders for each atom

 ---------------------------------------------------------------------------
     #   Z sym  total        # sym  WBO       # sym  WBO       # sym  WBO
 ---------------------------------------------------------------------------
     1   8 O    1.918 --     2 C    1.621
     2   6 C    3.847 --     1 O    1.621     4 N    1.106     3 C    0.975
     3   6 C    3.990 --    13 H    0.984     2 C    0.975    12 H    0.973
                            14 H    0.972
     4   7 N    3.533 --     5 C    1.224     2 C    1.106    15 H    0.933
     5   6 C    3.776 --     4 N    1.224    11 C    1.169     6 C    1.142
     6   6 C    3.814 --     7 C    1.532     5 C    1.142    16 H    0.967
     7   6 C    3.846 --     6 C    1.532     8 C    1.198    17 H    0.968
     8   6 C    3.737 --     7 C    1.198    10 C    1.188     9 O    1.140
     9   8 O    2.146 --     8 C    1.140    18 H    0.882
    10   6 C    3.852 --    11 C    1.526     8 C    1.188    19 H    0.966
    11   6 C    3.823 --    10 C    1.526     5 C    1.169    20 H    0.958
    12   1 H    0.993 --     3 C    0.973
    13   1 H    0.995 --     3 C    0.984
    14   1 H    0.993 --     3 C    0.972
    15   1 H    0.966 --     4 N    0.933
    16   1 H    0.999 --     6 C    0.967
    17   1 H    0.997 --     7 C    0.968
    18   1 H    0.903 --     9 O    0.882
    19   1 H    0.999 --    10 C    0.966
    20   1 H    0.993 --    11 C    0.958
 ---------------------------------------------------------------------------

Topologies differ in total number of bonds
Writing topology from bond orders to xtbtopo.mol

molecular dipole:
                 x           y           z       tot (Debye)
 q only:        0.407      -0.248      -0.895
   full:        0.333      -0.267      -1.057       2.897
molecular quadrupole (traceless):
                xx          xy          yy          xz          yz          zz
 q only:        6.462       1.367      -2.944      13.975      -2.823      -3.518
  q+dip:        8.158       1.595      -5.290      18.561      -2.986      -2.868
   full:        7.282       2.203      -3.183      18.545      -3.785      -4.098


           -------------------------------------------------
          | TOTAL ENERGY              -32.639939337828 Eh   |
          | GRADIENT NORM               0.130921218233 Eh/α |
          | HOMO-LUMO GAP               0.057199413560 eV   |
           -------------------------------------------------

------------------------------------------------------------------------
 * finished run on 2025/05/15 at 16:29:29.120     
------------------------------------------------------------------------
 total:
 * wall-time:     0 d,  0 h,  0 min,  0.029 sec
 *  cpu-time:     0 d,  0 h,  0 min,  0.028 sec
 * ratio c/w:     0.955 speedup
 SCF:
 * wall-time:     0 d,  0 h,  0 min,  0.022 sec
 *  cpu-time:     0 d,  0 h,  0 min,  0.022 sec
 * ratio c/w:     0.995 speedup


