49
 energy: -69.210977845680 gnorm: 0.000208837649 xtb: 6.7.1 (edcfbbe)
C            0.57401501757143       -2.84513048597085       -0.54208428115589
C            0.82002871463248       -1.49596943797569        0.12668394735173
N            2.22301114791764       -1.17620912571861       -0.01915861945258
C            2.92236637553775       -0.29461009767457        0.74083365520829
C            2.39689549816880        0.29916819424162        1.88099625793786
C            3.18767501747459        1.16091429828427        2.63797873150873
N            4.42417308805088        1.47835940674027        2.35736428559500
C            4.97594546688305        0.92599488529350        1.26052034279127
C            4.27967613049572        0.02555467758174        0.40544071640740
C            4.96458904717667       -0.49555425121269       -0.70842850381688
C            6.26152574623497       -0.15155024798507       -0.97735929504427
C            6.93151309961297        0.73939986250065       -0.12821373580661
Cl           8.56971290818114        1.15715938826352       -0.49110922039686
C            6.31221833551755        1.27037017787193        0.96733740573643
C           -0.06094303228589       -0.38201845447690       -0.46716311330545
C           -1.53225856527203       -0.51506097722593       -0.08931303989828
C           -2.35416133205756        0.65033865518111       -0.66334730420630
N           -3.76004742796638        0.67745798084361       -0.30551078500877
C           -4.54794930963254       -0.43915202267934       -0.80710499051869
C           -4.59439834260631       -0.48842192093346       -2.33013349385363
C           -4.00532745767933        0.93860498416560        1.10622003034938
C           -5.25460601422140        1.81882440775350        1.24840316908057
O           -5.15148625747385        2.95818075355951        0.43705361336018
H           -0.44188220885212       -3.18272399207319       -0.36196043422076
H            1.25741473015874       -3.58939015651871       -0.14014858660152
H            0.72884306257959       -2.77234126325052       -1.61716226596749
H            0.60496572345116       -1.59170051197279        1.19667466180381
H            2.61825109069225       -1.41872908698335       -0.91289471955148
H            1.38369001893357        0.10941778991031        2.19411798335627
H            2.77607336731354        1.62376450402840        3.52639655757785
H            4.47674144033753       -1.19095829750156       -1.37678504320984
H            6.77529065350176       -0.55863368800603       -1.83386157852136
H            6.81415111246958        1.95414324353395        1.63197359079279
H            0.31380945123250        0.57928349376257       -0.10655741170670
H            0.04093742853402       -0.38794956744688       -1.55532890102944
H           -1.92667537195120       -1.45671155636149       -0.47258485933650
H           -1.62946135477158       -0.52501410745614        0.99878775591789
H           -2.28640360540029        0.63392496439758       -1.75327847528265
H           -1.91680279662831        1.59468758549998       -0.32508587664646
H           -4.18944794103256       -1.40590256272342       -0.41451691447483
H           -5.56647140476313       -0.29928975003142       -0.43813249372878
H           -5.35523658417262       -1.19782067378629       -2.64590431965312
H           -4.84590000169146        0.49148277342081       -2.72762683012537
H           -3.64371402260161       -0.80414478087303       -2.75161406688233
H           -3.15497919807704        1.49490793265713        1.50545156829935
H           -4.12920855482779        0.01828540175897        1.69674612411854
H           -6.15715753842223        1.24655146592248        0.98475509697461
H           -5.35910324079308        2.16402120783206        2.27951781567149
H           -4.76979210948601        2.65418898184757       -0.39978415042716
