41
 energy: -72.629216863366 gnorm: 0.000420590960 xtb: 6.7.1 (edcfbbe)
C           -1.32718719465200        1.70267631111265        1.27863873564725
C           -0.26338482661446        0.81049425800632        0.74258849760506
C            1.03283066575492        1.14892876058705        0.49050437525506
C            1.74114763789009       -0.04912131247333        0.14281817687620
C            0.81312925603858       -1.10571650857332        0.23863206128978
N           -0.43035156095585       -0.56267937581672        0.56608243845936
C           -1.59877559637369       -1.30836394592866        0.60129460558552
C           -2.84429478648074       -0.60479560040358        0.19495081181174
C           -4.04101410151533       -0.92287068055685        0.83146360977396
C           -5.22731377103233       -0.34645638224658        0.42188338265591
C           -5.21819170957698        0.53084952917555       -0.65289644773492
Cl          -6.69690505683195        1.25373792258394       -1.17285386023654
C           -4.03950188816914        0.82906722332780       -1.32102196502839
C           -2.85318889008984        0.26273795083771       -0.89517890095373
O           -1.59350573244738       -2.48770160782929        0.87956142926871
C            1.18253804968769       -2.40951709932817       -0.02799572009716
C            2.49798597384458       -2.65773958934375       -0.37891664032033
C            3.43248070902810       -1.62160195971325       -0.47226345338575
O            4.74408674339869       -1.79657520094680       -0.81115899509074
C            5.20764492383256       -3.09737042404481       -1.07519645064374
C            3.05475068912822       -0.30800689773882       -0.21531585481958
C            1.60274109344388        2.52652042251546        0.50938762037958
C            1.09166149483426        3.34488708289010       -0.65738298504210
O            1.91492609531446        4.36171536051529       -0.93810171010883
O            0.07656034599758        3.14573673595303       -1.26697465743794
H           -2.07047724817107        1.14084734269214        1.83819179409460
H           -0.87225756968752        2.43682737870531        1.94227762479826
H           -1.82810938118160        2.24548853100918        0.47860715646392
H           -4.02676329344509       -1.62147828945821        1.65432135639808
H           -6.15388610770507       -0.57789884050861        0.92299168289008
H           -4.05170879283718        1.49939721071891       -2.16577389060047
H           -1.93627447717890        0.48913172283100       -1.41859824579501
H            0.47219925975900       -3.21643469903171        0.04548523212998
H            2.79106672904971       -3.67576570903288       -0.57770177881680
H            5.10252692712855       -3.74834199879390       -0.20106433053463
H            6.26416075768730       -2.98884013795978       -1.31619942984736
H            4.68820449011034       -3.54660586027792       -1.92798291772858
H            3.79121577692050        0.47418088983555       -0.30408725906607
H            2.69102345781350        2.50421952031060        0.47011424354280
H            1.30810958847940        3.06000858883432        1.41864817750000
H            1.57220131980048        4.88672937756845       -1.67877751913958
