38
 energy: -65.469522630907 gnorm: 0.000764740838 xtb: 6.7.1 (edcfbbe)
O            2.92652948582200       -2.79072649909066        1.24950094932641
C            3.03229787018731       -2.20954365853737       -0.02592641354465
C            2.38429795923108       -0.82407420543379       -0.00872073950244
O            0.99230269672182       -1.00229782148991        0.13667132620786
C            0.27618025504116        0.20174381566297        0.20015753472590
C            0.72670322140850        1.07138899618586        1.38473306816138
C            2.21922528334807        1.35685690786551        1.23913114183747
C            2.98710946440646        0.03729648064353        1.10967778251548
O            4.33344535142777        0.27913649973039        0.78772279364301
O            2.72884910778777        2.05733205986359        2.34803519615666
O            0.03526140192521        2.29266588169414        1.40868489353554
O           -1.07043111764110       -0.05180851570128        0.41335008074466
C           -1.88120741475172       -0.30903877426498       -0.66073617684017
C           -1.45658064725998       -0.94978750292588       -1.81424339971952
C           -2.35637629351126       -1.17613411701237       -2.84238132331505
C           -3.67230116131462       -0.76759134433905       -2.72327241768090
C           -4.09207039365120       -0.11973845456266       -1.57258645125843
C           -3.20850210521546        0.12006738311024       -0.53387999226884
C           -3.61183770103324        0.86844724803767        0.71195655276598
O           -2.85777615274200        2.05418420554337        0.90399369136706
H            3.28240779629075       -3.68412737013618        1.21196834454413
H            2.51601822479093       -2.82018983515667       -0.77813875988551
H            4.08390539795983       -2.08018779072262       -0.31306740280310
H            2.59655777282466       -0.32568893298340       -0.97077029978474
H            0.42161171351806        0.77328103194397       -0.74271862003487
H            0.54875674507177        0.49832912025030        2.30754253808504
H            2.37053436525867        1.95422788985159        0.32306535492821
H            2.90491977768525       -0.51132251491082        2.05818054699120
H            4.66020274067243        0.91807882473471        1.43362208341495
H            2.10070016772947        2.76204921727413        2.54824556662571
H           -0.92215356744915        2.11051881130642        1.38240240795968
H           -0.43444544661395       -1.28522258403897       -1.88830001412648
H           -2.02474696181693       -1.67911655490157       -3.73817085590900
H           -4.37178005951036       -0.94889319077370       -3.52496903957010
H           -5.11806674109895        0.20715181732817       -1.48093252587703
H           -4.68363037454239        1.10485824780405        0.67701321946310
H           -3.41072156742359        0.25800620896511        1.59566907981677
H           -2.95528909353433        2.60996901918583        0.12209027930506
