52
 energy: -76.357633385465 gnorm: 0.000421631741 xtb: 6.7.1 (edcfbbe)
H           -0.97615879534291        0.31032522923339        1.31209671549488
C           -0.79054837913221       -0.23027021499608        0.35543974464415
C           -1.92244433078490        0.04057088481590       -0.57843213848157
N           -2.15735856691839        1.23841751024244       -1.20654157087167
C           -3.28578984977326        1.12080816860847       -1.96963445044780
C           -3.78233704701524       -0.19876300347188       -1.81330980258875
C           -4.94122864620321       -0.57814979852309       -2.48910299905417
C           -5.56987779397319        0.34776272431924       -3.29108757725477
C           -5.06892100648176        1.64394485680387       -3.43635307207625
C           -3.92470562006937        2.04780252366425       -2.78094770815615
C           -2.89108779591992       -0.85773271577043       -0.91769070483977
C           -2.89752508248545       -2.23976271351836       -0.36059975489009
C           -2.01446348836291       -2.24706963593880        0.88911578329590
N           -0.71760587555715       -1.66654611046489        0.58759707060335
C            0.29048165609181       -1.96690673946322        1.58146352338169
C            1.66987513216617       -1.55368492328197        1.06728151727968
C            2.76954999318118       -1.90776732235243        2.06385725138385
C            4.13142333712287       -1.50621429715764        1.50673378181197
C            4.16906515920344       -0.00406334689370        1.21571194953868
C            3.03764594292153        0.38371640320631        0.24079746913228
C            1.67348514472545       -0.05078436718387        0.77774679688175
C            0.54934691501136        0.25317700469142       -0.21015227681313
H            1.49221069788126        0.49248900481942        1.70977210533510
C            3.17938095829401        1.87947801801314        0.02304849204820
O            2.29697949656386        2.60075311466064        0.71382144078237
C            2.44556342626465        4.01061050076622        0.63250947109188
O            4.02769382010527        2.36670195612139       -0.67902786548716
O            4.00565619552772        0.76568829473751        2.38837173555597
H            1.84858629578845       -2.08984678024249        0.12915984925325
H           -1.59258800323332        2.06542445793903       -1.12194043456812
H           -5.33266546871724       -1.57895404668893       -2.38224199889506
H           -6.46973432600439        0.07340869142321       -3.82239746330281
H           -5.59069701022805        2.34138688989897       -4.07508801095056
H           -3.53826107380801        3.05052536453086       -2.89423848166298
H           -3.91145861521575       -2.55570101980314       -0.10660058900210
H           -2.49573373837863       -2.94335641567352       -1.09512856389180
H           -2.52390838854436       -1.69695019947721        1.70097203205345
H           -1.85702484390527       -3.27486950222752        1.22428105452504
H            0.08706267885526       -1.45504188785453        2.54178696303321
H            0.28039309032541       -3.04439905415558        1.76640568868613
H            2.75588470370181       -2.97877800471601        2.27468539670057
H            2.59136291541069       -1.37442929428997        3.00008257734897
H            4.92080740187139       -1.75532188781551        2.22142652164188
H            4.33209998074690       -2.04893045444505        0.58198553373753
H            5.13066472250031        0.25337403959068        0.73963328086910
H            3.24417902055293       -0.10533956963914       -0.71615968195181
H            0.50185398958597        1.32487544873295       -0.40291622395039
H            0.73467117823257       -0.26438350320146       -1.15347386441154
H            3.42495289200409        4.30916888092994        1.01059587535850
H            1.65462588488577        4.43622829225782        1.24500550609470
H            2.35424950749980        4.34410223858759       -0.40398354831412
H            4.65217160903307        0.47337631065021        3.03996365429801
