----- Optimization -----
      -----------------------------------------------------------      
     |                   =====================                   |     
     |                           x T B                           |     
     |                   =====================                   |     
     |                         S. Grimme                         |     
     |          Mulliken Center for Theoretical Chemistry        |     
     |                    University of Bonn                     |     
      -----------------------------------------------------------      

   * xtb version 6.7.1 (edcfbbe) compiled by 'conda@3ef47c1a292c' on 2024-11-25

   xtb is free software: you can redistribute it and/or modify it under
   the terms of the GNU Lesser General Public License as published by
   the Free Software Foundation, either version 3 of the License, or
   (at your option) any later version.
   
   xtb is distributed in the hope that it will be useful,
   but WITHOUT ANY WARRANTY; without even the implied warranty of
   MERCHANTABILITY or FITNESS FOR A PARTICULAR PURPOSE.  See the
   GNU Lesser General Public License for more details.
   
   Cite this work as:
   * C. Bannwarth, E. Caldeweyher, S. Ehlert, A. Hansen, P. Pracht,
     J. Seibert, S. Spicher, S. Grimme, WIREs Comput. Mol. Sci., 2020, 11,
     e01493. DOI: 10.1002/wcms.1493
   
   for GFN2-xTB:
   * C. Bannwarth, S. Ehlert and S. Grimme., J. Chem. Theory Comput., 2019,
     15, 1652-1671. DOI: 10.1021/acs.jctc.8b01176
   for GFN1-xTB:
   * S. Grimme, C. Bannwarth, P. Shushkov, J. Chem. Theory Comput., 2017,
     13, 1989-2009. DOI: 10.1021/acs.jctc.7b00118
   for GFN0-xTB:
   * P. Pracht, E. Caldeweyher, S. Ehlert, S. Grimme, ChemRxiv, 2019, preprint.
     DOI: 10.26434/chemrxiv.8326202.v1
   for GFN-FF:
   * S. Spicher and S. Grimme, Angew. Chem. Int. Ed., 2020, 59, 15665-15673.
     DOI: 10.1002/anie.202004239
   
   for ALPB and GBSA implicit solvation:
   * S. Ehlert, M. Stahn, S. Spicher, S. Grimme, J. Chem. Theory Comput.,
     2021, 17, 4250-4261. DOI: 10.1021/acs.jctc.1c00471
   
   for ddCOSMO and CPCM-X implicit solvation:
   * M. Stahn, S. Ehlert, S. Grimme, J. Phys. Chem. A,
     2023, XX, XXXX-XXXX. DOI: 10.1021/acs.jpca.3c04382
   
   for DFT-D4:
   * E. Caldeweyher, C. Bannwarth and S. Grimme, J. Chem. Phys., 2017,
     147, 034112. DOI: 10.1063/1.4993215
   * E. Caldeweyher, S. Ehlert, A. Hansen, H. Neugebauer, S. Spicher,
     C. Bannwarth and S. Grimme, J. Chem. Phys., 2019, 150, 154122.
     DOI: 10.1063/1.5090222
   * E. Caldeweyher, J.-M. Mewes, S. Ehlert and S. Grimme, Phys. Chem. Chem. Phys.
     2020, 22, 8499-8512. DOI: 10.1039/D0CP00502A
   
   for sTDA-xTB:
   * S. Grimme and C. Bannwarth, J. Chem. Phys., 2016, 145, 054103.
     DOI: 10.1063/1.4959605
   
   in the mass-spec context:
   * V. Asgeirsson, C. Bauer and S. Grimme, Chem. Sci., 2017, 8, 4879.
     DOI: 10.1039/c7sc00601b
   * J. Koopman and S. Grimme, ACS Omega 2019, 4, 12, 15120-15133.
     DOI: 10.1021/acsomega.9b02011
   
   for metadynamics refer to:
   * S. Grimme, J. Chem. Theory Comput., 2019, 155, 2847-2862
     DOI: 10.1021/acs.jctc.9b00143
   
   for SPH calculations refer to:
   * S. Spicher and S. Grimme, J. Chem. Theory Comput., 2021, 17, 1701-1714
     DOI: 10.1021/acs.jctc.0c01306
   
   for ONIOM refer to:
   * C. Plett, A. Katbashev, S. Ehlert, S. Grimme, M. Bursch,
     Phys. Chem. Chem. Phys., 2023, 25, 17860-17868. DOI: 10.1039/D3CP02178E
   
   for DIPRO refer to:
   * J. Kohn, N. Gildemeister, S. Grimme, D. Fazzi, A. Hansen,
     J. Chem. Phys., 2023, just accepted.
   
   for PTB refer to:
   * S. Grimme, M. Mueller, A. Hansen, J. Chem. Phys., 2023, 158, 124111.
     DOI: 10.1063/5.0137838
   
   with help from (in alphabetical order)
   P. Atkinson, C. Bannwarth, F. Bohle, G. Brandenburg, E. Caldeweyher
   M. Checinski, S. Dohm, S. Ehlert, S. Ehrlich, I. Gerasimov, C. Hölzer
   A. Katbashev, J. Kohn, J. Koopman, C. Lavigne, S. Lehtola, F. März, M. Müller,
   F. Musil, H. Neugebauer, J. Pisarek, C. Plett, P. Pracht, F. Pultar,
   J. Seibert, P. Shushkov, S. Spicher, M. Stahn, M. Steiner, T. Strunk,
   J. Stückrath, T. Rose, and J. Unsleber
   
 * started run on 2025/05/15 at 16:37:35.489     
   ID    Z sym.   atoms
    1    1 H      1, 23, 29-52
    2    6 C      2, 3, 5-13, 15-22, 24, 26
    3    7 N      4, 14
    4    8 O      25, 27, 28

           -------------------------------------------------
          |                Calculation Setup                |
           -------------------------------------------------

          program call               : xtb /rds/general/user/hgt20/home/callum/QDESCP/Yohimbine_rdkit_conf_3/Yohimbine_rdkit_conf_3.xyz --opt normal --acc 1 --gfn 2 --chrg 0 --uhf 0 -P 1
          hostname                   : login-c
          coordinate file            : /rds/general/user/hgt20/home/callum/QDESCP/Yohimbine_rdkit_conf_3/Yohimbine_rdkit_conf_3.xyz
          omp threads                :                     1


           -------------------------------------------------
          |                 G F N 2 - x T B                 |
           -------------------------------------------------

        Reference                      10.1021/acs.jctc.8b01176
      * Hamiltonian:
        H0-scaling (s, p, d)           1.850000    2.230000    2.230000
        zeta-weighting                 0.500000
      * Dispersion:
        s8                             2.700000
        a1                             0.520000
        a2                             5.000000
        s9                             5.000000
      * Repulsion:
        kExp                           1.500000    1.000000
        rExp                           1.000000
      * Coulomb:
        alpha                          2.000000
        third order                    shell-resolved
        anisotropic                    true
        a3                             3.000000
        a5                             4.000000
        cn-shift                       1.200000
        cn-exp                         4.000000
        max-rad                        5.000000


          ...................................................
          :                      SETUP                      :
          :.................................................:
          :  # basis functions                 130          :
          :  # atomic orbitals                 130          :
          :  # shells                           78          :
          :  # electrons                       138          :
          :  max. iterations                   250          :
          :  Hamiltonian                  GFN2-xTB          :
          :  restarted?                      false          :
          :  GBSA solvation                  false          :
          :  PC potential                    false          :
          :  electronic temp.          300.0000000     K    :
          :  accuracy                    1.0000000          :
          :  -> integral cutoff          0.2500000E+02      :
          :  -> integral neglect         0.1000000E-07      :
          :  -> SCF convergence          0.1000000E-05 Eh   :
          :  -> wf. convergence          0.1000000E-03 e    :
          :  Broyden damping             0.4000000          :
          :  net charge                          0          :
          :  unpaired electrons                  0          :
          ...................................................

 iter      E             dE          RMSdq      gap      omega  full diag
   1    -77.1724373 -0.771724E+02  0.360E+00    3.13       0.0  T
   2    -77.2989294 -0.126492E+00  0.211E+00    2.81       1.0  T
   3    -77.3018655 -0.293610E-02  0.115E+00    3.39       1.0  T
   4    -77.3099156 -0.805009E-02  0.444E-01    2.86       1.0  T
   5    -77.3186412 -0.872559E-02  0.128E-01    2.85       1.0  T
   6    -77.3191745 -0.533321E-03  0.555E-02    2.88       1.0  T
   7    -77.3192158 -0.412927E-04  0.244E-02    2.88       1.0  T
   8    -77.3192181 -0.231021E-05  0.109E-02    2.88       1.3  T
   9    -77.3192212 -0.308967E-05  0.319E-03    2.88       4.3  T
  10    -77.3192213 -0.833452E-07  0.146E-03    2.88       9.5  T
  11    -77.3192213 -0.254889E-07  0.703E-04    2.88      19.7  T
  12    -77.3192213 -0.791717E-08  0.268E-04    2.88      51.7  T

   *** convergence criteria satisfied after 12 iterations ***

         #    Occupation            Energy/Eh            Energy/eV
      -------------------------------------------------------------
         1        2.0000           -0.7397320             -20.1291
       ...           ...                  ...                  ...
        63        2.0000           -0.4111007             -11.1866
        64        2.0000           -0.4074277             -11.0867
        65        2.0000           -0.4048037             -11.0153
        66        2.0000           -0.4002774             -10.8921
        67        2.0000           -0.3744387             -10.1890
        68        2.0000           -0.3502722              -9.5314
        69        2.0000           -0.3470294              -9.4432 (HOMO)
        70                         -0.2413007              -6.5661 (LUMO)
        71                         -0.2259810              -6.1493
        72                         -0.1896938              -5.1618
        73                         -0.1501305              -4.0853
        74                         -0.0655960              -1.7850
       ...                                ...                  ...
       130                          0.7137640              19.4225
      -------------------------------------------------------------
                  HL-Gap            0.1057286 Eh            2.8770 eV
             Fermi-level           -0.2941651 Eh           -8.0046 eV

 SCC (total)                   0 d,  0 h,  0 min,  0.108 sec
 SCC setup                      ...        0 min,  0.001 sec (  0.464%)
 Dispersion                     ...        0 min,  0.001 sec (  0.627%)
 classical contributions        ...        0 min,  0.000 sec (  0.198%)
 integral evaluation            ...        0 min,  0.010 sec (  9.414%)
 iterations                     ...        0 min,  0.035 sec ( 32.645%)
 molecular gradient             ...        0 min,  0.061 sec ( 56.430%)
 printout                       ...        0 min,  0.000 sec (  0.216%)

         :::::::::::::::::::::::::::::::::::::::::::::::::::::
         ::                     SUMMARY                     ::
         :::::::::::::::::::::::::::::::::::::::::::::::::::::
         :: total energy             -76.346536679381 Eh    ::
         :: gradient norm              0.083886977938 Eh/a0 ::
         :: HOMO-LUMO gap              2.877022989133 eV    ::
         ::.................................................::
         :: SCC energy               -77.318910730902 Eh    ::
         :: -> isotropic ES            0.081162475525 Eh    ::
         :: -> anisotropic ES          0.012681924369 Eh    ::
         :: -> anisotropic XC          0.028207011014 Eh    ::
         :: -> dispersion             -0.057819612428 Eh    ::
         :: repulsion energy           0.972374051521 Eh    ::
         :: add. restraining           0.000000000000 Eh    ::
         :: total charge              -0.000000000000 e     ::
         :::::::::::::::::::::::::::::::::::::::::::::::::::::

      ----------------------------------------------------------- 
     |                   =====================                   |
     |                        A N C O P T                        |
     |                   =====================                   |
     |               Approximate Normal Coordinate               |
     |                Rational Function Optimizer                |
      ----------------------------------------------------------- 
      ----------------------------------------------------------- 
     |                   =====================                   |
     |                        A N C O P T                        |
     |                   =====================                   |
     |               Approximate Normal Coordinate               |
     |                Rational Function Optimizer                |
      ----------------------------------------------------------- 

          ...................................................
          :                      SETUP                      :
          :.................................................:
          :   optimization level            normal          :
          :   max. optcycles                   200          :
          :   ANC micro-cycles                  20          :
          :   degrees of freedom               150          :
          :.................................................:
          :   RF solver                   davidson          :
          :   write xtbopt.log                true          :
          :   linear?                        false          :
          :   energy convergence         0.5000000E-05 Eh   :
          :   grad. convergence          0.1000000E-02 Eh/α :
          :   maxmium RF displ.          1.0000000          :
          :   Hlow (freq-cutoff)         0.1000000E-01      :
          :   Hmax (freq-cutoff)         5.0000000          :
          :   S6 in model hess.         20.0000000          :
          ...................................................

generating ANC from exact Hessian ...
Using Lindh-Hessian (1995)
 Shifting diagonal of input Hessian by    9.6709826682076123E-003
 Lowest  eigenvalues of input Hessian
    0.000000    0.000000    0.000000    0.000000    0.000000    0.000000
    0.010000    0.010254    0.010441    0.011396    0.011569    0.012163
    0.013655    0.013811    0.014918    0.015717    0.017774    0.018932
 Highest eigenvalues
    1.844377    1.931609    1.984581    2.041330    2.154743    2.223896


........................................................................
.............................. CYCLE    1 ..............................
........................................................................

 iter      E             dE          RMSdq      gap      omega  full diag
   1    -77.3192213 -0.773192E+02  0.127E-04    2.88       0.0  T
   2    -77.3192213 -0.144738E-09  0.820E-05    2.88     169.1  T
   3    -77.3192213 -0.624141E-10  0.547E-05    2.88     253.7  T
     SCC iter.                  ...        0 min,  0.037 sec
     gradient                   ...        0 min,  0.036 sec
 * total energy  :   -76.3465367 Eh     change       -0.1523716E-08 Eh
   gradient norm :     0.0838887 Eh/α   predicted     0.0000000E+00 (-100.00%)
   displ. norm   :     0.3295611 α      lambda       -0.1234929E-01
   maximum displ.:     0.1111167 α      in ANC's #29, #27, #18, ...

........................................................................
.............................. CYCLE    2 ..............................
........................................................................

 iter      E             dE          RMSdq      gap      omega  full diag
   1    -77.3564777 -0.773565E+02  0.159E-01    3.23       0.0  T
   2    -77.3565785 -0.100831E-03  0.941E-02    3.20       1.0  T
   3    -77.3565670  0.115350E-04  0.409E-02    3.21       1.0  T
   4    -77.3565956 -0.285818E-04  0.836E-03    3.20       1.7  T
   5    -77.3565977 -0.214071E-05  0.417E-03    3.20       3.3  T
   6    -77.3565981 -0.442213E-06  0.201E-03    3.20       6.9  T
   7    -77.3565982 -0.364787E-07  0.599E-04    3.20      23.1  T
   8    -77.3565982 -0.555494E-08  0.259E-04    3.20      53.6  T
     SCC iter.                  ...        0 min,  0.061 sec
     gradient                   ...        0 min,  0.037 sec
 * total energy  :   -76.3547256 Eh     change       -0.8188967E-02 Eh
   gradient norm :     0.0286561 Eh/α   predicted    -0.6849131E-02 ( -16.36%)
   displ. norm   :     0.2843764 α      lambda       -0.3040019E-02
   maximum displ.:     0.1131552 α      in ANC's #11, #9, #12, ...

........................................................................
.............................. CYCLE    3 ..............................
........................................................................

 iter      E             dE          RMSdq      gap      omega  full diag
   1    -77.3749704 -0.773750E+02  0.946E-02    3.32       0.0  T
   2    -77.3750104 -0.399492E-04  0.566E-02    3.32       1.0  T
   3    -77.3750078  0.252262E-05  0.227E-02    3.33       1.0  T
   4    -77.3750154 -0.761882E-05  0.354E-03    3.32       3.9  T
   5    -77.3750158 -0.328674E-06  0.174E-03    3.32       8.0  T
   6    -77.3750158 -0.599736E-07  0.913E-04    3.33      15.2  T
   7    -77.3750158 -0.694956E-08  0.272E-04    3.32      51.0  T
     SCC iter.                  ...        0 min,  0.020 sec
     gradient                   ...        0 min,  0.037 sec
 * total energy  :   -76.3565449 Eh     change       -0.1819281E-02 Eh
   gradient norm :     0.0104194 Eh/α   predicted    -0.1644196E-02 (  -9.62%)
   displ. norm   :     0.1808765 α      lambda       -0.5294681E-03
   maximum displ.:     0.0892912 α      in ANC's #9, #11, #12, ...

........................................................................
.............................. CYCLE    4 ..............................
........................................................................

 iter      E             dE          RMSdq      gap      omega  full diag
   1    -77.3777654 -0.773778E+02  0.420E-02    3.32       0.0  T
   2    -77.3777727 -0.722261E-05  0.254E-02    3.32       1.0  T
   3    -77.3777710  0.168731E-05  0.940E-03    3.33       1.5  T
   4    -77.3777730 -0.199615E-05  0.360E-03    3.33       3.8  T
   5    -77.3777736 -0.609474E-06  0.953E-04    3.33      14.6  T
   6    -77.3777736 -0.169507E-07  0.469E-04    3.33      29.5  T
     SCC iter.                  ...        0 min,  0.017 sec
     gradient                   ...        0 min,  0.036 sec
 * total energy  :   -76.3569217 Eh     change       -0.3767315E-03 Eh
   gradient norm :     0.0053480 Eh/α   predicted    -0.2734006E-03 ( -27.43%)
   displ. norm   :     0.2140071 α      lambda       -0.3420643E-03
   maximum displ.:     0.1100876 α      in ANC's #9, #6, #12, ...

........................................................................
.............................. CYCLE    5 ..............................
........................................................................

 iter      E             dE          RMSdq      gap      omega  full diag
   1    -77.3783704 -0.773784E+02  0.448E-02    3.31       0.0  T
   2    -77.3783731 -0.272480E-05  0.268E-02    3.32       1.0  T
   3    -77.3783704  0.266811E-05  0.837E-03    3.32       1.7  T
   4    -77.3783735 -0.311585E-05  0.243E-03    3.32       5.7  T
   5    -77.3783738 -0.242151E-06  0.879E-04    3.32      15.8  T
   6    -77.3783738 -0.501447E-08  0.426E-04    3.32      32.5  T
     SCC iter.                  ...        0 min,  0.017 sec
     gradient                   ...        0 min,  0.037 sec
 * total energy  :   -76.3571556 Eh     change       -0.2339253E-03 Eh
   gradient norm :     0.0052633 Eh/α   predicted    -0.1788677E-03 ( -23.54%)
   displ. norm   :     0.1939726 α      lambda       -0.1862455E-03
   maximum displ.:     0.0903409 α      in ANC's #9, #6, #4, ...

........................................................................
.............................. CYCLE    6 ..............................
........................................................................

 iter      E             dE          RMSdq      gap      omega  full diag
   1    -77.3780894 -0.773781E+02  0.377E-02    3.32       0.0  T
   2    -77.3780901 -0.761101E-06  0.224E-02    3.31       1.0  T
   3    -77.3780898  0.374229E-06  0.362E-03    3.31       3.8  T
   4    -77.3780903 -0.516867E-06  0.138E-03    3.31      10.1  T
   5    -77.3780903 -0.582108E-07  0.668E-04    3.31      20.8  T
   6    -77.3780903 -0.408002E-08  0.241E-04    3.31      57.4  T
     SCC iter.                  ...        0 min,  0.017 sec
     gradient                   ...        0 min,  0.076 sec
 * total energy  :   -76.3572920 Eh     change       -0.1364601E-03 Eh
   gradient norm :     0.0055249 Eh/α   predicted    -0.9662863E-04 ( -29.19%)
   displ. norm   :     0.2201435 α      lambda       -0.1648951E-03
   maximum displ.:     0.0943196 α      in ANC's #6, #9, #4, ...

........................................................................
.............................. CYCLE    7 ..............................
........................................................................

 iter      E             dE          RMSdq      gap      omega  full diag
   1    -77.3777140 -0.773777E+02  0.435E-02    3.32       0.0  T
   2    -77.3777157 -0.170001E-05  0.258E-02    3.31       1.0  T
   3    -77.3777156  0.931109E-07  0.317E-03    3.31       4.4  T
   4    -77.3777159 -0.254839E-06  0.126E-03    3.31      11.0  T
   5    -77.3777159 -0.427187E-07  0.649E-04    3.31      21.4  T
   6    -77.3777159 -0.338446E-08  0.308E-04    3.31      45.0  T
     SCC iter.                  ...        0 min,  0.017 sec
     gradient                   ...        0 min,  0.070 sec
 * total energy  :   -76.3574092 Eh     change       -0.1171242E-03 Eh
   gradient norm :     0.0042588 Eh/α   predicted    -0.8644752E-04 ( -26.19%)
   displ. norm   :     0.1924770 α      lambda       -0.1125723E-03
   maximum displ.:     0.0887688 α      in ANC's #5, #6, #4, ...

........................................................................
.............................. CYCLE    8 ..............................
........................................................................

 iter      E             dE          RMSdq      gap      omega  full diag
   1    -77.3778776 -0.773779E+02  0.393E-02    3.32       0.0  T
   2    -77.3778794 -0.181994E-05  0.232E-02    3.32       1.0  T
   3    -77.3778791  0.284771E-06  0.374E-03    3.31       3.7  T
   4    -77.3778795 -0.348170E-06  0.170E-03    3.32       8.1  T
   5    -77.3778796 -0.127296E-06  0.604E-04    3.32      23.0  T
   6    -77.3778796 -0.304196E-08  0.290E-04    3.32      47.9  T
     SCC iter.                  ...        0 min,  0.017 sec
     gradient                   ...        0 min,  0.037 sec
 * total energy  :   -76.3574885 Eh     change       -0.7933724E-04 Eh
   gradient norm :     0.0026673 Eh/α   predicted    -0.5837176E-04 ( -26.43%)
   displ. norm   :     0.1612414 α      lambda       -0.7254472E-04
   maximum displ.:     0.0894945 α      in ANC's #5, #6, #3, ...

........................................................................
.............................. CYCLE    9 ..............................
........................................................................

 iter      E             dE          RMSdq      gap      omega  full diag
   1    -77.3782399 -0.773782E+02  0.351E-02    3.32       0.0  T
   2    -77.3782404 -0.581110E-06  0.207E-02    3.32       1.0  T
   3    -77.3782403  0.922432E-07  0.237E-03    3.32       5.9  T
   4    -77.3782405 -0.180837E-06  0.109E-03    3.32      12.7  T
   5    -77.3782406 -0.356367E-07  0.526E-04    3.32      26.4  T
   6    -77.3782406 -0.332145E-08  0.189E-04    3.32      73.5  T
     SCC iter.                  ...        0 min,  0.017 sec
     gradient                   ...        0 min,  0.037 sec
 * total energy  :   -76.3575386 Eh     change       -0.5007804E-04 Eh
   gradient norm :     0.0021017 Eh/α   predicted    -0.3721602E-04 ( -25.68%)
   displ. norm   :     0.1006422 α      lambda       -0.3836726E-04
   maximum displ.:     0.0642272 α      in ANC's #5, #3, #10, ...

........................................................................
.............................. CYCLE   10 ..............................
........................................................................

 iter      E             dE          RMSdq      gap      omega  full diag
   1    -77.3788668 -0.773789E+02  0.226E-02    3.32       0.0  T
   2    -77.3788670 -0.180756E-06  0.133E-02    3.32       1.0  T
   3    -77.3788670  0.227330E-07  0.138E-03    3.32      10.0  T
   4    -77.3788670 -0.694421E-07  0.565E-04    3.32      24.6  T
   5    -77.3788670 -0.382246E-08  0.304E-04    3.32      45.6  T
     SCC iter.                  ...        0 min,  0.014 sec
     gradient                   ...        0 min,  0.036 sec
 * total energy  :   -76.3575661 Eh     change       -0.2752046E-04 Eh
   gradient norm :     0.0021151 Eh/α   predicted    -0.1939250E-04 ( -29.53%)
   displ. norm   :     0.0776954 α      lambda       -0.2436076E-04
   maximum displ.:     0.0513843 α      in ANC's #5, #3, #10, ...

........................................................................
.............................. CYCLE   11 ..............................
........................................................................

 iter      E             dE          RMSdq      gap      omega  full diag
   1    -77.3790266 -0.773790E+02  0.174E-02    3.32       0.0  T
   2    -77.3790268 -0.156555E-06  0.102E-02    3.32       1.4  T
   3    -77.3790267  0.105255E-06  0.170E-03    3.32       8.1  T
   4    -77.3790268 -0.134535E-06  0.578E-04    3.32      24.0  T
   5    -77.3790268 -0.102484E-07  0.241E-04    3.32      57.6  T
     SCC iter.                  ...        0 min,  0.014 sec
     gradient                   ...        0 min,  0.036 sec
 * total energy  :   -76.3575837 Eh     change       -0.1754966E-04 Eh
   gradient norm :     0.0014158 Eh/α   predicted    -0.1225503E-04 ( -30.17%)
   displ. norm   :     0.0938007 α      lambda       -0.1515079E-04
   maximum displ.:     0.0619175 α      in ANC's #5, #3, #8, ...

........................................................................
.............................. CYCLE   12 ..............................
........................................................................

 iter      E             dE          RMSdq      gap      omega  full diag
   1    -77.3790628 -0.773791E+02  0.200E-02    3.32       0.0  T
   2    -77.3790630 -0.152906E-06  0.118E-02    3.32       1.2  T
   3    -77.3790628  0.155855E-06  0.204E-03    3.32       6.8  T
   4    -77.3790630 -0.200006E-06  0.527E-04    3.32      26.3  T
   5    -77.3790630 -0.655781E-08  0.261E-04    3.32      53.1  T
     SCC iter.                  ...        0 min,  0.014 sec
     gradient                   ...        0 min,  0.036 sec
 * total energy  :   -76.3575976 Eh     change       -0.1394644E-04 Eh
   gradient norm :     0.0012818 Eh/α   predicted    -0.7607481E-05 ( -45.45%)
   displ. norm   :     0.0535384 α      lambda       -0.7597292E-05
   maximum displ.:     0.0327923 α      in ANC's #5, #3, #7, ...

........................................................................
.............................. CYCLE   13 ..............................
........................................................................

 iter      E             dE          RMSdq      gap      omega  full diag
   1    -77.3788296 -0.773788E+02  0.113E-02    3.32       0.0  T
   2    -77.3788296 -0.461312E-07  0.663E-03    3.32       2.1  T
   3    -77.3788296  0.814290E-07  0.130E-03    3.32      10.7  T
   4    -77.3788297 -0.953093E-07  0.304E-04    3.32      45.6  T
   5    -77.3788297 -0.321199E-08  0.123E-04    3.32     112.5  T
     SCC iter.                  ...        0 min,  0.014 sec
     gradient                   ...        0 min,  0.036 sec
 * total energy  :   -76.3576065 Eh     change       -0.8864293E-05 Eh
   gradient norm :     0.0010892 Eh/α   predicted    -0.3805604E-05 ( -57.07%)
   displ. norm   :     0.0865517 α      lambda       -0.1022698E-04
   maximum displ.:     0.0536389 α      in ANC's #3, #5, #7, ...

........................................................................
.............................. CYCLE   14 ..............................
........................................................................

 iter      E             dE          RMSdq      gap      omega  full diag
   1    -77.3788039 -0.773788E+02  0.170E-02    3.32       0.0  T
   2    -77.3788040 -0.155616E-06  0.100E-02    3.32       1.4  T
   3    -77.3788036  0.377214E-06  0.281E-03    3.32       4.9  T
   4    -77.3788041 -0.431056E-06  0.500E-04    3.32      27.7  T
   5    -77.3788041 -0.805510E-08  0.194E-04    3.32      71.6  T
     SCC iter.                  ...        0 min,  0.047 sec
     gradient                   ...        0 min,  0.036 sec
 * total energy  :   -76.3576168 Eh     change       -0.1030025E-04 Eh
   gradient norm :     0.0010026 Eh/α   predicted    -0.5131477E-05 ( -50.18%)
   displ. norm   :     0.0793015 α      lambda       -0.5977777E-05
   maximum displ.:     0.0510245 α      in ANC's #3, #5, #7, ...

........................................................................
.............................. CYCLE   15 ..............................
........................................................................

 iter      E             dE          RMSdq      gap      omega  full diag
   1    -77.3787130 -0.773787E+02  0.149E-02    3.32       0.0  T
   2    -77.3787131 -0.481606E-07  0.880E-03    3.32       1.6  T
   3    -77.3787128  0.214552E-06  0.212E-03    3.32       6.5  T
   4    -77.3787131 -0.248565E-06  0.303E-04    3.32      45.8  T
   5    -77.3787131 -0.106954E-08  0.163E-04    3.32      85.1  T
     SCC iter.                  ...        0 min,  0.053 sec
     gradient                   ...        0 min,  0.036 sec
 * total energy  :   -76.3576234 Eh     change       -0.6631406E-05 Eh
   gradient norm :     0.0008383 Eh/α   predicted    -0.3001369E-05 ( -54.74%)
   displ. norm   :     0.0736113 α      lambda       -0.4923742E-05
   maximum displ.:     0.0488550 α      in ANC's #3, #5, #7, ...

........................................................................
.............................. CYCLE   16 ..............................
........................................................................

 iter      E             dE          RMSdq      gap      omega  full diag
   1    -77.3788880 -0.773789E+02  0.133E-02    3.32       0.0  T
   2    -77.3788880 -0.364734E-07  0.785E-03    3.32       1.8  T
   3    -77.3788879  0.575998E-07  0.119E-03    3.32      11.6  T
   4    -77.3788880 -0.724488E-07  0.296E-04    3.32      46.9  T
   5    -77.3788880 -0.165480E-08  0.144E-04    3.32      96.1  T
     SCC iter.                  ...        0 min,  0.014 sec
     gradient                   ...        0 min,  0.036 sec
 * total energy  :   -76.3576291 Eh     change       -0.5708418E-05 Eh
   gradient norm :     0.0005506 Eh/α   predicted    -0.2468766E-05 ( -56.75%)
   displ. norm   :     0.0682124 α      lambda       -0.3906774E-05
   maximum displ.:     0.0461575 α      in ANC's #3, #7, #5, ...

........................................................................
.............................. CYCLE   17 ..............................
........................................................................

 iter      E             dE          RMSdq      gap      omega  full diag
   1    -77.3789627 -0.773790E+02  0.126E-02    3.32       0.0  T
   2    -77.3789627 -0.265776E-07  0.742E-03    3.32       1.9  T
   3    -77.3789627  0.806338E-09  0.507E-04    3.32      27.4  T
   4    -77.3789627 -0.967523E-08  0.225E-04    3.32      61.7  T
     SCC iter.                  ...        0 min,  0.048 sec
     gradient                   ...        0 min,  0.036 sec
 * total energy  :   -76.3576334 Eh     change       -0.4277940E-05 Eh
   gradient norm :     0.0004225 Eh/α   predicted    -0.1959659E-05 ( -54.19%)
   displ. norm   :     0.0495092 α      lambda       -0.2312664E-05
   maximum displ.:     0.0340348 α      in ANC's #3, #7, #2, ...

   *** GEOMETRY OPTIMIZATION CONVERGED AFTER 17 ITERATIONS ***

------------------------------------------------------------------------
 total energy gain   :        -0.0110967 Eh       -6.9633 kcal/mol
 total RMSD          :         0.2362988 a0        0.1250 Å
 total power (kW/mol):        -1.7137880 (step)  -16.9044 (real)
------------------------------------------------------------------------

 ANCopt (total)                0 d,  0 h,  0 min,  1.723 sec
 optimizer setup                ...        0 min,  0.000 sec (  0.004%)
 model hessian                  ...        0 min,  0.031 sec (  1.821%)
 ANC generation                 ...        0 min,  0.002 sec (  0.135%)
 coordinate transformation      ...        0 min,  0.000 sec (  0.010%)
 single point calculation       ...        0 min,  1.683 sec ( 97.663%)
 optimization log               ...        0 min,  0.004 sec (  0.243%)
 hessian update                 ...        0 min,  0.000 sec (  0.017%)
 rational function              ...        0 min,  0.001 sec (  0.070%)

================
 final structure:
================
52
 xtb: 6.7.1 (edcfbbe)
H           -0.97615879534291        0.31032522923339        1.31209671549488
C           -0.79054837913221       -0.23027021499608        0.35543974464415
C           -1.92244433078490        0.04057088481590       -0.57843213848157
N           -2.15735856691839        1.23841751024244       -1.20654157087167
C           -3.28578984977326        1.12080816860847       -1.96963445044780
C           -3.78233704701524       -0.19876300347188       -1.81330980258875
C           -4.94122864620321       -0.57814979852309       -2.48910299905417
C           -5.56987779397319        0.34776272431924       -3.29108757725477
C           -5.06892100648176        1.64394485680387       -3.43635307207625
C           -3.92470562006937        2.04780252366425       -2.78094770815615
C           -2.89108779591992       -0.85773271577043       -0.91769070483977
C           -2.89752508248545       -2.23976271351836       -0.36059975489009
C           -2.01446348836291       -2.24706963593880        0.88911578329590
N           -0.71760587555715       -1.66654611046489        0.58759707060335
C            0.29048165609181       -1.96690673946322        1.58146352338169
C            1.66987513216617       -1.55368492328197        1.06728151727968
C            2.76954999318118       -1.90776732235243        2.06385725138385
C            4.13142333712287       -1.50621429715764        1.50673378181197
C            4.16906515920344       -0.00406334689370        1.21571194953868
C            3.03764594292153        0.38371640320631        0.24079746913228
C            1.67348514472545       -0.05078436718387        0.77774679688175
C            0.54934691501136        0.25317700469142       -0.21015227681313
H            1.49221069788126        0.49248900481942        1.70977210533510
C            3.17938095829401        1.87947801801314        0.02304849204820
O            2.29697949656386        2.60075311466064        0.71382144078237
C            2.44556342626465        4.01061050076622        0.63250947109188
O            4.02769382010527        2.36670195612139       -0.67902786548716
O            4.00565619552772        0.76568829473751        2.38837173555597
H            1.84858629578845       -2.08984678024249        0.12915984925325
H           -1.59258800323332        2.06542445793903       -1.12194043456812
H           -5.33266546871724       -1.57895404668893       -2.38224199889506
H           -6.46973432600439        0.07340869142321       -3.82239746330281
H           -5.59069701022805        2.34138688989897       -4.07508801095056
H           -3.53826107380801        3.05052536453086       -2.89423848166298
H           -3.91145861521575       -2.55570101980314       -0.10660058900210
H           -2.49573373837863       -2.94335641567352       -1.09512856389180
H           -2.52390838854436       -1.69695019947721        1.70097203205345
H           -1.85702484390527       -3.27486950222752        1.22428105452504
H            0.08706267885526       -1.45504188785453        2.54178696303321
H            0.28039309032541       -3.04439905415558        1.76640568868613
H            2.75588470370181       -2.97877800471601        2.27468539670057
H            2.59136291541069       -1.37442929428997        3.00008257734897
H            4.92080740187139       -1.75532188781551        2.22142652164188
H            4.33209998074690       -2.04893045444505        0.58198553373753
H            5.13066472250031        0.25337403959068        0.73963328086910
H            3.24417902055293       -0.10533956963914       -0.71615968195181
H            0.50185398958597        1.32487544873295       -0.40291622395039
H            0.73467117823257       -0.26438350320146       -1.15347386441154
H            3.42495289200409        4.30916888092994        1.01059587535850
H            1.65462588488577        4.43622829225782        1.24500550609470
H            2.35424950749980        4.34410223858759       -0.40398354831412
H            4.65217160903307        0.47337631065021        3.03996365429801

 Bond Distances (Angstroems)
 ---------------------------
H1-C2=1.1144         C2-H1=1.1144         C2-C3=1.4922         C2-N14=1.4567        C2-C22=1.5326        C3-C2=1.4922         
C3-N4=1.3728         C3-C11=1.3639        N4-C3=1.3728         N4-C5=1.3673         N4-H30=1.0050        C5-N4=1.3673         
C5-C6=1.4185         C5-C10=1.3877        C6-C5=1.4185         C6-C7=1.3942         C6-C11=1.4250        C7-C6=1.3942         
C7-C8=1.3768         C7-H31=1.0799        C8-C7=1.3768         C8-C9=1.3972         C8-H32=1.0804        C9-C8=1.3972         
C9-C10=1.3791        C9-H33=1.0801        C10-C5=1.3877        C10-C9=1.3791        C10-H34=1.0806       C11-C3=1.3639        
C11-C6=1.4250        C11-C12=1.4901       C12-C11=1.4901       C12-C13=1.5302       C12-H35=1.0920       C12-H36=1.0936       
C13-C12=1.5302       C13-N14=1.4525       C13-H37=1.1051       C13-H38=1.0925       N14-C2=1.4567        N14-C13=1.4525       
N14-C15=1.4471       C15-N14=1.4471       C15-C16=1.5290       C15-H39=1.1071       C15-H40=1.0933       C16-C15=1.5290       
C16-C17=1.5257       C16-C21=1.5305       C16-H29=1.0952       C17-C16=1.5257       C17-C18=1.5252       C17-H41=1.0916       
C17-H42=1.0921       C18-C17=1.5252       C18-C19=1.5305       C18-H43=1.0936       C18-H44=1.0909       C19-C18=1.5305       
C19-C20=1.5430       C19-O28=1.4122       C19-H45=1.1034       C20-C19=1.5430       C20-C21=1.5291       C20-C24=1.5182       
C20-H46=1.0943       C21-C16=1.5305       C21-C20=1.5291       C21-C22=1.5271       C21-H23=1.0939       C22-C2=1.5326        
C22-C21=1.5271       C22-H47=1.0899       C22-H48=1.0918       H23-C21=1.0939       C24-C20=1.5182       C24-O25=1.3327       
C24-O27=1.2041       O25-C24=1.3327       O25-C26=1.4200       C26-O25=1.4200       C26-H49=1.0915       C26-H50=1.0871       
C26-H51=1.0926       O27-C24=1.2041       O28-C19=1.4122       O28-H52=0.9633       H29-C16=1.0952       H30-N4=1.0050        
H31-C7=1.0799        H32-C8=1.0804        H33-C9=1.0801        H34-C10=1.0806       H35-C12=1.0920       H36-C12=1.0936       
H37-C13=1.1051       H38-C13=1.0925       H39-C15=1.1071       H40-C15=1.0933       H41-C17=1.0916       H42-C17=1.0921       
H43-C18=1.0936       H44-C18=1.0909       H45-C19=1.1034       H46-C20=1.0943       H47-C22=1.0899       H48-C22=1.0918       
H49-C26=1.0915       H50-C26=1.0871       H51-C26=1.0926       H52-O28=0.9633       
 C  H  Rav=1.0928 sigma=0.0082  Rmin=1.0799  Rmax=1.1144    24
 C  C  Rav=1.4736 sigma=0.0655  Rmin=1.3639  Rmax=1.5430    21
 N  H  Rav=1.0050 sigma=0.0000  Rmin=1.0050  Rmax=1.0050     1
 N  C  Rav=1.4193 sigma=0.0404  Rmin=1.3673  Rmax=1.4567     5
 O  H  Rav=0.9633 sigma=0.0000  Rmin=0.9633  Rmax=0.9633     1
 O  C  Rav=1.3423 sigma=0.0868  Rmin=1.2041  Rmax=1.4200     4

 selected bond angles (degree)
 --------------------
C3-C2-H1=108.84                N14-C2-H1=110.48               N14-C2-C3=108.46               C22-C2-H1=108.02               
C22-C2-C3=112.02               C22-C2-N14=109.03              N4-C3-C2=125.07                C11-C3-C2=125.09               
C11-C3-N4=109.84               C5-N4-C3=108.76                H30-N4-C3=125.69               H30-N4-C5=125.56               
C6-C5-N4=107.90                C10-C5-N4=130.45               C10-C5-C6=121.65               C7-C6-C5=119.39                
C11-C6-C5=106.29               C11-C6-C7=134.32               C8-C7-C6=118.61                H31-C7-C6=120.37               
H31-C7-C8=121.02               C9-C8-C7=121.38                H32-C8-C7=119.73               H32-C8-C9=118.89               
C10-C9-C8=121.31               H33-C9-C8=119.16               H33-C9-C10=119.52              C9-C10-C5=117.66               
H34-C10-C5=121.10              H34-C10-C9=121.24              

 selected dihedral angles (degree)
 ---------------------------------
N4-C3-C2-H1= 71.60            N4-C3-C2-N14=191.84           N4-C3-C2-C22=312.22           C11-C3-C2-H1=252.79           
C11-C3-C2-N14= 13.02          C11-C3-C2-C22=133.41          C5-N4-C3-C2=180.70            C5-N4-C3-C11=359.66           
H30-N4-C3-C2=  0.83           H30-N4-C3-C11=179.80          C6-C5-N4-C3=  0.18            C6-C5-N4-H30=180.05           
C10-C5-N4-C3=179.91           C10-C5-N4-H30=359.78          C7-C6-C5-N4=179.73            C7-C6-C5-C10=359.97           
C11-C6-C5-N4=  0.04           C11-C6-C5-C10=180.28          C8-C7-C6-C5=359.97            C8-C7-C6-C11=179.56           
H31-C7-C6-C5=179.94           H31-C7-C6-C11=359.53          C9-C8-C7-C6=  0.07            C9-C8-C7-H31=180.10           
H32-C8-C7-C6=180.06           H32-C8-C7-H31=  0.09          C10-C9-C8-C7=359.95           C10-C9-C8-H32=179.96          
H33-C9-C8-C7=179.98           H33-C9-C8-H32=  0.00          C9-C10-C5-N4=180.35           C9-C10-C5-C6=  0.05           
H34-C10-C5-N4=  0.35          H34-C10-C5-C6=180.05          C5-C10-C9-C8=  0.00           C5-C10-C9-H33=179.96          
H34-C10-C9-C8=179.99          H34-C10-C9-H33=359.97         
           -------------------------------------------------
          |                Final Singlepoint                |
           -------------------------------------------------

          ...................................................
          :                      SETUP                      :
          :.................................................:
          :  # basis functions                 130          :
          :  # atomic orbitals                 130          :
          :  # shells                           78          :
          :  # electrons                       138          :
          :  max. iterations                   250          :
          :  Hamiltonian                  GFN2-xTB          :
          :  restarted?                      false          :
          :  GBSA solvation                  false          :
          :  PC potential                    false          :
          :  electronic temp.          300.0000000     K    :
          :  accuracy                    1.0000000          :
          :  -> integral cutoff          0.2500000E+02      :
          :  -> integral neglect         0.1000000E-07      :
          :  -> SCF convergence          0.1000000E-05 Eh   :
          :  -> wf. convergence          0.1000000E-03 e    :
          :  Broyden damping             0.4000000          :
          :  net charge                          0          :
          :  unpaired electrons                  0          :
          ...................................................

 iter      E             dE          RMSdq      gap      omega  full diag
   1    -77.3789627 -0.773790E+02  0.128E-04    3.32       0.0  T
   2    -77.3789627 -0.161720E-09  0.882E-05    3.32     157.2  T
   3    -77.3789627 -0.251021E-09  0.479E-05    3.32     289.8  T

   *** convergence criteria satisfied after 3 iterations ***

         #    Occupation            Energy/Eh            Energy/eV
      -------------------------------------------------------------
         1        2.0000           -0.7426435             -20.2084
       ...           ...                  ...                  ...
        63        2.0000           -0.4087745             -11.1233
        64        2.0000           -0.4060503             -11.0492
        65        2.0000           -0.4035269             -10.9805
        66        2.0000           -0.4029521             -10.9649
        67        2.0000           -0.3717176             -10.1150
        68        2.0000           -0.3514211              -9.5627
        69        2.0000           -0.3487010              -9.4886 (HOMO)
        70                         -0.2267924              -6.1713 (LUMO)
        71                         -0.2209277              -6.0117
        72                         -0.1892850              -5.1507
        73                         -0.1467633              -3.9936
        74                         -0.0618210              -1.6822
       ...                                ...                  ...
       130                          0.7314586              19.9040
      -------------------------------------------------------------
                  HL-Gap            0.1219086 Eh            3.3173 eV
             Fermi-level           -0.2877467 Eh           -7.8300 eV

 SCC (total)                   0 d,  0 h,  0 min,  0.093 sec
 SCC setup                      ...        0 min,  0.000 sec (  0.439%)
 Dispersion                     ...        0 min,  0.000 sec (  0.478%)
 classical contributions        ...        0 min,  0.000 sec (  0.224%)
 integral evaluation            ...        0 min,  0.010 sec ( 10.490%)
 iterations                     ...        0 min,  0.046 sec ( 48.967%)
 molecular gradient             ...        0 min,  0.037 sec ( 39.185%)
 printout                       ...        0 min,  0.000 sec (  0.210%)

         :::::::::::::::::::::::::::::::::::::::::::::::::::::
         ::                     SUMMARY                     ::
         :::::::::::::::::::::::::::::::::::::::::::::::::::::
         :: total energy             -76.357633385465 Eh    ::
         :: gradient norm              0.000421631741 Eh/a0 ::
         :: HOMO-LUMO gap              3.317301348298 eV    ::
         ::.................................................::
         :: SCC energy               -77.378600537881 Eh    ::
         :: -> isotropic ES            0.080619757653 Eh    ::
         :: -> anisotropic ES          0.010453065022 Eh    ::
         :: -> anisotropic XC          0.026858028258 Eh    ::
         :: -> dispersion             -0.058729466429 Eh    ::
         :: repulsion energy           1.020967152416 Eh    ::
         :: add. restraining           0.000000000000 Eh    ::
         :: total charge              -0.000000000000 e     ::
         :::::::::::::::::::::::::::::::::::::::::::::::::::::

           -------------------------------------------------
          |                Property Printout                |
           -------------------------------------------------

    * Orbital Energies and Occupations

         #    Occupation            Energy/Eh            Energy/eV
      -------------------------------------------------------------
         1        2.0000           -0.7426435             -20.2084
       ...           ...                  ...                  ...
        57        2.0000           -0.4394925             -11.9592
        58        2.0000           -0.4378668             -11.9150
        59        2.0000           -0.4315073             -11.7419
        60        2.0000           -0.4274211             -11.6307
        61        2.0000           -0.4242007             -11.5431
        62        2.0000           -0.4171622             -11.3516
        63        2.0000           -0.4087745             -11.1233
        64        2.0000           -0.4060503             -11.0492
        65        2.0000           -0.4035269             -10.9805
        66        2.0000           -0.4029521             -10.9649
        67        2.0000           -0.3717176             -10.1150
        68        2.0000           -0.3514211              -9.5627
        69        2.0000           -0.3487010              -9.4886 (HOMO)
        70                         -0.2267924              -6.1713 (LUMO)
        71                         -0.2209277              -6.0117
        72                         -0.1892850              -5.1507
        73                         -0.1467633              -3.9936
        74                         -0.0618210              -1.6822
        75                          0.0066594               0.1812
        76                          0.0097603               0.2656
        77                          0.0206986               0.5632
        78                          0.0275860               0.7507
        79                          0.0391975               1.0666
        80                          0.0546572               1.4873
       ...                                ...                  ...
       130                          0.7314586              19.9040
      -------------------------------------------------------------
                  HL-Gap            0.1219086 Eh            3.3173 eV
             Fermi-level           -0.2877467 Eh           -7.8300 eV

     #   Z          covCN         q      C6AA      α(0)
     1   1 H        0.921     0.008     2.930     2.677
     2   6 C        3.819     0.050    19.717     6.319
     3   6 C        3.089     0.028    27.278     8.561
     4   7 N        2.775    -0.119    23.590     7.214
     5   6 C        3.089     0.044    26.918     8.504
     6   6 C        3.107    -0.020    28.360     8.725
     7   6 C        2.911    -0.037    28.931     8.820
     8   6 C        2.920    -0.042    29.055     8.839
     9   6 C        2.924    -0.039    28.958     8.825
    10   6 C        2.908    -0.054    29.337     8.881
    11   6 C        3.071    -0.037    28.832     8.804
    12   6 C        3.808    -0.059    21.630     6.620
    13   6 C        3.763     0.013    20.394     6.437
    14   7 N        2.739    -0.180    24.893     7.410
    15   6 C        3.768     0.012    20.409     6.438
    16   6 C        3.864    -0.027    21.015     6.519
    17   6 C        3.808    -0.060    21.654     6.624
    18   6 C        3.805    -0.071    21.855     6.655
    19   6 C        3.736     0.124    18.638     6.161
    20   6 C        3.858    -0.049    21.407     6.580
    21   6 C        3.863    -0.021    20.899     6.501
    22   6 C        3.813    -0.065    21.732     6.635
    23   1 H        0.924     0.061     2.190     2.314
    24   6 C        2.734     0.362    20.859     7.477
    25   8 O        1.704    -0.245    18.063     5.738
    26   6 C        3.660     0.032    20.305     6.466
    27   8 O        0.856    -0.416    21.995     6.288
    28   8 O        1.656    -0.443    21.706     6.289
    29   1 H        0.924     0.044     2.398     2.422
    30   1 H        0.860     0.156     1.362     1.828
    31   1 H        0.926     0.026     2.650     2.545
    32   1 H        0.926     0.024     2.679     2.560
    33   1 H        0.926     0.025     2.663     2.552
    34   1 H        0.926     0.020     2.732     2.585
    35   1 H        0.924     0.039     2.461     2.453
    36   1 H        0.924     0.047     2.364     2.404
    37   1 H        0.922     0.006     2.960     2.691
    38   1 H        0.924     0.031     2.576     2.510
    39   1 H        0.922     0.005     2.981     2.700
    40   1 H        0.924     0.033     2.549     2.497
    41   1 H        0.924     0.034     2.525     2.485
    42   1 H        0.924     0.045     2.382     2.414
    43   1 H        0.924     0.034     2.529     2.487
    44   1 H        0.924     0.041     2.442     2.444
    45   1 H        0.923     0.021     2.719     2.579
    46   1 H        0.924     0.057     2.232     2.336
    47   1 H        0.925     0.033     2.544     2.494
    48   1 H        0.924     0.044     2.391     2.418
    49   1 H        0.924     0.066     2.128     2.281
    50   1 H        0.925     0.068     2.109     2.271
    51   1 H        0.924     0.061     2.190     2.314
    52   1 H        0.805     0.292     0.747     1.358

 Mol. C6AA /au·bohr⁶  :      27256.413765
 Mol. C8AA /au·bohr⁸  :     629306.579944
 Mol. α(0) /au        :        250.953123


Wiberg/Mayer (AO) data.
largest (>0.10) Wiberg bond orders for each atom

 ---------------------------------------------------------------------------
     #   Z sym  total        # sym  WBO       # sym  WBO       # sym  WBO
 ---------------------------------------------------------------------------
     1   1 H    0.996 --     2 C    0.936
     2   6 C    3.987 --     3 C    1.002    14 N    0.993    22 C    0.981
                             1 H    0.936
     3   6 C    3.951 --    11 C    1.554     4 N    1.171     2 C    1.002
     4   7 N    3.524 --     3 C    1.171     5 C    1.170    30 H    0.945
     5   6 C    3.956 --    10 C    1.346     6 C    1.241     4 N    1.170
     6   6 C    3.984 --     7 C    1.333     5 C    1.241    11 C    1.207
     7   6 C    3.989 --     8 C    1.500     6 C    1.333    31 H    0.970
                            10 C    0.111
     8   6 C    3.991 --     7 C    1.500     9 C    1.375    32 H    0.972
     9   6 C    3.988 --    10 C    1.485     8 C    1.375    33 H    0.972
    10   6 C    3.987 --     9 C    1.485     5 C    1.346    34 H    0.969
                             7 C    0.111
    11   6 C    3.973 --     3 C    1.554     6 C    1.207    12 C    1.015
    12   6 C    3.997 --    11 C    1.015    13 C    0.999    35 H    0.970
                            36 H    0.963
    13   6 C    3.986 --    14 N    1.001    12 C    0.999    38 H    0.973
                            37 H    0.966
    14   7 N    3.125 --    15 C    1.007    13 C    1.001     2 C    0.993
    15   6 C    3.987 --    14 N    1.007    16 C    0.990    40 H    0.971
                            39 H    0.961
    16   6 C    3.995 --    17 C    0.998    15 C    0.990    21 C    0.985
                            29 H    0.965
    17   6 C    3.996 --    18 C    1.008    16 C    0.998    41 H    0.976
                            42 H    0.975
    18   6 C    3.996 --    17 C    1.008    19 C    0.987    44 H    0.975
                            43 H    0.973
    19   6 C    3.957 --    28 O    0.991    18 C    0.987    45 H    0.960
                            20 C    0.954
    20   6 C    3.991 --    21 C    0.985    46 H    0.955    24 C    0.954
                            19 C    0.954
    21   6 C    3.991 --    22 C    0.996    16 C    0.985    20 C    0.985
                            23 H    0.961
    22   6 C    3.994 --    21 C    0.996     2 C    0.981    48 H    0.975
                            47 H    0.972
    23   1 H    0.996 --    21 C    0.961
    24   6 C    3.916 --    27 O    1.749    25 O    1.142    20 C    0.954
    25   8 O    2.321 --    24 C    1.142    26 C    0.957    27 O    0.172
    26   6 C    3.926 --    50 H    0.982    51 H    0.977    49 H    0.977
                            25 O    0.957
    27   8 O    2.029 --    24 C    1.749    25 O    0.172
    28   8 O    1.961 --    19 C    0.991    52 H    0.898
    29   1 H    0.998 --    16 C    0.965
    30   1 H    0.975 --     4 N    0.945
    31   1 H    0.999 --     7 C    0.970
    32   1 H    0.999 --     8 C    0.972
    33   1 H    0.999 --     9 C    0.972
    34   1 H    0.999 --    10 C    0.969
    35   1 H    0.998 --    12 C    0.970
    36   1 H    0.998 --    12 C    0.963
    37   1 H    1.000 --    13 C    0.966
    38   1 H    0.998 --    13 C    0.973
    39   1 H    1.000 --    15 C    0.961
    40   1 H    0.998 --    15 C    0.971
    41   1 H    0.998 --    17 C    0.976
    42   1 H    0.998 --    17 C    0.975
    43   1 H    0.998 --    18 C    0.973
    44   1 H    0.998 --    18 C    0.975
    45   1 H    0.999 --    19 C    0.960
    46   1 H    0.997 --    20 C    0.955
    47   1 H    0.998 --    22 C    0.972
    48   1 H    0.998 --    22 C    0.975
    49   1 H    0.996 --    26 C    0.977
    50   1 H    0.995 --    26 C    0.982
    51   1 H    0.996 --    26 C    0.977
    52   1 H    0.915 --    28 O    0.898
 ---------------------------------------------------------------------------

Topologies differ in total number of bonds
Writing topology from bond orders to xtbtopo.mol

molecular dipole:
                 x           y           z       tot (Debye)
 q only:        0.266      -0.342       0.902
   full:        0.544      -0.174       1.320       3.655
molecular quadrupole (traceless):
                xx          xy          yy          xz          yz          zz
 q only:      -10.571      -9.071      11.535       5.985       0.716      -0.964
  q+dip:      -10.889     -10.502      11.593       8.521      -1.069      -0.704
   full:      -10.455     -11.168      10.581       7.907      -0.955      -0.126

           -------------------------------------------------
          |                Geometry Summary                 |
           -------------------------------------------------

      molecular mass/u    :      354.4435346
   center of mass at/Å    :       -0.0774325       0.1767063      -0.1510254
  moments of inertia/u·Å² :        0.1307166E+04   0.4388435E+04   0.5423645E+04
rotational constants/cm⁻¹ :        0.1289632E-01   0.3841376E-02   0.3108174E-02

 * 54 selected distances

     #   Z          #   Z                                           value/Å
     1   1 H        2   6 C                                       1.1144000
     2   6 C        3   6 C                                       1.4921999
     3   6 C        4   7 N                                       1.3727866
     4   7 N        5   6 C                                       1.3672967
     5   6 C        6   6 C                                       1.4185433
     6   6 C        7   6 C                                       1.3941524
     7   6 C        8   6 C                                       1.3768418
     8   6 C        9   6 C                                       1.3971930
     5   6 C       10   6 C                                       1.3877181
     9   6 C       10   6 C                                       1.3790890
     3   6 C       11   6 C                                       1.3639341
     6   6 C       11   6 C                                       1.4250264
    11   6 C       12   6 C                                       1.4901004
    12   6 C       13   6 C                                       1.5302420
     2   6 C       14   7 N                                       1.4567452
    13   6 C       14   7 N                                       1.4525017
    14   7 N       15   6 C                                       1.4471447
    15   6 C       16   6 C                                       1.5290069
    16   6 C       17   6 C                                       1.5257204
    17   6 C       18   6 C                                       1.5252314
    18   6 C       19   6 C                                       1.5305452
    16   6 C       21   6 C                                       1.5305404
    20   6 C       21   6 C                                       1.5290653
     2   6 C       22   6 C                                       1.5326237 (max)
    21   6 C       22   6 C                                       1.5270967
    21   6 C       23   1 H                                       1.0939277
    24   6 C       25   8 O                                       1.3326806
    25   8 O       26   6 C                                       1.4199954
    24   6 C       27   8 O                                       1.2041318
    19   6 C       28   8 O                                       1.4122151
    16   6 C       29   1 H                                       1.0952076
     4   7 N       30   1 H                                       1.0050193
     7   6 C       31   1 H                                       1.0799312
     8   6 C       32   1 H                                       1.0804177
     9   6 C       33   1 H                                       1.0801195
    10   6 C       34   1 H                                       1.0805681
    12   6 C       35   1 H                                       1.0919680
    12   6 C       36   1 H                                       1.0936239
    13   6 C       37   1 H                                       1.1051137
    13   6 C       38   1 H                                       1.0924722
    15   6 C       39   1 H                                       1.1070710
    15   6 C       40   1 H                                       1.0932956
    17   6 C       41   1 H                                       1.0916498
    17   6 C       42   1 H                                       1.0921164
    18   6 C       43   1 H                                       1.0936031
    18   6 C       44   1 H                                       1.0908581
    19   6 C       45   1 H                                       1.1034486
    20   6 C       46   1 H                                       1.0943486
    22   6 C       47   1 H                                       1.0899318
    22   6 C       48   1 H                                       1.0918195
    26   6 C       49   1 H                                       1.0914625
    26   6 C       50   1 H                                       1.0871450
    26   6 C       51   1 H                                       1.0926449
    28   8 O       52   1 H                                       0.9633279 (min)

 * 6 distinct bonds (by element types)

   Z      Z             #   av. dist./Å        max./Å        min./Å
   1 H    6 C          24     1.0927977     1.1144000     1.0799312
   6 C    6 C          19     1.4676247     1.5326237     1.3639341
   1 H    7 N           1     1.0050193     1.0050193     1.0050193
   6 C    7 N           5     1.4192950     1.4567452     1.3672967
   1 H    8 O           1     0.9633279     0.9633279     0.9633279
   6 C    8 O           4     1.3422557     1.4199954     1.2041318


optimized geometry written to: xtbopt.xyz


           -------------------------------------------------
          | TOTAL ENERGY              -76.357633385465 Eh   |
          | GRADIENT NORM               0.000421631741 Eh/α |
          | HOMO-LUMO GAP               3.317301348298 eV   |
           -------------------------------------------------

------------------------------------------------------------------------
 * finished run on 2025/05/15 at 16:37:37.434     
------------------------------------------------------------------------
 total:
 * wall-time:     0 d,  0 h,  0 min,  1.945 sec
 *  cpu-time:     0 d,  0 h,  0 min,  1.257 sec
 * ratio c/w:     0.646 speedup
 SCF:
 * wall-time:     0 d,  0 h,  0 min,  0.109 sec
 *  cpu-time:     0 d,  0 h,  0 min,  0.081 sec
 * ratio c/w:     0.748 speedup
 ANC optimizer:
 * wall-time:     0 d,  0 h,  0 min,  1.820 sec
 *  cpu-time:     0 d,  0 h,  0 min,  1.161 sec
 * ratio c/w:     0.638 speedup



----- Single-point -----
      -----------------------------------------------------------      
     |                   =====================                   |     
     |                           x T B                           |     
     |                   =====================                   |     
     |                         S. Grimme                         |     
     |          Mulliken Center for Theoretical Chemistry        |     
     |                    University of Bonn                     |     
      -----------------------------------------------------------      

   * xtb version 6.7.1 (edcfbbe) compiled by 'conda@3ef47c1a292c' on 2024-11-25

   xtb is free software: you can redistribute it and/or modify it under
   the terms of the GNU Lesser General Public License as published by
   the Free Software Foundation, either version 3 of the License, or
   (at your option) any later version.
   
   xtb is distributed in the hope that it will be useful,
   but WITHOUT ANY WARRANTY; without even the implied warranty of
   MERCHANTABILITY or FITNESS FOR A PARTICULAR PURPOSE.  See the
   GNU Lesser General Public License for more details.
   
   Cite this work as:
   * C. Bannwarth, E. Caldeweyher, S. Ehlert, A. Hansen, P. Pracht,
     J. Seibert, S. Spicher, S. Grimme, WIREs Comput. Mol. Sci., 2020, 11,
     e01493. DOI: 10.1002/wcms.1493
   
   for GFN2-xTB:
   * C. Bannwarth, S. Ehlert and S. Grimme., J. Chem. Theory Comput., 2019,
     15, 1652-1671. DOI: 10.1021/acs.jctc.8b01176
   for GFN1-xTB:
   * S. Grimme, C. Bannwarth, P. Shushkov, J. Chem. Theory Comput., 2017,
     13, 1989-2009. DOI: 10.1021/acs.jctc.7b00118
   for GFN0-xTB:
   * P. Pracht, E. Caldeweyher, S. Ehlert, S. Grimme, ChemRxiv, 2019, preprint.
     DOI: 10.26434/chemrxiv.8326202.v1
   for GFN-FF:
   * S. Spicher and S. Grimme, Angew. Chem. Int. Ed., 2020, 59, 15665-15673.
     DOI: 10.1002/anie.202004239
   
   for ALPB and GBSA implicit solvation:
   * S. Ehlert, M. Stahn, S. Spicher, S. Grimme, J. Chem. Theory Comput.,
     2021, 17, 4250-4261. DOI: 10.1021/acs.jctc.1c00471
   
   for ddCOSMO and CPCM-X implicit solvation:
   * M. Stahn, S. Ehlert, S. Grimme, J. Phys. Chem. A,
     2023, XX, XXXX-XXXX. DOI: 10.1021/acs.jpca.3c04382
   
   for DFT-D4:
   * E. Caldeweyher, C. Bannwarth and S. Grimme, J. Chem. Phys., 2017,
     147, 034112. DOI: 10.1063/1.4993215
   * E. Caldeweyher, S. Ehlert, A. Hansen, H. Neugebauer, S. Spicher,
     C. Bannwarth and S. Grimme, J. Chem. Phys., 2019, 150, 154122.
     DOI: 10.1063/1.5090222
   * E. Caldeweyher, J.-M. Mewes, S. Ehlert and S. Grimme, Phys. Chem. Chem. Phys.
     2020, 22, 8499-8512. DOI: 10.1039/D0CP00502A
   
   for sTDA-xTB:
   * S. Grimme and C. Bannwarth, J. Chem. Phys., 2016, 145, 054103.
     DOI: 10.1063/1.4959605
   
   in the mass-spec context:
   * V. Asgeirsson, C. Bauer and S. Grimme, Chem. Sci., 2017, 8, 4879.
     DOI: 10.1039/c7sc00601b
   * J. Koopman and S. Grimme, ACS Omega 2019, 4, 12, 15120-15133.
     DOI: 10.1021/acsomega.9b02011
   
   for metadynamics refer to:
   * S. Grimme, J. Chem. Theory Comput., 2019, 155, 2847-2862
     DOI: 10.1021/acs.jctc.9b00143
   
   for SPH calculations refer to:
   * S. Spicher and S. Grimme, J. Chem. Theory Comput., 2021, 17, 1701-1714
     DOI: 10.1021/acs.jctc.0c01306
   
   for ONIOM refer to:
   * C. Plett, A. Katbashev, S. Ehlert, S. Grimme, M. Bursch,
     Phys. Chem. Chem. Phys., 2023, 25, 17860-17868. DOI: 10.1039/D3CP02178E
   
   for DIPRO refer to:
   * J. Kohn, N. Gildemeister, S. Grimme, D. Fazzi, A. Hansen,
     J. Chem. Phys., 2023, just accepted.
   
   for PTB refer to:
   * S. Grimme, M. Mueller, A. Hansen, J. Chem. Phys., 2023, 158, 124111.
     DOI: 10.1063/5.0137838
   
   with help from (in alphabetical order)
   P. Atkinson, C. Bannwarth, F. Bohle, G. Brandenburg, E. Caldeweyher
   M. Checinski, S. Dohm, S. Ehlert, S. Ehrlich, I. Gerasimov, C. Hölzer
   A. Katbashev, J. Kohn, J. Koopman, C. Lavigne, S. Lehtola, F. März, M. Müller,
   F. Musil, H. Neugebauer, J. Pisarek, C. Plett, P. Pracht, F. Pultar,
   J. Seibert, P. Shushkov, S. Spicher, M. Stahn, M. Steiner, T. Strunk,
   J. Stückrath, T. Rose, and J. Unsleber
   
 * started run on 2025/05/15 at 16:37:37.486     
   ID    Z sym.   atoms
    1    1 H      1, 23, 29-52
    2    6 C      2, 3, 5-13, 15-22, 24, 26
    3    7 N      4, 14
    4    8 O      25, 27, 28

           -------------------------------------------------
          |                Calculation Setup                |
           -------------------------------------------------

          program call               : xtb /rds/general/user/hgt20/home/callum/QDESCP/Yohimbine_rdkit_conf_3/Yohimbine_rdkit_conf_3.xyz --acc 1 --gfn 2 --chrg 0 --uhf 0 --etemp 300 --input /rds/general/user/hgt20/home/callum/QDESCP/Yohimbine_rdkit_conf_3/Yohimbine_rdkit_conf_3_xtb.inp -P 1
          hostname                   : login-c
          coordinate file            : /rds/general/user/hgt20/home/callum/QDESCP/Yohimbine_rdkit_conf_3/Yohimbine_rdkit_conf_3.xyz
          omp threads                :                     1


           -------------------------------------------------
          |                 G F N 2 - x T B                 |
           -------------------------------------------------

        Reference                      10.1021/acs.jctc.8b01176
      * Hamiltonian:
        H0-scaling (s, p, d)           1.850000    2.230000    2.230000
        zeta-weighting                 0.500000
      * Dispersion:
        s8                             2.700000
        a1                             0.520000
        a2                             5.000000
        s9                             5.000000
      * Repulsion:
        kExp                           1.500000    1.000000
        rExp                           1.000000
      * Coulomb:
        alpha                          2.000000
        third order                    shell-resolved
        anisotropic                    true
        a3                             3.000000
        a5                             4.000000
        cn-shift                       1.200000
        cn-exp                         4.000000
        max-rad                        5.000000

q/qsh data taken from xtbrestart
CAMM data taken from xtbrestart

          ...................................................
          :                      SETUP                      :
          :.................................................:
          :  # basis functions                 130          :
          :  # atomic orbitals                 130          :
          :  # shells                           78          :
          :  # electrons                       138          :
          :  max. iterations                   250          :
          :  Hamiltonian                  GFN2-xTB          :
          :  restarted?                       true          :
          :  GBSA solvation                  false          :
          :  PC potential                    false          :
          :  electronic temp.          300.0000000     K    :
          :  accuracy                    1.0000000          :
          :  -> integral cutoff          0.2500000E+02      :
          :  -> integral neglect         0.1000000E-07      :
          :  -> SCF convergence          0.1000000E-05 Eh   :
          :  -> wf. convergence          0.1000000E-03 e    :
          :  Broyden damping             0.4000000          :
          :  net charge                          0          :
          :  unpaired electrons                  0          :
          ...................................................

 iter      E             dE          RMSdq      gap      omega  full diag
   1    -77.3789627 -0.773790E+02  0.122E-05    3.32       0.0  T
   2    -77.3789627 -0.316902E-11  0.833E-06    3.32    1665.2  T
   3    -77.3789627 -0.282796E-11  0.399E-06    3.32    3476.1  T

   *** convergence criteria satisfied after 3 iterations ***

         #    Occupation            Energy/Eh            Energy/eV
      -------------------------------------------------------------
         1        2.0000           -0.7426434             -20.2084
       ...           ...                  ...                  ...
        63        2.0000           -0.4087745             -11.1233
        64        2.0000           -0.4060504             -11.0492
        65        2.0000           -0.4035270             -10.9805
        66        2.0000           -0.4029520             -10.9649
        67        2.0000           -0.3717176             -10.1149
        68        2.0000           -0.3514211              -9.5627
        69        2.0000           -0.3487010              -9.4886 (HOMO)
        70                         -0.2267923              -6.1713 (LUMO)
        71                         -0.2209277              -6.0117
        72                         -0.1892850              -5.1507
        73                         -0.1467633              -3.9936
        74                         -0.0618211              -1.6822
       ...                                ...                  ...
       130                          0.7314585              19.9040
      -------------------------------------------------------------
                  HL-Gap            0.1219087 Eh            3.3173 eV
             Fermi-level           -0.2877466 Eh           -7.8300 eV

 SCC (total)                   0 d,  0 h,  0 min,  0.094 sec
 SCC setup                      ...        0 min,  0.000 sec (  0.511%)
 Dispersion                     ...        0 min,  0.001 sec (  0.711%)
 classical contributions        ...        0 min,  0.000 sec (  0.230%)
 integral evaluation            ...        0 min,  0.010 sec ( 10.934%)
 iterations                     ...        0 min,  0.010 sec ( 10.851%)
 molecular gradient             ...        0 min,  0.072 sec ( 76.457%)
 printout                       ...        0 min,  0.000 sec (  0.299%)

         :::::::::::::::::::::::::::::::::::::::::::::::::::::
         ::                     SUMMARY                     ::
         :::::::::::::::::::::::::::::::::::::::::::::::::::::
         :: total energy             -76.357633385487 Eh    ::
         :: gradient norm              0.000421971512 Eh/a0 ::
         :: HOMO-LUMO gap              3.317304832687 eV    ::
         ::.................................................::
         :: SCC energy               -77.378600537903 Eh    ::
         :: -> isotropic ES            0.080619962302 Eh    ::
         :: -> anisotropic ES          0.010453059844 Eh    ::
         :: -> anisotropic XC          0.026858024020 Eh    ::
         :: -> dispersion             -0.058729468268 Eh    ::
         :: repulsion energy           1.020967152416 Eh    ::
         :: add. restraining           0.000000000000 Eh    ::
         :: total charge              -0.000000000000 e     ::
         :::::::::::::::::::::::::::::::::::::::::::::::::::::

           -------------------------------------------------
          |                Property Printout                |
           -------------------------------------------------

    * Orbital Energies and Occupations

         #    Occupation            Energy/Eh            Energy/eV
      -------------------------------------------------------------
         1        2.0000           -0.7426434             -20.2084
       ...           ...                  ...                  ...
        57        2.0000           -0.4394925             -11.9592
        58        2.0000           -0.4378669             -11.9150
        59        2.0000           -0.4315073             -11.7419
        60        2.0000           -0.4274211             -11.6307
        61        2.0000           -0.4242006             -11.5431
        62        2.0000           -0.4171622             -11.3516
        63        2.0000           -0.4087745             -11.1233
        64        2.0000           -0.4060504             -11.0492
        65        2.0000           -0.4035270             -10.9805
        66        2.0000           -0.4029520             -10.9649
        67        2.0000           -0.3717176             -10.1149
        68        2.0000           -0.3514211              -9.5627
        69        2.0000           -0.3487010              -9.4886 (HOMO)
        70                         -0.2267923              -6.1713 (LUMO)
        71                         -0.2209277              -6.0117
        72                         -0.1892850              -5.1507
        73                         -0.1467633              -3.9936
        74                         -0.0618211              -1.6822
        75                          0.0066595               0.1812
        76                          0.0097604               0.2656
        77                          0.0206987               0.5632
        78                          0.0275859               0.7507
        79                          0.0391976               1.0666
        80                          0.0546572               1.4873
       ...                                ...                  ...
       130                          0.7314585              19.9040
      -------------------------------------------------------------
                  HL-Gap            0.1219087 Eh            3.3173 eV
             Fermi-level           -0.2877466 Eh           -7.8300 eV

     #   Z          covCN         q      C6AA      α(0)
     1   1 H        0.921     0.008     2.930     2.677
     2   6 C        3.819     0.050    19.717     6.319
     3   6 C        3.089     0.028    27.278     8.561
     4   7 N        2.775    -0.119    23.590     7.214
     5   6 C        3.089     0.044    26.918     8.504
     6   6 C        3.107    -0.020    28.360     8.725
     7   6 C        2.911    -0.037    28.931     8.820
     8   6 C        2.920    -0.042    29.055     8.839
     9   6 C        2.924    -0.039    28.958     8.825
    10   6 C        2.908    -0.054    29.337     8.881
    11   6 C        3.071    -0.037    28.832     8.804
    12   6 C        3.808    -0.059    21.630     6.620
    13   6 C        3.763     0.013    20.394     6.437
    14   7 N        2.739    -0.180    24.893     7.410
    15   6 C        3.768     0.012    20.409     6.438
    16   6 C        3.864    -0.027    21.015     6.519
    17   6 C        3.808    -0.060    21.654     6.624
    18   6 C        3.805    -0.071    21.855     6.655
    19   6 C        3.736     0.124    18.638     6.161
    20   6 C        3.858    -0.049    21.407     6.580
    21   6 C        3.863    -0.021    20.899     6.501
    22   6 C        3.813    -0.065    21.732     6.635
    23   1 H        0.924     0.061     2.190     2.314
    24   6 C        2.734     0.362    20.859     7.477
    25   8 O        1.704    -0.245    18.063     5.738
    26   6 C        3.660     0.032    20.305     6.466
    27   8 O        0.856    -0.416    21.995     6.288
    28   8 O        1.656    -0.443    21.706     6.289
    29   1 H        0.924     0.044     2.398     2.422
    30   1 H        0.860     0.156     1.362     1.828
    31   1 H        0.926     0.026     2.650     2.545
    32   1 H        0.926     0.024     2.679     2.560
    33   1 H        0.926     0.025     2.663     2.552
    34   1 H        0.926     0.020     2.732     2.585
    35   1 H        0.924     0.039     2.461     2.453
    36   1 H        0.924     0.047     2.364     2.404
    37   1 H        0.922     0.006     2.960     2.691
    38   1 H        0.924     0.031     2.576     2.510
    39   1 H        0.922     0.005     2.981     2.700
    40   1 H        0.924     0.033     2.549     2.497
    41   1 H        0.924     0.034     2.525     2.485
    42   1 H        0.924     0.045     2.382     2.414
    43   1 H        0.924     0.034     2.529     2.487
    44   1 H        0.924     0.041     2.442     2.444
    45   1 H        0.923     0.021     2.719     2.579
    46   1 H        0.924     0.057     2.232     2.336
    47   1 H        0.925     0.033     2.544     2.494
    48   1 H        0.924     0.044     2.391     2.418
    49   1 H        0.924     0.066     2.128     2.281
    50   1 H        0.925     0.068     2.109     2.271
    51   1 H        0.924     0.061     2.190     2.314
    52   1 H        0.805     0.292     0.747     1.358

[...]
     Phys. Chem. Chem. Phys., 2023, 25, 17860-17868. DOI: 10.1039/D3CP02178E
   
   for DIPRO refer to:
   * J. Kohn, N. Gildemeister, S. Grimme, D. Fazzi, A. Hansen,
     J. Chem. Phys., 2023, just accepted.
   
   for PTB refer to:
   * S. Grimme, M. Mueller, A. Hansen, J. Chem. Phys., 2023, 158, 124111.
     DOI: 10.1063/5.0137838
   
   with help from (in alphabetical order)
   P. Atkinson, C. Bannwarth, F. Bohle, G. Brandenburg, E. Caldeweyher
   M. Checinski, S. Dohm, S. Ehlert, S. Ehrlich, I. Gerasimov, C. Hölzer
   A. Katbashev, J. Kohn, J. Koopman, C. Lavigne, S. Lehtola, F. März, M. Müller,
   F. Musil, H. Neugebauer, J. Pisarek, C. Plett, P. Pracht, F. Pultar,
   J. Seibert, P. Shushkov, S. Spicher, M. Stahn, M. Steiner, T. Strunk,
   J. Stückrath, T. Rose, and J. Unsleber
   
 * started run on 2025/05/15 at 16:37:40.428     
   ID    Z sym.   atoms
    1    1 H      1, 23, 29-52
    2    6 C      2, 3, 5-13, 15-22, 24, 26
    3    7 N      4, 14
    4    8 O      25, 27, 28

           -------------------------------------------------
          |                Calculation Setup                |
           -------------------------------------------------

          program call               : xtb /rds/general/user/hgt20/home/callum/QDESCP/Yohimbine_rdkit_conf_3/Yohimbine_rdkit_conf_3.xyz --acc 1 --gfn 2 --chrg 0 --uhf 2 --etemp 300 --input /rds/general/user/hgt20/home/callum/QDESCP/Yohimbine_rdkit_conf_3/Yohimbine_rdkit_conf_3_xtb.inp -P 1
          hostname                   : login-c
          coordinate file            : /rds/general/user/hgt20/home/callum/QDESCP/Yohimbine_rdkit_conf_3/Yohimbine_rdkit_conf_3.xyz
          omp threads                :                     1


           -------------------------------------------------
          |                 G F N 2 - x T B                 |
           -------------------------------------------------

        Reference                      10.1021/acs.jctc.8b01176
      * Hamiltonian:
        H0-scaling (s, p, d)           1.850000    2.230000    2.230000
        zeta-weighting                 0.500000
      * Dispersion:
        s8                             2.700000
        a1                             0.520000
        a2                             5.000000
        s9                             5.000000
      * Repulsion:
        kExp                           1.500000    1.000000
        rExp                           1.000000
      * Coulomb:
        alpha                          2.000000
        third order                    shell-resolved
        anisotropic                    true
        a3                             3.000000
        a5                             4.000000
        cn-shift                       1.200000
        cn-exp                         4.000000
        max-rad                        5.000000


          ...................................................
          :                      SETUP                      :
          :.................................................:
          :  # basis functions                 130          :
          :  # atomic orbitals                 130          :
          :  # shells                           78          :
          :  # electrons                       138          :
          :  max. iterations                   250          :
          :  Hamiltonian                  GFN2-xTB          :
          :  restarted?                      false          :
          :  GBSA solvation                  false          :
          :  PC potential                    false          :
          :  electronic temp.          300.0000000     K    :
          :  accuracy                    1.0000000          :
          :  -> integral cutoff          0.2500000E+02      :
          :  -> integral neglect         0.1000000E-07      :
          :  -> SCF convergence          0.1000000E-05 Eh   :
          :  -> wf. convergence          0.1000000E-03 e    :
          :  Broyden damping             0.4000000          :
          :  net charge                          0          :
          :  unpaired electrons                  2          :
          ...................................................

 iter      E             dE          RMSdq      gap      omega  full diag
   1    -77.0341214 -0.770341E+02  0.356E+00    0.98       0.0  T
   2    -76.8739600  0.160161E+00  0.303E+00    0.74       1.0  T
   3    -76.8390565  0.349034E-01  0.207E+00    0.94       1.0  T
   4    -76.9761169 -0.137060E+00  0.186E+00    0.93       1.0  T
   5    -77.0393132 -0.631964E-01  0.175E+00    0.82       1.0  T
   6    -77.2186697 -0.179356E+00  0.913E-01    0.54       1.0  T
   7    -77.2365039 -0.178342E-01  0.678E-01    0.50       1.0  T
   8    -77.2380300 -0.152610E-02  0.598E-01    0.48       1.0  T
   9    -77.1707340  0.672960E-01  0.944E-01    0.47       1.0  T
  10    -77.2424026 -0.716687E-01  0.307E-01    0.34       1.0  T
  11    -77.2452194 -0.281680E-02  0.101E-01    0.17       1.0  T
  12    -77.2426326  0.258681E-02  0.178E-01    0.09       1.0  T
  13    -77.2454976 -0.286498E-02  0.712E-02    0.16       1.0  T
  14    -77.2455244 -0.268211E-04  0.563E-02    0.12       1.0  T
  15    -77.2457297 -0.205312E-03  0.337E-02    0.14       1.0  T
  16    -77.2457398 -0.100695E-04  0.296E-02    0.13       1.0  T
  17    -77.2457879 -0.480745E-04  0.175E-02    0.13       1.0  T
  18    -77.2458067 -0.188323E-04  0.614E-03    0.13       2.3  T
  19    -77.2458093 -0.258695E-05  0.884E-04    0.13      15.7  T
  20    -77.2458093 -0.295513E-07  0.450E-04    0.13      30.8  T
  21    -77.2458094 -0.132378E-07  0.261E-04    0.13      53.2  T

   *** convergence criteria satisfied after 21 iterations ***

         #    Occupation            Energy/Eh            Energy/eV
      -------------------------------------------------------------
         1        2.0000           -0.7327492             -19.9391
       ...           ...                  ...                  ...
        64        2.0000           -0.4060831             -11.0501
        65        2.0000           -0.4055079             -11.0344
        66        2.0000           -0.3970216             -10.8035
        67        2.0000           -0.3722206             -10.1286
        68        1.9669           -0.3625614              -9.8658
        69        1.0331           -0.3561481              -9.6913
        70        0.9293           -0.2197388              -5.9794 (HOMO)
        71        0.0707           -0.2148445              -5.8462 (LUMO)
        72                         -0.1883012              -5.1239
        73                         -0.1531931              -4.1686
        74                         -0.0601551              -1.6369
        75                         -0.0018077              -0.0492
       ...                                ...                  ...
       130                          0.7301772              19.8691
      -------------------------------------------------------------
                  HL-Gap            0.0048944 Eh            0.1332 eV
             Fermi-level           -0.2883232 Eh           -7.8457 eV

 transition dipole moment (au) for excitation:          69          70
     X       Y       Z   
   1.3721   0.8403   0.6765  total (au/Debye):    1.745   4.436
 dE (eV)             :    3.712
 oscillator strength :  0.39178E+00

 SCC (total)                   0 d,  0 h,  0 min,  0.178 sec
 SCC setup                      ...        0 min,  0.000 sec (  0.265%)
 Dispersion                     ...        0 min,  0.001 sec (  0.405%)
 classical contributions        ...        0 min,  0.000 sec (  0.121%)
 integral evaluation            ...        0 min,  0.010 sec (  5.819%)
 iterations                     ...        0 min,  0.091 sec ( 51.229%)
 molecular gradient             ...        0 min,  0.066 sec ( 37.204%)
 printout                       ...        0 min,  0.009 sec (  4.955%)

         :::::::::::::::::::::::::::::::::::::::::::::::::::::
         ::                     SUMMARY                     ::
         :::::::::::::::::::::::::::::::::::::::::::::::::::::
         :: total energy             -76.224480051687 Eh    ::
         :: gradient norm              0.156582850897 Eh/a0 ::
         :: HOMO-LUMO gap              0.133182838664 eV    ::
         ::.................................................::
         :: SCC energy               -77.245447204103 Eh    ::
         :: -> isotropic ES            0.082796954960 Eh    ::
         :: -> anisotropic ES          0.009777500974 Eh    ::
         :: -> anisotropic XC          0.025640476063 Eh    ::
         :: -> dispersion             -0.058587927080 Eh    ::
         :: repulsion energy           1.020967152416 Eh    ::
         :: add. restraining           0.000000000000 Eh    ::
         :: total charge              -0.000000000000 e     ::
         :::::::::::::::::::::::::::::::::::::::::::::::::::::

           -------------------------------------------------
          |                Property Printout                |
           -------------------------------------------------

    * Orbital Energies and Occupations

         #    Occupation            Energy/Eh            Energy/eV
      -------------------------------------------------------------
         1        2.0000           -0.7327492             -19.9391
       ...           ...                  ...                  ...
        58        2.0000           -0.4380984             -11.9213
        59        2.0000           -0.4344680             -11.8225
        60        2.0000           -0.4294712             -11.6865
        61        2.0000           -0.4232258             -11.5166
        62        2.0000           -0.4156673             -11.3109
        63        2.0000           -0.4097684             -11.1504
        64        2.0000           -0.4060831             -11.0501
        65        2.0000           -0.4055079             -11.0344
        66        2.0000           -0.3970216             -10.8035
        67        2.0000           -0.3722206             -10.1286
        68        1.9669           -0.3625614              -9.8658
        69        1.0331           -0.3561481              -9.6913
        70        0.9293           -0.2197388              -5.9794 (HOMO)
        71        0.0707           -0.2148445              -5.8462 (LUMO)
        72                         -0.1883012              -5.1239
        73                         -0.1531931              -4.1686
        74                         -0.0601551              -1.6369
        75                         -0.0018077              -0.0492
        76                          0.0114064               0.3104
        77                          0.0175761               0.4783
        78                          0.0289720               0.7884
        79                          0.0379599               1.0329
        80                          0.0510912               1.3903
        81                          0.0565356               1.5384
       ...                                ...                  ...
       130                          0.7301772              19.8691
      -------------------------------------------------------------
                  HL-Gap            0.0048944 Eh            0.1332 eV
             Fermi-level           -0.2883232 Eh           -7.8457 eV

     #   Z          covCN         q      C6AA      α(0)
     1   1 H        0.921     0.020     2.736     2.587
     2   6 C        3.819     0.048    19.750     6.325
     3   6 C        3.089     0.012    27.644     8.618
     4   7 N        2.775    -0.106    23.326     7.173
     5   6 C        3.089     0.047    26.842     8.492
     6   6 C        3.107    -0.031    28.629     8.767
     7   6 C        2.911    -0.048    29.202     8.861
     8   6 C        2.920    -0.042    29.052     8.839
     9   6 C        2.924    -0.039    28.962     8.825
    10   6 C        2.908    -0.069    29.725     8.940
    11   6 C        3.071    -0.005    28.080     8.689
    12   6 C        3.808    -0.061    21.672     6.627
    13   6 C        3.763     0.011    20.428     6.443
    14   7 N        2.739    -0.163    24.532     7.356
    15   6 C        3.768     0.009    20.460     6.447
    16   6 C        3.864    -0.027    21.013     6.519
    17   6 C        3.808    -0.060    21.646     6.623
    18   6 C        3.805    -0.071    21.858     6.656
    19   6 C        3.736     0.123    18.654     6.164
    20   6 C        3.858    -0.049    21.404     6.580
    21   6 C        3.863    -0.021    20.907     6.502
    22   6 C        3.813    -0.066    21.752     6.638
    23   1 H        0.924     0.061     2.182     2.310
    24   6 C        2.734     0.351    21.048     7.511
    25   8 O        1.704    -0.257    18.252     5.768
    26   6 C        3.660     0.035    20.263     6.459
    27   8 O        0.856    -0.432    22.326     6.335
    28   8 O        1.656    -0.443    21.694     6.288
    29   1 H        0.924     0.044     2.396     2.421
    30   1 H        0.860     0.162     1.321     1.801
    31   1 H        0.926     0.017     2.779     2.607
    32   1 H        0.926     0.021     2.725     2.582
    33   1 H        0.926     0.021     2.719     2.579
    34   1 H        0.926     0.013     2.844     2.637
    35   1 H        0.924     0.052     2.298     2.370
    36   1 H        0.924     0.063     2.170     2.304
    37   1 H        0.922     0.013     2.849     2.640
    38   1 H        0.924     0.036     2.502     2.474
    39   1 H        0.922     0.010     2.890     2.659
    40   1 H        0.924     0.035     2.520     2.483
    41   1 H        0.924     0.033     2.539     2.492
    42   1 H        0.924     0.045     2.381     2.413
    43   1 H        0.924     0.034     2.536     2.490
    44   1 H        0.924     0.040     2.450     2.448
    45   1 H        0.923     0.022     2.705     2.572
    46   1 H        0.924     0.053     2.277     2.360
    47   1 H        0.925     0.038     2.473     2.459
    48   1 H        0.924     0.046     2.364     2.405
    49   1 H        0.924     0.064     2.155     2.296
    50   1 H        0.925     0.063     2.159     2.298
    51   1 H        0.924     0.058     2.222     2.331
    52   1 H        0.805     0.290     0.751     1.361

 Mol. C6AA /au·bohr⁶  :      27229.138762
 Mol. C8AA /au·bohr⁸  :     629061.266385
 Mol. α(0) /au        :        250.819102


Wiberg/Mayer (AO) data.
largest (>0.10) Wiberg bond orders for each atom

 ---------------------------------------------------------------------------
     #   Z sym  total        # sym  WBO       # sym  WBO       # sym  WBO
 ---------------------------------------------------------------------------
     1   1 H    0.978 --     2 C    0.921
     2   6 C    3.983 --     3 C    1.015    14 N    0.993    22 C    0.973
                             1 H    0.921
     3   6 C    3.788 --     4 N    1.230    11 C    1.202     2 C    1.015
                            10 C    0.112
     4   7 N    3.531 --     3 C    1.230     5 C    1.123    30 H    0.943
     5   6 C    3.949 --    10 C    1.395     6 C    1.238     4 N    1.123
     6   6 C    3.963 --    11 C    1.331     5 C    1.238     7 C    1.172
     7   6 C    3.796 --     8 C    1.350     6 C    1.172    31 H    0.970
     8   6 C    3.981 --     9 C    1.501     7 C    1.350    32 H    0.972
     9   6 C    3.887 --     8 C    1.501    10 C    1.183    33 H    0.973
    10   6 C    3.831 --     5 C    1.395     9 C    1.183    34 H    0.969
                             3 C    0.112
    11   6 C    3.882 --     6 C    1.331     3 C    1.202    12 C    1.032
    12   6 C    3.994 --    11 C    1.032    13 C    0.998    35 H    0.962
                            36 H    0.946
    13   6 C    3.983 --    14 N    1.001    12 C    0.998    38 H    0.972
                            37 H    0.965
    14   7 N    3.129 --    15 C    1.005    13 C    1.001     2 C    0.993
    15   6 C    3.984 --    14 N    1.005    16 C    0.990    40 H    0.971
                            39 H    0.960
    16   6 C    3.993 --    17 C    0.998    15 C    0.990    21 C    0.985
                            29 H    0.964
    17   6 C    3.996 --    18 C    1.008    16 C    0.998    41 H    0.976
                            42 H    0.975
    18   6 C    3.996 --    17 C    1.008    19 C    0.987    44 H    0.976
                            43 H    0.973
    19   6 C    3.953 --    28 O    0.991    18 C    0.987    45 H    0.960
                            20 C    0.956
    20   6 C    3.992 --    21 C    0.985    46 H    0.957    19 C    0.956
                            24 C    0.952
    21   6 C    3.990 --    22 C    0.995    20 C    0.985    16 C    0.985
                            23 H    0.961
    22   6 C    3.984 --    21 C    0.995    48 H    0.975     2 C    0.973
                            47 H    0.971
    23   1 H    0.996 --    21 C    0.961
    24   6 C    3.850 --    27 O    1.713    25 O    1.120    20 C    0.952
    25   8 O    2.290 --    24 C    1.120    26 C    0.960    27 O    0.162
    26   6 C    3.930 --    50 H    0.983    51 H    0.977    49 H    0.977
                            25 O    0.960
    27   8 O    1.978 --    24 C    1.713    25 O    0.162
    28   8 O    1.961 --    19 C    0.991    52 H    0.898
    29   1 H    0.998 --    16 C    0.964
    30   1 H    0.973 --     4 N    0.943
    31   1 H    0.999 --     7 C    0.970
    32   1 H    0.999 --     8 C    0.972
    33   1 H    0.999 --     9 C    0.973
    34   1 H    0.999 --    10 C    0.969
    35   1 H    0.993 --    12 C    0.962
    36   1 H    0.986 --    12 C    0.946
    37   1 H    0.996 --    13 C    0.965
    38   1 H    0.998 --    13 C    0.972
    39   1 H    0.996 --    15 C    0.960
    40   1 H    0.998 --    15 C    0.971
    41   1 H    0.998 --    17 C    0.976
    42   1 H    0.998 --    17 C    0.975
    43   1 H    0.998 --    18 C    0.973
    44   1 H    0.998 --    18 C    0.976
    45   1 H    0.999 --    19 C    0.960
    46   1 H    0.996 --    20 C    0.957
    47   1 H    0.998 --    22 C    0.971
    48   1 H    0.997 --    22 C    0.975
    49   1 H    0.995 --    26 C    0.977
    50   1 H    0.996 --    26 C    0.983
    51   1 H    0.996 --    26 C    0.977
    52   1 H    0.916 --    28 O    0.898
 ---------------------------------------------------------------------------

Topologies differ in total number of bonds
Writing topology from bond orders to xtbtopo.mol

molecular dipole:
                 x           y           z       tot (Debye)
 q only:        0.022      -0.864       1.161
   full:        0.290      -0.756       1.597       4.553
molecular quadrupole (traceless):
                xx          xy          yy          xz          yz          zz
 q only:      -13.882      -8.497      13.708       2.727       1.191       0.173
  q+dip:      -15.144     -10.266      14.546       4.610      -0.662       0.599
   full:      -14.418     -10.704      13.313       4.164      -0.359       1.105


           -------------------------------------------------
          | TOTAL ENERGY              -76.224480051687 Eh   |
          | GRADIENT NORM               0.156582850897 Eh/α |
          | HOMO-LUMO GAP               0.133182838664 eV   |
           -------------------------------------------------

------------------------------------------------------------------------
 * finished run on 2025/05/15 at 16:37:40.621     
------------------------------------------------------------------------
 total:
 * wall-time:     0 d,  0 h,  0 min,  0.193 sec
 *  cpu-time:     0 d,  0 h,  0 min,  0.129 sec
 * ratio c/w:     0.665 speedup
 SCF:
 * wall-time:     0 d,  0 h,  0 min,  0.178 sec
 *  cpu-time:     0 d,  0 h,  0 min,  0.115 sec
 * ratio c/w:     0.643 speedup


