57
 energy: -90.582175866606 gnorm: 0.000566761932 xtb: 6.7.1 (edcfbbe)
C            3.50708546245900        1.92021037179358        0.52446417004421
N            3.75830245205332        0.53964165983738        0.17886310404624
C            5.00830068355990        0.03147836066303        0.19377494798322
N            5.19227248113550       -1.24300445568279       -0.06203944537035
C            6.45558032414437       -1.70653243418438       -0.03503471662945
C            7.55221283625641       -0.95441908489351        0.24108918463237
C            7.39556174435586        0.44262041145420        0.52077366485899
N            6.05133130466797        0.85825752984758        0.47302148673910
O            8.25243821636097        1.26354060201057        0.78044759018862
C            2.64198469155055       -0.33476866156090       -0.14623478657942
C            1.73743613840579       -0.57376161411324        1.06664041461756
C            0.59747191544314       -1.51787762040376        0.67391787264745
C            1.82147428864082        0.20142471731160       -1.32040869652599
C            0.65500457679208       -0.74704828482736       -1.60178860542046
N           -0.18221059378557       -0.97994093592094       -0.43511381021996
C           -1.00530933376153        0.08390216323681       -0.08974496877515
N           -0.80001627569032        1.34672295547779       -0.34278703117491
C           -1.89649882079808        2.00837983066056        0.15318780581395
C           -2.78515929556641        1.07388574735397        0.73050193901056
N           -2.18638347090244       -0.15589419320651        0.56922567505111
C           -2.82198735709589       -1.42978458493483        0.79006560517664
C           -4.03689835141886       -1.56718889979814       -0.09608018834822
C           -5.28654598163119       -1.86242161570571        0.42860622281313
C           -6.39296389520948       -1.96003210815468       -0.39686278695255
C           -6.22924720947538       -1.75145239538707       -1.75311970743823
F           -7.30313499180917       -1.84004846965705       -2.56319757912969
C           -4.99469369804478       -1.45622179810791       -2.30344311701128
C           -3.90046215670670       -1.36764860302163       -1.46502722644357
C           -3.97607698947050        1.46512874236160        1.31617148193917
C           -4.26092423949177        2.81719696609122        1.31504218511042
C           -3.38768018044281        3.74730473851335        0.75187326069932
C           -2.19946585617447        3.36331876871276        0.16429899576375
H            2.43539334380648        2.09446207545950        0.52648232745083
H            3.95754772214495        2.60163628504212       -0.20343971255819
H            3.88974598258221        2.15394000885322        1.52223173846239
H            6.53804882883428       -2.76319929506019       -0.25383853329229
H            8.54609564207759       -1.36684552753191        0.25563412549169
H            5.90544891668437        1.84256031446322        0.65423844159567
H            3.10094581841579       -1.28660921668070       -0.43160231762564
H            1.30556467469313        0.36900594549943        1.40909044447134
H            2.31790775467376       -1.00950069870581        1.88070131338484
H            1.00226706501546       -2.48214904816150        0.35387180031101
H           -0.06073794737410       -1.68023301942784        1.53009023183046
H            1.39666680103010        1.17816270475303       -1.08977117161712
H            2.45095129276111        0.28580311461351       -2.20659873749567
H            0.02471759259536       -0.33347097855442       -2.39049955809341
H            1.02911115592224       -1.72424069164263       -1.92196798040207
H           -3.10526125003698       -1.52301408351980        1.84408984873637
H           -2.09709672919656       -2.20982912783697        0.54159668681208
H           -5.40143140780361       -2.02142224144062        1.49063025841591
H           -7.37029215994664       -2.18820063690744       -0.00287380874967
H           -4.90376508691428       -1.30092193085825       -3.36630550393707
H           -2.92741088783874       -1.13765197786661       -1.87313927367014
H           -4.65645318157348        0.74846403326800        1.74988904203711
H           -5.18175367158961        3.16300089267011        1.76046337506513
H           -3.65288198835310        4.79387885176948        0.77751888631592
H           -1.52402669897150        4.08130644208407       -0.27257486399973
