57
 energy: -90.582303844356 gnorm: 0.000293401696 xtb: 6.7.1 (edcfbbe)
C            3.69242937346314       -1.64505922056372        0.21685219136300
N            3.78697933046738       -0.22798117265387        0.48420932755221
C            4.97540274460655        0.35674895578797        0.74339037378714
N            5.02720735126011        1.65051968602361        0.95958122110220
C            6.23375525103126        2.19135264641010        1.21126696946100
C            7.40039567921019        1.49758715186960        1.25797431432687
C            7.38703632700612        0.08210011725842        1.03305745473888
N            6.09461205384640       -0.41494870207630        0.77875983108800
O            8.32126082598849       -0.69427862161989        1.03877374373568
C            2.59019039564012        0.59652165310371        0.41822999486859
C            1.96472903186812        0.57963607799136       -0.97794825029150
C            0.70770921646748        1.45035241102421       -0.98304269915476
C            1.55405393407135        0.18126303067188        1.46656667657898
C            0.33087066310818        1.09804136460081        1.36443559190125
N           -0.25812129492034        1.05660418174049        0.03139008190084
C           -0.95656639954109       -0.10659942006670       -0.25900134841462
N           -0.56605388869677       -1.07396791502088       -1.04194793347510
C           -1.60044601984014       -1.97678286835606       -1.06264683333568
C           -2.64852367280555       -1.50664287517748       -0.23989674226990
N           -2.20869094208201       -0.30496852508201        0.27065784718598
C           -3.02056173040103        0.64753593415236        0.98349783253776
C           -4.22979548392000        1.02900073463200        0.16360872182522
C           -5.51100150039922        0.95764172866228        0.69151797212395
C           -6.61072517297780        1.29457608057421       -0.07775370826508
C           -6.40807577142616        1.69785016535683       -1.38430806964414
F           -7.47490323061412        2.02260916276274       -2.14180818516949
C           -5.14194614197943        1.77786431982302       -1.93644469040973
C           -4.05522715523298        1.44259925672676       -1.15218170128176
C           -3.81985871529754       -2.22334403065635       -0.07017157400171
C           -3.92203901261731       -3.42608367745065       -0.74291290260505
C           -2.89105186452139       -3.89997252253119       -1.55374547862509
C           -1.72071603723733       -3.18959475841507       -1.72772671246955
H            4.00452015804899       -2.23381586415259        1.08482064089508
H            2.65940766063399       -1.89389886550370       -0.00633180181213
H            4.29912740989707       -1.92838245683305       -0.64823634644784
H            6.20716460551603        3.26039103474056        1.37768328067242
H            8.34575845451308        1.97070792767475        1.45949383798593
H            6.04925782664473       -1.41198258988395        0.61543146979946
H            2.93265864354983        1.61111194016261        0.64485759466299
H            1.66530335563438       -0.42938481645485       -1.26128710944326
H            2.67969207903164        0.95868205352110       -1.70852491521349
H            0.96906334420983        2.49390507872518       -0.78329194996627
H            0.21750729646108        1.38722056437852       -1.95545510632495
H            1.22925967299713       -0.84710412157392        1.29541998229142
H            1.98699243219341        0.24914230039814        2.46541366506976
H            0.62070602191888        2.13381250115202        1.56310955830862
H           -0.41869117535240        0.79647080652629        2.09903848128628
H           -2.40682813560853        1.53486243134276        1.16387658558839
H           -3.33221198577020        0.22444192845786        1.94529279010432
H           -5.65584374361330        0.63827859061680        1.71345906445575
H           -7.61196263880320        1.24260709384520        0.31924658564652
H           -5.02101486517469        2.09707540307724       -2.95929180955094
H           -3.05837154125118        1.49856152448391       -1.56405668209411
H           -4.62195714351545       -1.85878793881267        0.55320089578232
H           -4.82195764357986       -4.01372755194110       -0.63924742151512
H           -3.01672668714925       -4.84683253780034       -2.05772360578943
H           -0.92318154495714       -3.55343478570110       -2.35563100107192
