26
 energy: -46.979097641919 gnorm: 0.000812526616 xtb: 6.7.1 (edcfbbe)
N            4.81220778666714       -0.33070640690571       -0.34378020537309
C            3.49660423500449       -0.08109174861291       -0.23091811169651
N            3.12233549768325        1.17545388024288       -0.27240532469774
C            1.84179677452753        1.54649382897019       -0.16196139519563
N            0.87551337592029        0.48115320100549       -0.02077679888144
C           -0.51021418234956        0.84413696066653        0.07902008088439
C           -1.00771564946713        0.84780996405436        1.53501286686514
S           -2.79639417024632        0.56075683323048        1.40393348220563
C           -2.63528453646486        0.18490057824038       -0.40781282967118
O           -1.29442638115544       -0.08384890119654       -0.63397673061134
C           -3.48572029295786       -1.00868165446371       -0.81657347917899
O           -4.81704924016148       -0.57882265131888       -0.90866068808014
C            1.25855116433665       -0.80917217860870        0.02986697894012
C            2.56527900883218       -1.15159961763942       -0.06746442599994
O            1.43961195558020        2.68469598336898       -0.16334469693500
H            5.17161602347755       -1.26684322780223       -0.33795355154769
H            5.43048800785071        0.44984643635152       -0.47306187062779
H           -0.60970078234630        1.85577276712156       -0.34699975842079
H           -0.81318134193828        1.79767134200448        2.02555374501966
H           -0.55697296318568        0.03198400281039        2.10260642142417
H           -2.97612521942881        1.08248914543490       -0.94147208041437
H           -3.36732415369959       -1.80809583285565       -0.07342169793697
H           -3.11153779714886       -1.36912518653523       -1.78680927367761
H           -5.38634849828054       -1.33924820620930       -1.06493427321801
H            0.46689762946658       -1.53808452205263        0.13232776193476
H            2.88709374948393       -2.17784478930078       -0.03379414511041
