----- Optimization -----
      -----------------------------------------------------------      
     |                   =====================                   |     
     |                           x T B                           |     
     |                   =====================                   |     
     |                         S. Grimme                         |     
     |          Mulliken Center for Theoretical Chemistry        |     
     |                    University of Bonn                     |     
      -----------------------------------------------------------      

   * xtb version 6.7.1 (edcfbbe) compiled by 'conda@3ef47c1a292c' on 2024-11-25

   xtb is free software: you can redistribute it and/or modify it under
   the terms of the GNU Lesser General Public License as published by
   the Free Software Foundation, either version 3 of the License, or
   (at your option) any later version.
   
   xtb is distributed in the hope that it will be useful,
   but WITHOUT ANY WARRANTY; without even the implied warranty of
   MERCHANTABILITY or FITNESS FOR A PARTICULAR PURPOSE.  See the
   GNU Lesser General Public License for more details.
   
   Cite this work as:
   * C. Bannwarth, E. Caldeweyher, S. Ehlert, A. Hansen, P. Pracht,
     J. Seibert, S. Spicher, S. Grimme, WIREs Comput. Mol. Sci., 2020, 11,
     e01493. DOI: 10.1002/wcms.1493
   
   for GFN2-xTB:
   * C. Bannwarth, S. Ehlert and S. Grimme., J. Chem. Theory Comput., 2019,
     15, 1652-1671. DOI: 10.1021/acs.jctc.8b01176
   for GFN1-xTB:
   * S. Grimme, C. Bannwarth, P. Shushkov, J. Chem. Theory Comput., 2017,
     13, 1989-2009. DOI: 10.1021/acs.jctc.7b00118
   for GFN0-xTB:
   * P. Pracht, E. Caldeweyher, S. Ehlert, S. Grimme, ChemRxiv, 2019, preprint.
     DOI: 10.26434/chemrxiv.8326202.v1
   for GFN-FF:
   * S. Spicher and S. Grimme, Angew. Chem. Int. Ed., 2020, 59, 15665-15673.
     DOI: 10.1002/anie.202004239
   
   for ALPB and GBSA implicit solvation:
   * S. Ehlert, M. Stahn, S. Spicher, S. Grimme, J. Chem. Theory Comput.,
     2021, 17, 4250-4261. DOI: 10.1021/acs.jctc.1c00471
   
   for ddCOSMO and CPCM-X implicit solvation:
   * M. Stahn, S. Ehlert, S. Grimme, J. Phys. Chem. A,
     2023, XX, XXXX-XXXX. DOI: 10.1021/acs.jpca.3c04382
   
   for DFT-D4:
   * E. Caldeweyher, C. Bannwarth and S. Grimme, J. Chem. Phys., 2017,
     147, 034112. DOI: 10.1063/1.4993215
   * E. Caldeweyher, S. Ehlert, A. Hansen, H. Neugebauer, S. Spicher,
     C. Bannwarth and S. Grimme, J. Chem. Phys., 2019, 150, 154122.
     DOI: 10.1063/1.5090222
   * E. Caldeweyher, J.-M. Mewes, S. Ehlert and S. Grimme, Phys. Chem. Chem. Phys.
     2020, 22, 8499-8512. DOI: 10.1039/D0CP00502A
   
   for sTDA-xTB:
   * S. Grimme and C. Bannwarth, J. Chem. Phys., 2016, 145, 054103.
     DOI: 10.1063/1.4959605
   
   in the mass-spec context:
   * V. Asgeirsson, C. Bauer and S. Grimme, Chem. Sci., 2017, 8, 4879.
     DOI: 10.1039/c7sc00601b
   * J. Koopman and S. Grimme, ACS Omega 2019, 4, 12, 15120-15133.
     DOI: 10.1021/acsomega.9b02011
   
   for metadynamics refer to:
   * S. Grimme, J. Chem. Theory Comput., 2019, 155, 2847-2862
     DOI: 10.1021/acs.jctc.9b00143
   
   for SPH calculations refer to:
   * S. Spicher and S. Grimme, J. Chem. Theory Comput., 2021, 17, 1701-1714
     DOI: 10.1021/acs.jctc.0c01306
   
   for ONIOM refer to:
   * C. Plett, A. Katbashev, S. Ehlert, S. Grimme, M. Bursch,
     Phys. Chem. Chem. Phys., 2023, 25, 17860-17868. DOI: 10.1039/D3CP02178E
   
   for DIPRO refer to:
   * J. Kohn, N. Gildemeister, S. Grimme, D. Fazzi, A. Hansen,
     J. Chem. Phys., 2023, just accepted.
   
   for PTB refer to:
   * S. Grimme, M. Mueller, A. Hansen, J. Chem. Phys., 2023, 158, 124111.
     DOI: 10.1063/5.0137838
   
   with help from (in alphabetical order)
   P. Atkinson, C. Bannwarth, F. Bohle, G. Brandenburg, E. Caldeweyher
   M. Checinski, S. Dohm, S. Ehlert, S. Ehrlich, I. Gerasimov, C. Hölzer
   A. Katbashev, J. Kohn, J. Koopman, C. Lavigne, S. Lehtola, F. März, M. Müller,
   F. Musil, H. Neugebauer, J. Pisarek, C. Plett, P. Pracht, F. Pultar,
   J. Seibert, P. Shushkov, S. Spicher, M. Stahn, M. Steiner, T. Strunk,
   J. Stückrath, T. Rose, and J. Unsleber
   
 * started run on 2025/05/15 at 16:10:43.330     
   ID    Z sym.   atoms
    1    7 N      1, 3, 5
    2    6 C      2, 4, 6, 7, 9, 11, 13, 14
    3   16 S      8
    4    8 O      10, 12, 15
    5    1 H      16-26

           -------------------------------------------------
          |                Calculation Setup                |
           -------------------------------------------------

          program call               : xtb /rds/general/user/hgt20/home/callum/QDESCP/Lamivudine_rdkit_conf_6/Lamivudine_rdkit_conf_6.xyz --opt normal --acc 1 --gfn 2 --chrg 0 --uhf 0 -P 1
          hostname                   : login-c
          coordinate file            : /rds/general/user/hgt20/home/callum/QDESCP/Lamivudine_rdkit_conf_6/Lamivudine_rdkit_conf_6.xyz
          omp threads                :                     1


           -------------------------------------------------
          |                 G F N 2 - x T B                 |
           -------------------------------------------------

        Reference                      10.1021/acs.jctc.8b01176
      * Hamiltonian:
        H0-scaling (s, p, d)           1.850000    2.230000    2.230000
        zeta-weighting                 0.500000
      * Dispersion:
        s8                             2.700000
        a1                             0.520000
        a2                             5.000000
        s9                             5.000000
      * Repulsion:
        kExp                           1.500000    1.000000
        rExp                           1.000000
      * Coulomb:
        alpha                          2.000000
        third order                    shell-resolved
        anisotropic                    true
        a3                             3.000000
        a5                             4.000000
        cn-shift                       1.200000
        cn-exp                         4.000000
        max-rad                        5.000000


          ...................................................
          :                      SETUP                      :
          :.................................................:
          :  # basis functions                  77          :
          :  # atomic orbitals                  76          :
          :  # shells                           42          :
          :  # electrons                        82          :
          :  max. iterations                   250          :
          :  Hamiltonian                  GFN2-xTB          :
          :  restarted?                      false          :
          :  GBSA solvation                  false          :
          :  PC potential                    false          :
          :  electronic temp.          300.0000000     K    :
          :  accuracy                    1.0000000          :
          :  -> integral cutoff          0.2500000E+02      :
          :  -> integral neglect         0.1000000E-07      :
          :  -> SCF convergence          0.1000000E-05 Eh   :
          :  -> wf. convergence          0.1000000E-03 e    :
          :  Broyden damping             0.4000000          :
          :  net charge                          0          :
          :  unpaired electrons                  0          :
          ...................................................

 iter      E             dE          RMSdq      gap      omega  full diag
   1    -47.3193444 -0.473193E+02  0.522E+00    3.47       0.0  T
   2    -47.4186833 -0.993389E-01  0.303E+00    3.19       1.0  T
   3    -47.4150685  0.361482E-02  0.143E+00    2.82       1.0  T
   4    -47.4265216 -0.114532E-01  0.558E-01    2.63       1.0  T
   5    -47.4311598 -0.463813E-02  0.166E-01    2.65       1.0  T
   6    -47.4312420 -0.822553E-04  0.617E-02    2.67       1.0  T
   7    -47.4312568 -0.148065E-04  0.209E-02    2.68       1.0  T
   8    -47.4312586 -0.172490E-05  0.101E-02    2.69       1.9  T
   9    -47.4312587 -0.115678E-06  0.352E-03    2.68       5.6  T
  10    -47.4312587 -0.390536E-07  0.135E-03    2.68      14.6  T
  11    -47.4312587 -0.753573E-08  0.580E-04    2.68      33.8  T
  12    -47.4312587 -0.120124E-08  0.271E-04    2.68      72.4  T

   *** convergence criteria satisfied after 12 iterations ***

         #    Occupation            Energy/Eh            Energy/eV
      -------------------------------------------------------------
         1        2.0000           -0.7422402             -20.1974
       ...           ...                  ...                  ...
        35        2.0000           -0.4438351             -12.0774
        36        2.0000           -0.4294955             -11.6872
        37        2.0000           -0.4203773             -11.4390
        38        2.0000           -0.4082867             -11.1100
        39        2.0000           -0.4042324             -10.9997
        40        2.0000           -0.3901046             -10.6153
        41        2.0000           -0.3710036             -10.0955 (HOMO)
        42                         -0.2723684              -7.4115 (LUMO)
        43                         -0.2308285              -6.2812
        44                         -0.2259658              -6.1488
        45                         -0.1503274              -4.0906
        46                         -0.1371593              -3.7323
       ...                                ...                  ...
        76                          0.6417225              17.4622
      -------------------------------------------------------------
                  HL-Gap            0.0986351 Eh            2.6840 eV
             Fermi-level           -0.3216860 Eh           -8.7535 eV

 SCC (total)                   0 d,  0 h,  0 min,  0.057 sec
 SCC setup                      ...        0 min,  0.000 sec (  0.386%)
 Dispersion                     ...        0 min,  0.000 sec (  0.327%)
 classical contributions        ...        0 min,  0.000 sec (  0.109%)
 integral evaluation            ...        0 min,  0.004 sec (  7.310%)
 iterations                     ...        0 min,  0.041 sec ( 71.843%)
 molecular gradient             ...        0 min,  0.011 sec ( 19.841%)
 printout                       ...        0 min,  0.000 sec (  0.173%)

         :::::::::::::::::::::::::::::::::::::::::::::::::::::
         ::                     SUMMARY                     ::
         :::::::::::::::::::::::::::::::::::::::::::::::::::::
         :: total energy             -46.966805057623 Eh    ::
         :: gradient norm              0.089255354517 Eh/a0 ::
         :: HOMO-LUMO gap              2.683998165427 eV    ::
         ::.................................................::
         :: SCC energy               -47.431285382432 Eh    ::
         :: -> isotropic ES            0.106613919207 Eh    ::
         :: -> anisotropic ES          0.002612087011 Eh    ::
         :: -> anisotropic XC          0.014998107676 Eh    ::
         :: -> dispersion             -0.025293909245 Eh    ::
         :: repulsion energy           0.464480324809 Eh    ::
         :: add. restraining           0.000000000000 Eh    ::
         :: total charge              -0.000000000000 e     ::
         :::::::::::::::::::::::::::::::::::::::::::::::::::::

      ----------------------------------------------------------- 
     |                   =====================                   |
     |                        A N C O P T                        |
     |                   =====================                   |
     |               Approximate Normal Coordinate               |
     |                Rational Function Optimizer                |
      ----------------------------------------------------------- 
      ----------------------------------------------------------- 
     |                   =====================                   |
     |                        A N C O P T                        |
     |                   =====================                   |
     |               Approximate Normal Coordinate               |
     |                Rational Function Optimizer                |
      ----------------------------------------------------------- 

          ...................................................
          :                      SETUP                      :
          :.................................................:
          :   optimization level            normal          :
          :   max. optcycles                   200          :
          :   ANC micro-cycles                  20          :
          :   degrees of freedom                72          :
          :.................................................:
          :   RF solver                   davidson          :
          :   write xtbopt.log                true          :
          :   linear?                        false          :
          :   energy convergence         0.5000000E-05 Eh   :
          :   grad. convergence          0.1000000E-02 Eh/α :
          :   maxmium RF displ.          1.0000000          :
          :   Hlow (freq-cutoff)         0.1000000E-01      :
          :   Hmax (freq-cutoff)         5.0000000          :
          :   S6 in model hess.         20.0000000          :
          ...................................................

generating ANC from exact Hessian ...
Using Lindh-Hessian (1995)
 Shifting diagonal of input Hessian by    8.8877611848854551E-003
 Lowest  eigenvalues of input Hessian
    0.000000    0.000000    0.000000    0.000000    0.000000    0.000000
    0.010000    0.010257    0.011469    0.013456    0.015053    0.019339
    0.019611    0.024278    0.026323    0.029670    0.030545    0.034957
 Highest eigenvalues
    1.662254    1.833803    1.970902    2.047553    2.140933    2.394350


........................................................................
.............................. CYCLE    1 ..............................
........................................................................

 iter      E             dE          RMSdq      gap      omega  full diag
   1    -47.4312587 -0.474313E+02  0.813E-05    2.68       0.0  T
   2    -47.4312587 -0.165912E-10  0.445E-05    2.68     440.8  T
   3    -47.4312587 -0.159162E-11  0.291E-05    2.68     673.1  T
     SCC iter.                  ...        0 min,  0.004 sec
     gradient                   ...        0 min,  0.011 sec
 * total energy  :   -46.9668051 Eh     change       -0.2223715E-09 Eh
   gradient norm :     0.0892558 Eh/α   predicted     0.0000000E+00 (-100.00%)
   displ. norm   :     0.2820377 α      lambda       -0.1040400E-01
   maximum displ.:     0.1164890 α      in ANC's #19, #9, #13, ...

........................................................................
.............................. CYCLE    2 ..............................
........................................................................

 iter      E             dE          RMSdq      gap      omega  full diag
   1    -47.4492414 -0.474492E+02  0.221E-01    2.69       0.0  T
   2    -47.4493798 -0.138427E-03  0.130E-01    2.69       1.0  T
   3    -47.4493743  0.550102E-05  0.753E-02    2.69       1.0  T
   4    -47.4494121 -0.377722E-04  0.203E-02    2.68       1.0  T
   5    -47.4494192 -0.711403E-05  0.510E-03    2.69       3.8  T
   6    -47.4494193 -0.150850E-06  0.261E-03    2.69       7.5  T
   7    -47.4494194 -0.214535E-07  0.101E-03    2.69      19.5  T
   8    -47.4494194 -0.272602E-08  0.350E-04    2.69      56.0  T
   9    -47.4494194 -0.310749E-09  0.157E-04    2.69     125.3  T
     SCC iter.                  ...        0 min,  0.009 sec
     gradient                   ...        0 min,  0.011 sec
 * total energy  :   -46.9741804 Eh     change       -0.7375294E-02 Eh
   gradient norm :     0.0504279 Eh/α   predicted    -0.5619372E-02 ( -23.81%)
   displ. norm   :     0.2602236 α      lambda       -0.5153841E-02
   maximum displ.:     0.1248550 α      in ANC's #9, #10, #13, ...

........................................................................
.............................. CYCLE    3 ..............................
........................................................................

 iter      E             dE          RMSdq      gap      omega  full diag
   1    -47.4630333 -0.474630E+02  0.197E-01    2.68       0.0  T
   2    -47.4631650 -0.131754E-03  0.109E-01    2.67       1.0  T
   3    -47.4631755 -0.104929E-04  0.690E-02    2.67       1.0  T
   4    -47.4631978 -0.222888E-04  0.188E-02    2.66       1.0  T
   5    -47.4632036 -0.574594E-05  0.537E-03    2.66       3.7  T
   6    -47.4632038 -0.260692E-06  0.240E-03    2.66       8.2  T
   7    -47.4632039 -0.246523E-07  0.977E-04    2.66      20.1  T
   8    -47.4632039 -0.278803E-08  0.335E-04    2.66      58.5  T
     SCC iter.                  ...        0 min,  0.034 sec
     gradient                   ...        0 min,  0.011 sec
 * total energy  :   -46.9772057 Eh     change       -0.3025306E-02 Eh
   gradient norm :     0.0213988 Eh/α   predicted    -0.2754139E-02 (  -8.96%)
   displ. norm   :     0.1349789 α      lambda       -0.9842499E-03
   maximum displ.:     0.0536534 α      in ANC's #6, #10, #9, ...

........................................................................
.............................. CYCLE    4 ..............................
........................................................................

 iter      E             dE          RMSdq      gap      omega  full diag
   1    -47.4645660 -0.474646E+02  0.897E-02    2.67       0.0  T
   2    -47.4645906 -0.246715E-04  0.491E-02    2.66       1.0  T
   3    -47.4645915 -0.897198E-06  0.237E-02    2.66       1.0  T
   4    -47.4645937 -0.218221E-05  0.576E-03    2.65       3.4  T
   5    -47.4645939 -0.170661E-06  0.289E-03    2.65       6.8  T
   6    -47.4645939 -0.576211E-07  0.126E-03    2.65      15.5  T
   7    -47.4645939 -0.158508E-07  0.419E-04    2.65      46.8  T
   8    -47.4645939 -0.983214E-09  0.176E-04    2.65     111.7  T
     SCC iter.                  ...        0 min,  0.008 sec
     gradient                   ...        0 min,  0.011 sec
 * total energy  :   -46.9778667 Eh     change       -0.6610504E-03 Eh
   gradient norm :     0.0133057 Eh/α   predicted    -0.5011551E-03 ( -24.19%)
   displ. norm   :     0.1338938 α      lambda       -0.5765957E-03
   maximum displ.:     0.0730592 α      in ANC's #4, #6, #10, ...

........................................................................
.............................. CYCLE    5 ..............................
........................................................................

 iter      E             dE          RMSdq      gap      omega  full diag
   1    -47.4646161 -0.474646E+02  0.860E-02    2.66       0.0  T
   2    -47.4646422 -0.261778E-04  0.481E-02    2.65       1.0  T
   3    -47.4646429 -0.610699E-06  0.202E-02    2.65       1.0  T
   4    -47.4646450 -0.210364E-05  0.773E-03    2.65       2.5  T
   5    -47.4646457 -0.706595E-06  0.319E-03    2.65       6.1  T
   6    -47.4646457 -0.623662E-07  0.134E-03    2.65      14.7  T
   7    -47.4646457 -0.126729E-07  0.385E-04    2.65      50.9  T
   8    -47.4646457 -0.350745E-09  0.179E-04    2.65     109.8  T
     SCC iter.                  ...        0 min,  0.060 sec
     gradient                   ...        0 min,  0.011 sec
 * total energy  :   -46.9782442 Eh     change       -0.3774712E-03 Eh
   gradient norm :     0.0090857 Eh/α   predicted    -0.2934718E-03 ( -22.25%)
   displ. norm   :     0.1107966 α      lambda       -0.2488166E-03
   maximum displ.:     0.0709759 α      in ANC's #4, #6, #11, ...

........................................................................
.............................. CYCLE    6 ..............................
........................................................................

 iter      E             dE          RMSdq      gap      omega  full diag
   1    -47.4645686 -0.474646E+02  0.670E-02    2.66       0.0  T
   2    -47.4645815 -0.128985E-04  0.368E-02    2.66       1.0  T
   3    -47.4645812  0.298296E-06  0.146E-02    2.66       1.3  T
   4    -47.4645830 -0.177311E-05  0.672E-03    2.66       2.9  T
   5    -47.4645836 -0.632661E-06  0.243E-03    2.66       8.1  T
   6    -47.4645836 -0.770473E-08  0.738E-04    2.66      26.6  T
   7    -47.4645836 -0.552679E-08  0.266E-04    2.66      73.9  T
     SCC iter.                  ...        0 min,  0.007 sec
     gradient                   ...        0 min,  0.011 sec
 * total energy  :   -46.9784249 Eh     change       -0.1807624E-03 Eh
   gradient norm :     0.0077769 Eh/α   predicted    -0.1260759E-03 ( -30.25%)
   displ. norm   :     0.1338004 α      lambda       -0.2062829E-03
   maximum displ.:     0.0929256 α      in ANC's #4, #11, #3, ...

........................................................................
.............................. CYCLE    7 ..............................
........................................................................

 iter      E             dE          RMSdq      gap      omega  full diag
   1    -47.4648729 -0.474649E+02  0.783E-02    2.67       0.0  T
   2    -47.4648830 -0.100916E-04  0.411E-02    2.68       1.0  T
   3    -47.4648823  0.635844E-06  0.136E-02    2.67       1.4  T
   4    -47.4648843 -0.191395E-05  0.608E-03    2.67       3.2  T
   5    -47.4648847 -0.399307E-06  0.263E-03    2.67       7.5  T
   6    -47.4648847 -0.258721E-07  0.666E-04    2.67      29.4  T
   7    -47.4648847 -0.475263E-08  0.269E-04    2.67      72.9  T
     SCC iter.                  ...        0 min,  0.008 sec
     gradient                   ...        0 min,  0.056 sec
 * total energy  :   -46.9785719 Eh     change       -0.1469632E-03 Eh
   gradient norm :     0.0069464 Eh/α   predicted    -0.1049886E-03 ( -28.56%)
   displ. norm   :     0.1259831 α      lambda       -0.1455023E-03
   maximum displ.:     0.0911298 α      in ANC's #4, #3, #11, ...

........................................................................
.............................. CYCLE    8 ..............................
........................................................................

 iter      E             dE          RMSdq      gap      omega  full diag
   1    -47.4656588 -0.474657E+02  0.753E-02    2.69       0.0  T
   2    -47.4656632 -0.443243E-05  0.384E-02    2.69       1.0  T
   3    -47.4656633 -0.717273E-07  0.934E-03    2.69       2.1  T
   4    -47.4656640 -0.721663E-06  0.423E-03    2.69       4.6  T
   5    -47.4656641 -0.293359E-07  0.200E-03    2.69       9.8  T
   6    -47.4656641 -0.616821E-07  0.471E-04    2.69      41.6  T
   7    -47.4656641 -0.212542E-08  0.208E-04    2.69      94.2  T
     SCC iter.                  ...        0 min,  0.008 sec
     gradient                   ...        0 min,  0.011 sec
 * total energy  :   -46.9786770 Eh     change       -0.1050659E-03 Eh
   gradient norm :     0.0058290 Eh/α   predicted    -0.7390877E-04 ( -29.65%)
   displ. norm   :     0.1324086 α      lambda       -0.1117754E-03
   maximum displ.:     0.0924199 α      in ANC's #4, #3, #11, ...

........................................................................
.............................. CYCLE    9 ..............................
........................................................................

 iter      E             dE          RMSdq      gap      omega  full diag
   1    -47.4662463 -0.474662E+02  0.795E-02    2.71       0.0  T
   2    -47.4662503 -0.396796E-05  0.403E-02    2.71       1.0  T
   3    -47.4662506 -0.326035E-06  0.862E-03    2.71       2.3  T
   4    -47.4662511 -0.507116E-06  0.397E-03    2.71       4.9  T
   5    -47.4662511 -0.175544E-07  0.119E-03    2.71      16.5  T
   6    -47.4662511 -0.169870E-07  0.361E-04    2.71      54.3  T
   7    -47.4662511 -0.142589E-08  0.190E-04    2.71     103.0  T
     SCC iter.                  ...        0 min,  0.007 sec
     gradient                   ...        0 min,  0.011 sec
 * total energy  :   -46.9787566 Eh     change       -0.7958191E-04 Eh
   gradient norm :     0.0057530 Eh/α   predicted    -0.5686989E-04 ( -28.54%)
   displ. norm   :     0.1277064 α      lambda       -0.1041592E-03
   maximum displ.:     0.0876778 α      in ANC's #4, #3, #11, ...

........................................................................
.............................. CYCLE   10 ..............................
........................................................................

 iter      E             dE          RMSdq      gap      omega  full diag
   1    -47.4675382 -0.474675E+02  0.806E-02    2.73       0.0  T
   2    -47.4675431 -0.489777E-05  0.413E-02    2.73       1.0  T
   3    -47.4675435 -0.459630E-06  0.804E-03    2.73       2.4  T
   4    -47.4675439 -0.326978E-06  0.392E-03    2.73       5.0  T
   5    -47.4675439 -0.204004E-07  0.138E-03    2.73      14.2  T
   6    -47.4675439 -0.175788E-07  0.359E-04    2.73      54.6  T
   7    -47.4675439 -0.154292E-08  0.191E-04    2.73     102.8  T
     SCC iter.                  ...        0 min,  0.007 sec
     gradient                   ...        0 min,  0.044 sec
 * total energy  :   -46.9788128 Eh     change       -0.5620989E-04 Eh
   gradient norm :     0.0051070 Eh/α   predicted    -0.5293228E-04 (  -5.83%)
   displ. norm   :     0.1657902 α      lambda       -0.8633666E-04
   maximum displ.:     0.1041672 α      in ANC's #4, #3, #11, ...

........................................................................
.............................. CYCLE   11 ..............................
........................................................................

 iter      E             dE          RMSdq      gap      omega  full diag
   1    -47.4666303 -0.474666E+02  0.991E-02    2.75       0.0  T
   2    -47.4666370 -0.672379E-05  0.501E-02    2.74       1.0  T
   3    -47.4666369  0.379843E-07  0.117E-02    2.74       1.7  T
   4    -47.4666383 -0.135488E-05  0.526E-03    2.74       3.7  T
   5    -47.4666384 -0.776547E-07  0.267E-03    2.74       7.3  T
   6    -47.4666384 -0.760276E-07  0.583E-04    2.74      33.6  T
   7    -47.4666384 -0.361234E-08  0.212E-04    2.74      92.4  T
     SCC iter.                  ...        0 min,  0.007 sec
     gradient                   ...        0 min,  0.011 sec
 * total energy  :   -46.9788348 Eh     change       -0.2201909E-04 Eh
   gradient norm :     0.0065941 Eh/α   predicted    -0.4435538E-04 ( 101.44%)
   displ. norm   :     0.0469915 α      lambda       -0.5360912E-04
   maximum displ.:     0.0295197 α      in ANC's #4, #8, #10, ...

........................................................................
.............................. CYCLE   12 ..............................
........................................................................

 iter      E             dE          RMSdq      gap      omega  full diag
   1    -47.4673976 -0.474674E+02  0.268E-02    2.73       0.0  T
   2    -47.4673980 -0.437537E-06  0.138E-02    2.73       1.4  T
   3    -47.4673980  0.182549E-07  0.373E-03    2.73       5.3  T
   4    -47.4673981 -0.113171E-06  0.155E-03    2.73      12.7  T
   5    -47.4673981 -0.451174E-08  0.680E-04    2.73      28.9  T
   6    -47.4673981 -0.574295E-08  0.160E-04    2.73     122.3  T
     SCC iter.                  ...        0 min,  0.006 sec
     gradient                   ...        0 min,  0.062 sec
 * total energy  :   -46.9788671 Eh     change       -0.3229674E-04 Eh
   gradient norm :     0.0021096 Eh/α   predicted    -0.2686711E-04 ( -16.81%)
   displ. norm   :     0.0485005 α      lambda       -0.2021878E-04
   maximum displ.:     0.0273119 α      in ANC's #3, #1, #4, ...

........................................................................
.............................. CYCLE   13 ..............................
........................................................................

 iter      E             dE          RMSdq      gap      omega  full diag
   1    -47.4673603 -0.474674E+02  0.264E-02    2.74       0.0  T
   2    -47.4673607 -0.390353E-06  0.138E-02    2.73       1.4  T
   3    -47.4673604  0.350809E-06  0.546E-03    2.73       3.6  T
   4    -47.4673609 -0.522071E-06  0.165E-03    2.73      11.9  T
   5    -47.4673609 -0.423803E-08  0.606E-04    2.73      32.3  T
   6    -47.4673609 -0.275637E-08  0.137E-04    2.73     143.2  T
     SCC iter.                  ...        0 min,  0.006 sec
     gradient                   ...        0 min,  0.011 sec
 * total energy  :   -46.9788822 Eh     change       -0.1513563E-04 Eh
   gradient norm :     0.0011741 Eh/α   predicted    -0.1013420E-04 ( -33.04%)
   displ. norm   :     0.1293369 α      lambda       -0.2013802E-04
   maximum displ.:     0.0747925 α      in ANC's #3, #1, #4, ...

........................................................................
.............................. CYCLE   14 ..............................
........................................................................

 iter      E             dE          RMSdq      gap      omega  full diag
   1    -47.4669722 -0.474670E+02  0.663E-02    2.74       0.0  T
   2    -47.4669742 -0.196096E-05  0.345E-02    2.74       1.0  T
   3    -47.4669729  0.124745E-05  0.110E-02    2.73       1.8  T
   4    -47.4669750 -0.201971E-05  0.406E-03    2.73       4.8  T
   5    -47.4669750 -0.363477E-07  0.125E-03    2.73      15.7  T
   6    -47.4669750 -0.136655E-07  0.284E-04    2.73      69.0  T
   7    -47.4669750 -0.187406E-09  0.142E-04    2.73     138.6  T
     SCC iter.                  ...        0 min,  0.007 sec
     gradient                   ...        0 min,  0.063 sec
 * total energy  :   -46.9788987 Eh     change       -0.1653558E-04 Eh
   gradient norm :     0.0024870 Eh/α   predicted    -0.1014979E-04 ( -38.62%)
   displ. norm   :     0.0367452 α      lambda       -0.8408899E-05
   maximum displ.:     0.0217175 α      in ANC's #3, #1, #4, ...

........................................................................
.............................. CYCLE   15 ..............................
........................................................................

 iter      E             dE          RMSdq      gap      omega  full diag
   1    -47.4670943 -0.474671E+02  0.160E-02    2.73       0.0  T
   2    -47.4670945 -0.111417E-06  0.854E-03    2.74       2.3  T
   3    -47.4670945 -0.206170E-07  0.151E-03    2.73      13.0  T
   4    -47.4670945 -0.335933E-08  0.691E-04    2.73      28.4  T
   5    -47.4670945 -0.119612E-08  0.239E-04    2.73      82.0  T
     SCC iter.                  ...        0 min,  0.005 sec
     gradient                   ...        0 min,  0.011 sec
 * total energy  :   -46.9789063 Eh     change       -0.7509745E-05 Eh
   gradient norm :     0.0020823 Eh/α   predicted    -0.4212230E-05 ( -43.91%)
   displ. norm   :     0.1150511 α      lambda       -0.2458298E-04
   maximum displ.:     0.0705658 α      in ANC's #1, #3, #4, ...

........................................................................
.............................. CYCLE   16 ..............................
........................................................................

 iter      E             dE          RMSdq      gap      omega  full diag
   1    -47.4674053 -0.474674E+02  0.463E-02    2.74       0.0  T
   2    -47.4674063 -0.994102E-06  0.251E-02    2.74       1.0  T
   3    -47.4674064 -0.128798E-06  0.481E-03    2.74       4.1  T
   4    -47.4674065 -0.617472E-07  0.226E-03    2.74       8.7  T
   5    -47.4674065 -0.172381E-07  0.918E-04    2.74      21.4  T
   6    -47.4674065 -0.122287E-07  0.281E-04    2.74      69.9  T
     SCC iter.                  ...        0 min,  0.006 sec
     gradient                   ...        0 min,  0.011 sec
 * total energy  :   -46.9789230 Eh     change       -0.1678000E-04 Eh
   gradient norm :     0.0013688 Eh/α   predicted    -0.1245747E-04 ( -25.76%)
   displ. norm   :     0.1286854 α      lambda       -0.1017112E-04
   maximum displ.:     0.0837152 α      in ANC's #1, #3, #5, ...

........................................................................
.............................. CYCLE   17 ..............................
........................................................................

 iter      E             dE          RMSdq      gap      omega  full diag
   1    -47.4674690 -0.474675E+02  0.484E-02    2.74       0.0  T
   2    -47.4674700 -0.102311E-05  0.265E-02    2.74       1.0  T
   3    -47.4674701 -0.142449E-06  0.507E-03    2.74       3.9  T
   4    -47.4674702 -0.728226E-07  0.233E-03    2.74       8.4  T
   5    -47.4674702 -0.101397E-07  0.835E-04    2.74      23.5  T
   6    -47.4674702 -0.970936E-08  0.330E-04    2.74      59.4  T
     SCC iter.                  ...        0 min,  0.007 sec
     gradient                   ...        0 min,  0.011 sec
 * total energy  :   -46.9789332 Eh     change       -0.1014999E-04 Eh
   gradient norm :     0.0019161 Eh/α   predicted    -0.5126505E-05 ( -49.49%)
   displ. norm   :     0.1323744 α      lambda        0.2100968E-05
   maximum displ.:     0.0861715 α      in ANC's #1, #3, #5, ...

........................................................................
.............................. CYCLE   18 ..............................
........................................................................

 iter      E             dE          RMSdq      gap      omega  full diag
   1    -47.4671702 -0.474672E+02  0.497E-02    2.74       0.0  T
   2    -47.4671713 -0.114189E-05  0.273E-02    2.74       1.0  T
   3    -47.4671714 -0.902929E-07  0.547E-03    2.73       3.6  T
   4    -47.4671716 -0.122247E-06  0.269E-03    2.73       7.3  T
   5    -47.4671716 -0.290882E-07  0.113E-03    2.73      17.4  T
   6    -47.4671716 -0.188833E-07  0.326E-04    2.73      60.2  T
   7    -47.4671716 -0.301355E-09  0.179E-04    2.73     109.6  T
     SCC iter.                  ...        0 min,  0.007 sec
     gradient                   ...        0 min,  0.011 sec
 * total energy  :   -46.9789320 Eh     change        0.1178584E-05 Eh
   gradient norm :     0.0034419 Eh/α   predicted     0.1054941E-05 ( -10.49%)
   displ. norm   :     0.0266576 α      lambda       -0.1214396E-04
   maximum displ.:     0.0198622 α      in ANC's #4, #3, #7, ...

........................................................................
.............................. CYCLE   19 ..............................
........................................................................

 iter      E             dE          RMSdq      gap      omega  full diag
   1    -47.4676557 -0.474677E+02  0.157E-02    2.73       0.0  T
   2    -47.4676558 -0.103720E-06  0.794E-03    2.73       2.5  T
   3    -47.4676558 -0.224099E-07  0.129E-03    2.73      15.2  T
   4    -47.4676558 -0.222215E-08  0.597E-04    2.73      32.8  T
   5    -47.4676558 -0.996351E-09  0.127E-04    2.73     155.0  T
     SCC iter.                  ...        0 min,  0.005 sec
     gradient                   ...        0 min,  0.011 sec
 * total energy  :   -46.9789412 Eh     change       -0.9166706E-05 Eh
   gradient norm :     0.0022355 Eh/α   predicted    -0.6078054E-05 ( -33.69%)
   displ. norm   :     0.0378842 α      lambda       -0.1971611E-04
   maximum displ.:     0.0197686 α      in ANC's #4, #1, #7, ...

........................................................................
.............................. CYCLE   20 ..............................
........................................................................

 iter      E             dE          RMSdq      gap      omega  full diag
   1    -47.4678430 -0.474678E+02  0.186E-02    2.74       0.0  T
   2    -47.4678433 -0.316364E-06  0.100E-02    2.74       2.0  T
   3    -47.4678432  0.130406E-06  0.396E-03    2.74       5.0  T
   4    -47.4678434 -0.199587E-06  0.129E-03    2.74      15.2  T
   5    -47.4678434 -0.111811E-07  0.591E-04    2.74      33.2  T
   6    -47.4678434 -0.287327E-08  0.126E-04    2.74     156.0  T
     SCC iter.                  ...        0 min,  0.006 sec
     gradient                   ...        0 min,  0.053 sec
 * total energy  :   -46.9789531 Eh     change       -0.1192670E-04 Eh
   gradient norm :     0.0013359 Eh/α   predicted    -0.9873557E-05 ( -17.21%)
   displ. norm   :     0.1240356 α      lambda       -0.1038835E-04
   maximum displ.:     0.0879084 α      in ANC's #1, #3, #5, ...
 * RMSD in coord.:     0.3105503 α      energy gain  -0.1214805E-01 Eh

generating ANC from exact Hessian ...
Using Lindh-Hessian (1995)
 Shifting diagonal of input Hessian by    8.7736047735514511E-003
 Lowest  eigenvalues of input Hessian
    0.000000    0.000000    0.000000    0.000000    0.000000    0.000000
    0.010000    0.010206    0.011693    0.013826    0.014930    0.019814
    0.020599    0.025715    0.028149    0.029577    0.030423    0.036666
 Highest eigenvalues
    1.727494    1.948168    2.056680    2.119566    2.216565    2.508245


........................................................................
.............................. CYCLE   21 ..............................
........................................................................

 iter      E             dE          RMSdq      gap      omega  full diag
   1    -47.4678297 -0.474678E+02  0.456E-02    2.74       0.0  T
   2    -47.4678305 -0.836534E-06  0.247E-02    2.74       1.0  T
   3    -47.4678302  0.341169E-06  0.704E-03    2.73       2.8  T
   4    -47.4678307 -0.541531E-06  0.306E-03    2.73       6.4  T
   5    -47.4678308 -0.651796E-07  0.964E-04    2.73      20.3  T
   6    -47.4678308 -0.101424E-07  0.250E-04    2.73      78.3  T
     SCC iter.                  ...        0 min,  0.006 sec
     gradient                   ...        0 min,  0.011 sec
 * total energy  :   -46.9789643 Eh     change       -0.1123472E-04 Eh
   gradient norm :     0.0021932 Eh/α   predicted     0.0000000E+00 (-100.00%)
   displ. norm   :     0.0145015 α      lambda       -0.8158654E-05
   maximum displ.:     0.0090630 α      in ANC's #1, #4, #7, ...

........................................................................
.............................. CYCLE   22 ..............................
........................................................................

 iter      E             dE          RMSdq      gap      omega  full diag
   1    -47.4676115 -0.474676E+02  0.578E-03    2.74       0.0  T
   2    -47.4676116 -0.249228E-07  0.348E-03    2.73       5.6  T
   3    -47.4676115  0.832126E-08  0.939E-04    2.74      20.9  T
   4    -47.4676116 -0.128240E-07  0.309E-04    2.73      63.5  T
     SCC iter.                  ...        0 min,  0.004 sec
     gradient                   ...        0 min,  0.011 sec
 * total energy  :   -46.9789708 Eh     change       -0.6491655E-05 Eh
   gradient norm :     0.0008701 Eh/α   predicted    -0.4280752E-05 ( -34.06%)
   displ. norm   :     0.0461243 α      lambda       -0.7485560E-05
   maximum displ.:     0.0303153 α      in ANC's #1, #4, #3, ...

........................................................................
.............................. CYCLE   23 ..............................
........................................................................

 iter      E             dE          RMSdq      gap      omega  full diag
   1    -47.4673238 -0.474673E+02  0.149E-02    2.74       0.0  T
   2    -47.4673239 -0.934937E-07  0.881E-03    2.74       2.2  T
   3    -47.4673239 -0.104222E-09  0.147E-03    2.74      13.3  T
   4    -47.4673240 -0.232350E-07  0.695E-04    2.74      28.2  T
   5    -47.4673240 -0.223106E-08  0.395E-04    2.74      49.7  T
     SCC iter.                  ...        0 min,  0.005 sec
     gradient                   ...        0 min,  0.011 sec
 * total energy  :   -46.9789771 Eh     change       -0.6247126E-05 Eh
   gradient norm :     0.0015250 Eh/α   predicted    -0.3983115E-05 ( -36.24%)
   displ. norm   :     0.0288437 α      lambda       -0.3284503E-05
   maximum displ.:     0.0198479 α      in ANC's #1, #4, #3, ...

........................................................................
.............................. CYCLE   24 ..............................
........................................................................

 iter      E             dE          RMSdq      gap      omega  full diag
   1    -47.4674261 -0.474674E+02  0.885E-03    2.74       0.0  T
   2    -47.4674262 -0.274097E-07  0.506E-03    2.74       3.9  T
   3    -47.4674262  0.127644E-07  0.122E-03    2.74      16.1  T
   4    -47.4674262 -0.209968E-07  0.484E-04    2.74      40.6  T
   5    -47.4674262 -0.137827E-08  0.172E-04    2.74     114.2  T
     SCC iter.                  ...        0 min,  0.005 sec
     gradient                   ...        0 min,  0.011 sec
 * total energy  :   -46.9789816 Eh     change       -0.4537627E-05 Eh
   gradient norm :     0.0010991 Eh/α   predicted    -0.1672653E-05 ( -63.14%)
   displ. norm   :     0.0925042 α      lambda       -0.9516253E-05
   maximum displ.:     0.0588442 α      in ANC's #1, #4, #3, ...

........................................................................
.............................. CYCLE   25 ..............................
........................................................................

 iter      E             dE          RMSdq      gap      omega  full diag
   1    -47.4676152 -0.474676E+02  0.299E-02    2.74       0.0  T
   2    -47.4676156 -0.349400E-06  0.169E-02    2.74       1.2  T
   3    -47.4676154  0.161276E-06  0.448E-03    2.74       4.4  T
   4    -47.4676156 -0.247005E-06  0.178E-03    2.74      11.0  T
   5    -47.4676157 -0.186953E-07  0.626E-04    2.74      31.3  T
   6    -47.4676157 -0.439295E-08  0.199E-04    2.74      98.6  T
     SCC iter.                  ...        0 min,  0.006 sec
     gradient                   ...        0 min,  0.050 sec
 * total energy  :   -46.9789926 Eh     change       -0.1100979E-04 Eh
   gradient norm :     0.0007578 Eh/α   predicted    -0.4778055E-05 ( -56.60%)
   displ. norm   :     0.1293159 α      lambda       -0.8571345E-05
   maximum displ.:     0.0805716 α      in ANC's #1, #3, #4, ...

........................................................................
.............................. CYCLE   26 ..............................
........................................................................

 iter      E             dE          RMSdq      gap      omega  full diag
   1    -47.4676052 -0.474676E+02  0.416E-02    2.74       0.0  T
   2    -47.4676058 -0.631030E-06  0.233E-02    2.74       1.0  T
   3    -47.4676057  0.176305E-06  0.557E-03    2.74       3.5  T
   4    -47.4676060 -0.298978E-06  0.246E-03    2.74       8.0  T
   5    -47.4676060 -0.449002E-07  0.846E-04    2.74      23.2  T
   6    -47.4676060 -0.900071E-08  0.248E-04    2.74      79.1  T
     SCC iter.                  ...        0 min,  0.006 sec
     gradient                   ...        0 min,  0.011 sec
 * total energy  :   -46.9790021 Eh     change       -0.9501772E-05 Eh
   gradient norm :     0.0011680 Eh/α   predicted    -0.4318698E-05 ( -54.55%)
   displ. norm   :     0.1087079 α      lambda       -0.5868566E-05
   maximum displ.:     0.0677730 α      in ANC's #1, #3, #4, ...

........................................................................
.............................. CYCLE   27 ..............................
........................................................................

 iter      E             dE          RMSdq      gap      omega  full diag
   1    -47.4676028 -0.474676E+02  0.364E-02    2.74       0.0  T
   2    -47.4676032 -0.423344E-06  0.203E-02    2.74       1.0  T
   3    -47.4676032  0.389617E-07  0.429E-03    2.74       4.6  T
   4    -47.4676033 -0.112360E-06  0.205E-03    2.74       9.6  T
   5    -47.4676033 -0.330611E-07  0.667E-04    2.74      29.4  T
   6    -47.4676033 -0.696925E-08  0.188E-04    2.74     104.6  T
     SCC iter.                  ...        0 min,  0.006 sec
     gradient                   ...        0 min,  0.011 sec
 * total energy  :   -46.9790088 Eh     change       -0.6712791E-05 Eh
   gradient norm :     0.0009794 Eh/α   predicted    -0.2950251E-05 ( -56.05%)
   displ. norm   :     0.0856754 α      lambda       -0.4939737E-05
   maximum displ.:     0.0540486 α      in ANC's #1, #3, #4, ...

........................................................................
.............................. CYCLE   28 ..............................
........................................................................

 iter      E             dE          RMSdq      gap      omega  full diag
   1    -47.4677519 -0.474678E+02  0.290E-02    2.74       0.0  T
   2    -47.4677522 -0.272300E-06  0.161E-02    2.74       1.2  T
   3    -47.4677522 -0.194751E-08  0.320E-03    2.74       6.1  T
   4    -47.4677522 -0.381206E-07  0.156E-03    2.74      12.6  T
   5    -47.4677522 -0.199815E-07  0.520E-04    2.74      37.7  T
   6    -47.4677522 -0.464051E-08  0.132E-04    2.74     149.0  T
     SCC iter.                  ...        0 min,  0.006 sec
     gradient                   ...        0 min,  0.011 sec
 * total energy  :   -46.9790150 Eh     change       -0.6155542E-05 Eh
   gradient norm :     0.0007055 Eh/α   predicted    -0.2482669E-05 ( -59.67%)
   displ. norm   :     0.0979561 α      lambda       -0.5826794E-05
   maximum displ.:     0.0631150 α      in ANC's #3, #1, #4, ...

........................................................................
.............................. CYCLE   29 ..............................
........................................................................

 iter      E             dE          RMSdq      gap      omega  full diag
   1    -47.4677690 -0.474678E+02  0.345E-02    2.74       0.0  T
   2    -47.4677694 -0.381494E-06  0.192E-02    2.74       1.0  T
   3    -47.4677694 -0.992124E-09  0.389E-03    2.74       5.0  T
   4    -47.4677694 -0.621903E-07  0.189E-03    2.74      10.4  T
   5    -47.4677694 -0.266624E-07  0.671E-04    2.74      29.2  T
   6    -47.4677694 -0.725928E-08  0.186E-04    2.74     105.3  T
     SCC iter.                  ...        0 min,  0.006 sec
     gradient                   ...        0 min,  0.011 sec
 * total energy  :   -46.9790227 Eh     change       -0.7724733E-05 Eh
   gradient norm :     0.0006743 Eh/α   predicted    -0.2927126E-05 ( -62.11%)
   displ. norm   :     0.1197085 α      lambda       -0.7878702E-05
   maximum displ.:     0.0808197 α      in ANC's #3, #1, #4, ...

........................................................................
.............................. CYCLE   30 ..............................
........................................................................

 iter      E             dE          RMSdq      gap      omega  full diag
   1    -47.4676815 -0.474677E+02  0.432E-02    2.73       0.0  T
   2    -47.4676821 -0.666333E-06  0.241E-02    2.73       1.0  T
   3    -47.4676821  0.405417E-07  0.523E-03    2.73       3.8  T
   4    -47.4676823 -0.155848E-06  0.255E-03    2.73       7.7  T
   5    -47.4676823 -0.484109E-07  0.893E-04    2.73      22.0  T
   6    -47.4676823 -0.110269E-07  0.270E-04    2.73      72.6  T
     SCC iter.                  ...        0 min,  0.006 sec
     gradient                   ...        0 min,  0.011 sec
 * total energy  :   -46.9790332 Eh     change       -0.1050233E-04 Eh
   gradient norm :     0.0007807 Eh/α   predicted    -0.3966242E-05 ( -62.23%)
   displ. norm   :     0.1611015 α      lambda       -0.1057989E-04
   maximum displ.:     0.1106824 α      in ANC's #3, #1, #2, ...

........................................................................
.............................. CYCLE   31 ..............................
........................................................................

 iter      E             dE          RMSdq      gap      omega  full diag
   1    -47.4674898 -0.474675E+02  0.592E-02    2.73       0.0  T
   2    -47.4674912 -0.135824E-05  0.331E-02    2.73       1.0  T
   3    -47.4674909  0.238176E-06  0.796E-03    2.73       2.5  T
   4    -47.4674915 -0.512183E-06  0.371E-03    2.73       5.3  T
   5    -47.4674915 -0.911789E-07  0.141E-03    2.73      13.9  T
   6    -47.4674916 -0.232226E-07  0.437E-04    2.73      44.9  T
   7    -47.4674916 -0.193552E-09  0.215E-04    2.73      91.3  T
     SCC iter.                  ...        0 min,  0.007 sec
     gradient                   ...        0 min,  0.011 sec
 * total energy  :   -46.9790464 Eh     change       -0.1321754E-04 Eh
   gradient norm :     0.0011531 Eh/α   predicted    -0.5353500E-05 ( -59.50%)
   displ. norm   :     0.1701423 α      lambda       -0.9479988E-05
   maximum displ.:     0.1179149 α      in ANC's #3, #1, #2, ...

........................................................................
.............................. CYCLE   32 ..............................
........................................................................

 iter      E             dE          RMSdq      gap      omega  full diag
   1    -47.4672362 -0.474672E+02  0.624E-02    2.73       0.0  T
   2    -47.4672378 -0.155367E-05  0.348E-02    2.73       1.0  T
   3    -47.4672374  0.317440E-06  0.857E-03    2.72       2.3  T
   4    -47.4672381 -0.657774E-06  0.387E-03    2.73       5.1  T
   5    -47.4672382 -0.885273E-07  0.149E-03    2.73      13.2  T
   6    -47.4672382 -0.261839E-07  0.443E-04    2.73      44.2  T
   7    -47.4672382 -0.249948E-09  0.227E-04    2.73      86.5  T
     SCC iter.                  ...        0 min,  0.035 sec
     gradient                   ...        0 min,  0.011 sec
 * total energy  :   -46.9790572 Eh     change       -0.1077421E-04 Eh
   gradient norm :     0.0017046 Eh/α   predicted    -0.4802531E-05 ( -55.43%)
   displ. norm   :     0.1470740 α      lambda       -0.7782914E-05
   maximum displ.:     0.1025162 α      in ANC's #3, #1, #2, ...

........................................................................
.............................. CYCLE   33 ..............................
........................................................................

 iter      E             dE          RMSdq      gap      omega  full diag
   1    -47.4672998 -0.474673E+02  0.548E-02    2.73       0.0  T
   2    -47.4673010 -0.116974E-05  0.303E-02    2.72       1.0  T
   3    -47.4673008  0.153322E-06  0.721E-03    2.72       2.7  T
   4    -47.4673013 -0.418158E-06  0.328E-03    2.72       6.0  T
   5    -47.4673013 -0.476748E-07  0.132E-03    2.72      14.8  T
   6    -47.4673013 -0.239498E-07  0.369E-04    2.72      53.1  T
   7    -47.4673013 -0.188209E-09  0.189E-04    2.72     103.5  T
     SCC iter.                  ...        0 min,  0.007 sec
     gradient                   ...        0 min,  0.011 sec
 * total energy  :   -46.9790664 Eh     change       -0.9172042E-05 Eh
   gradient norm :     0.0015981 Eh/α   predicted    -0.3931076E-05 ( -57.14%)
   displ. norm   :     0.1947377 α      lambda       -0.1070179E-04
   maximum displ.:     0.1358186 α      in ANC's #3, #1, #2, ...

........................................................................
.............................. CYCLE   34 ..............................
........................................................................

 iter      E             dE          RMSdq      gap      omega  full diag
   1    -47.4673809 -0.474674E+02  0.722E-02    2.72       0.0  T
   2    -47.4673829 -0.199943E-05  0.397E-02    2.72       1.0  T
   3    -47.4673826  0.361923E-06  0.956E-03    2.72       2.1  T
   4    -47.4673834 -0.842134E-06  0.425E-03    2.72       4.6  T
   5    -47.4673835 -0.771825E-07  0.166E-03    2.72      11.8  T
   6    -47.4673835 -0.381091E-07  0.418E-04    2.72      46.9  T
   7    -47.4673835 -0.263185E-09  0.213E-04    2.72      92.3  T
     SCC iter.                  ...        0 min,  0.007 sec
     gradient                   ...        0 min,  0.011 sec
 * total energy  :   -46.9790781 Eh     change       -0.1167948E-04 Eh
   gradient norm :     0.0011386 Eh/α   predicted    -0.5444144E-05 ( -53.39%)
   displ. norm   :     0.1758525 α      lambda       -0.9133784E-05
   maximum displ.:     0.1237039 α      in ANC's #3, #1, #2, ...

........................................................................
.............................. CYCLE   35 ..............................
........................................................................

 iter      E             dE          RMSdq      gap      omega  full diag
   1    -47.4679146 -0.474679E+02  0.685E-02    2.72       0.0  T
   2    -47.4679164 -0.176384E-05  0.371E-02    2.72       1.0  T
   3    -47.4679163  0.364778E-07  0.814E-03    2.72       2.4  T
   4    -47.4679168 -0.443432E-06  0.379E-03    2.72       5.2  T
   5    -47.4679168 -0.338629E-07  0.154E-03    2.72      12.8  T
   6    -47.4679168 -0.398594E-07  0.352E-04    2.72      55.7  T
   7    -47.4679168 -0.270305E-09  0.182E-04    2.72     107.7  T
     SCC iter.                  ...        0 min,  0.007 sec
     gradient                   ...        0 min,  0.011 sec
 * total energy  :   -46.9790873 Eh     change       -0.9253103E-05 Eh
   gradient norm :     0.0009907 Eh/α   predicted    -0.4631571E-05 ( -49.95%)
   displ. norm   :     0.1874867 α      lambda       -0.5559529E-05
   maximum displ.:     0.1307780 α      in ANC's #3, #1, #2, ...

........................................................................
.............................. CYCLE   36 ..............................
........................................................................

 iter      E             dE          RMSdq      gap      omega  full diag
   1    -47.4672396 -0.474672E+02  0.714E-02    2.72       0.0  T
   2    -47.4672416 -0.197669E-05  0.388E-02    2.72       1.0  T
   3    -47.4672408  0.789327E-06  0.104E-02    2.72       1.9  T
   4    -47.4672421 -0.134085E-05  0.427E-03    2.72       4.6  T
   5    -47.4672422 -0.727167E-07  0.156E-03    2.72      12.6  T
   6    -47.4672422 -0.296668E-07  0.333E-04    2.72      58.9  T
   7    -47.4672422 -0.181885E-09  0.165E-04    2.72     118.6  T
     SCC iter.                  ...        0 min,  0.007 sec
     gradient                   ...        0 min,  0.011 sec
 * total energy  :   -46.9790913 Eh     change       -0.3935532E-05 Eh
   gradient norm :     0.0016248 Eh/α   predicted    -0.2825164E-05 ( -28.21%)
   displ. norm   :     0.0637652 α      lambda       -0.7756028E-05
   maximum displ.:     0.0381286 α      in ANC's #3, #1, #4, ...

........................................................................
.............................. CYCLE   37 ..............................
........................................................................

 iter      E             dE          RMSdq      gap      omega  full diag
   1    -47.4685204 -0.474685E+02  0.331E-02    2.73       0.0  T
   2    -47.4685212 -0.776132E-06  0.174E-02    2.72       1.1  T
   3    -47.4685211  0.124999E-06  0.462E-03    2.73       4.2  T
   4    -47.4685214 -0.266562E-06  0.214E-03    2.73       9.2  T
   5    -47.4685214 -0.234395E-07  0.968E-04    2.73      20.3  T
   6    -47.4685214 -0.824379E-08  0.198E-04    2.73      99.3  T
     SCC iter.                  ...        0 min,  0.006 sec
     gradient                   ...        0 min,  0.011 sec
 * total energy  :   -46.9790951 Eh     change       -0.3802412E-05 Eh
   gradient norm :     0.0015392 Eh/α   predicted    -0.3888563E-05 (   2.27%)
   displ. norm   :     0.0513059 α      lambda       -0.3260812E-05
   maximum displ.:     0.0348316 α      in ANC's #1, #3, #5, ...

........................................................................
.............................. CYCLE   38 ..............................
........................................................................

 iter      E             dE          RMSdq      gap      omega  full diag
   1    -47.4679844 -0.474680E+02  0.219E-02    2.72       0.0  T
   2    -47.4679847 -0.298421E-06  0.119E-02    2.72       1.6  T
   3    -47.4679846  0.138113E-06  0.384E-03    2.72       5.1  T
   4    -47.4679848 -0.203145E-06  0.145E-03    2.72      13.5  T
   5    -47.4679848 -0.125831E-07  0.603E-04    2.72      32.5  T
   6    -47.4679848 -0.296252E-08  0.108E-04    2.72     181.7  T
     SCC iter.                  ...        0 min,  0.033 sec
     gradient                   ...        0 min,  0.011 sec
 * total energy  :   -46.9790976 Eh     change       -0.2585055E-05 Eh
   gradient norm :     0.0008125 Eh/α   predicted    -0.1634366E-05 ( -36.78%)
   displ. norm   :     0.0097251 α      lambda       -0.1297409E-05
   maximum displ.:     0.0042330 α      in ANC's #16, #4, #6, ...

   *** GEOMETRY OPTIMIZATION CONVERGED AFTER 38 ITERATIONS ***

------------------------------------------------------------------------
 total energy gain   :        -0.0122926 Eh       -7.7137 kcal/mol
 total RMSD          :         0.5681463 a0        0.3007 Å
 total power (kW/mol):        -0.8493204 (step)  -23.0342 (real)
------------------------------------------------------------------------

 ANCopt (total)                0 d,  0 h,  0 min,  1.401 sec
 optimizer setup                ...        0 min,  0.000 sec (  0.005%)
 model hessian                  ...        0 min,  0.011 sec (  0.767%)
 ANC generation                 ...        0 min,  0.001 sec (  0.092%)
 coordinate transformation      ...        0 min,  0.000 sec (  0.011%)
 single point calculation       ...        0 min,  1.380 sec ( 98.459%)
 optimization log               ...        0 min,  0.005 sec (  0.330%)
 hessian update                 ...        0 min,  0.000 sec (  0.021%)
 rational function              ...        0 min,  0.002 sec (  0.148%)

================
 final structure:
================
26
 xtb: 6.7.1 (edcfbbe)
N            4.81220778666714       -0.33070640690571       -0.34378020537309
C            3.49660423500449       -0.08109174861291       -0.23091811169651
N            3.12233549768325        1.17545388024288       -0.27240532469774
C            1.84179677452753        1.54649382897019       -0.16196139519563
N            0.87551337592029        0.48115320100549       -0.02077679888144
C           -0.51021418234956        0.84413696066653        0.07902008088439
C           -1.00771564946713        0.84780996405436        1.53501286686514
S           -2.79639417024632        0.56075683323048        1.40393348220563
C           -2.63528453646486        0.18490057824038       -0.40781282967118
O           -1.29442638115544       -0.08384890119654       -0.63397673061134
C           -3.48572029295786       -1.00868165446371       -0.81657347917899
O           -4.81704924016148       -0.57882265131888       -0.90866068808014
C            1.25855116433665       -0.80917217860870        0.02986697894012
C            2.56527900883218       -1.15159961763942       -0.06746442599994
O            1.43961195558020        2.68469598336898       -0.16334469693500
H            5.17161602347755       -1.26684322780223       -0.33795355154769
H            5.43048800785071        0.44984643635152       -0.47306187062779
H           -0.60970078234630        1.85577276712156       -0.34699975842079
H           -0.81318134193828        1.79767134200448        2.02555374501966
H           -0.55697296318568        0.03198400281039        2.10260642142417
H           -2.97612521942881        1.08248914543490       -0.94147208041437
H           -3.36732415369959       -1.80809583285565       -0.07342169793697
H           -3.11153779714886       -1.36912518653523       -1.78680927367761
H           -5.38634849828054       -1.33924820620930       -1.06493427321801
H            0.46689762946658       -1.53808452205263        0.13232776193476
H            2.88709374948393       -2.17784478930078       -0.03379414511041

 Bond Distances (Angstroems)
 ---------------------------
N1-C2=1.3438         N1-H16=1.0028        N1-H17=1.0041        C2-N1=1.3438         C2-N3=1.3118         C2-C14=1.4283        
N3-C2=1.3118         N3-C4=1.3378         C4-N3=1.3378         C4-N5=1.4452         C4-O15=1.2072        N5-C4=1.4452         
N5-C6=1.4360         N5-C13=1.3469        C6-N5=1.4360         C6-C7=1.5386         C6-O10=1.4087        C6-H18=1.1022        
C7-C6=1.5386         C7-S8=1.8163         C7-H19=1.0866        C7-H20=1.0913        S8-C7=1.8163         S8-C9=1.8573         
C9-S8=1.8573         C9-O10=1.3861        C9-C11=1.5215        C9-H21=1.0985        O10-C6=1.4087        O10-C9=1.3861        
C11-C9=1.5215        C11-O12=1.4020       C11-H22=1.0979       C11-H23=1.1006       O12-C11=1.4020       O12-H24=0.9627       
C13-N5=1.3469        C13-C14=1.3544       C13-H25=1.0810       C14-C2=1.4283        C14-C13=1.3544       C14-H26=1.0760       
O15-C4=1.2072        H16-N1=1.0028        H17-N1=1.0041        H18-C6=1.1022        H19-C7=1.0866        H20-C7=1.0913        
H21-C9=1.0985        H22-C11=1.0979       H23-C11=1.1006       H24-O12=0.9627       H25-C13=1.0810       H26-C14=1.0760       
 C  H  Rav=1.0918 sigma=0.0091  Rmin=1.0760  Rmax=1.1022     8
 C  C  Rav=1.4607 sigma=0.0744  Rmin=1.3544  Rmax=1.5386     4
 N  H  Rav=1.0034 sigma=0.0007  Rmin=1.0028  Rmax=1.0041     2
 N  C  Rav=1.3702 sigma=0.0511  Rmin=1.3118  Rmax=1.4452     6
 O  H  Rav=0.9627 sigma=0.0000  Rmin=0.9627  Rmax=0.9627     1
 O  C  Rav=1.3510 sigma=0.0835  Rmin=1.2072  Rmax=1.4087     4
 S  C  Rav=1.8368 sigma=0.0205  Rmin=1.8163  Rmax=1.8573     2

 selected bond angles (degree)
 --------------------
H16-N1-C2=121.59               H17-N1-C2=117.98               H17-N1-H16=120.38              N3-C2-N1=117.04                
C14-C2-N1=120.58               C14-C2-N3=122.38               C4-N3-C2=122.42                N5-C4-N3=116.34                
O15-C4-N3=125.47               O15-C4-N5=118.19               C6-N5-C4=117.75                C13-N5-C4=121.31               
C13-N5-C6=120.93               C7-C6-N5=112.23                O10-C6-N5=109.60               O10-C6-C7=107.49               
H18-C6-N5=106.99               H18-C6-C7=109.54               H18-C6-O10=111.02              S8-C7-C6=104.46                
H19-C7-C6=111.80               H19-C7-S8=110.31               H20-C7-C6=110.91               H20-C7-S8=109.03               
H20-C7-H19=110.17              C9-S8-C7= 90.97                O10-C9-S8=106.40               C11-C9-S8=111.86               
C11-C9-O10=110.17              H21-C9-S8=106.36               H21-C9-O10=112.29              H21-C9-C11=109.70              
C9-O10-C6=109.16               

 selected dihedral angles (degree)
 ---------------------------------
N3-C2-N1-H16=181.15           N3-C2-N1-H17=358.68           C14-C2-N1-H16=  1.43          C14-C2-N1-H17=178.97          
C4-N3-C2-N1=180.43            C4-N3-C2-C14=  0.14           N5-C4-N3-C2=358.74            O15-C4-N3-C2=178.29           
C6-N5-C4-N3=180.96            C6-N5-C4-O15=  1.38           C13-N5-C4-N3=  1.63           C13-N5-C4-O15=182.05          
C7-C6-N5-C4=260.82            C7-C6-N5-C13= 80.15           O10-C6-N5-C4=141.47           O10-C6-N5-C13=320.79          
H18-C6-N5-C4= 21.00           H18-C6-N5-C13=200.33          S8-C7-C6-N5=205.22            S8-C7-C6-O10=325.81           
S8-C7-C6-H18= 86.53           H19-C7-C6-N5= 85.93           H19-C7-C6-O10=206.52          H19-C7-C6-H18=327.24          
H20-C7-C6-N5=322.55           H20-C7-C6-O10= 83.13          H20-C7-C6-H18=203.86          C9-S8-C7-C6=  9.16            
C9-S8-C7-H19=129.45           C9-S8-C7-H20=250.55           O10-C9-S8-C7= 17.46           C11-C9-S8-C7=137.81           
H21-C9-S8-C7=257.56           C9-O10-C6-N5=173.29           C9-O10-C6-C7= 51.06           C9-O10-C6-H18=291.28          
C6-O10-C9-S8=317.81           C6-O10-C9-C11=196.37          C6-O10-C9-H21= 73.78          
           -------------------------------------------------
          |                Final Singlepoint                |
           -------------------------------------------------

          ...................................................
          :                      SETUP                      :
          :.................................................:
          :  # basis functions                  77          :
          :  # atomic orbitals                  76          :
          :  # shells                           42          :
          :  # electrons                        82          :
          :  max. iterations                   250          :
          :  Hamiltonian                  GFN2-xTB          :
          :  restarted?                      false          :
          :  GBSA solvation                  false          :
          :  PC potential                    false          :
          :  electronic temp.          300.0000000     K    :
          :  accuracy                    1.0000000          :
          :  -> integral cutoff          0.2500000E+02      :
          :  -> integral neglect         0.1000000E-07      :
          :  -> SCF convergence          0.1000000E-05 Eh   :
          :  -> wf. convergence          0.1000000E-03 e    :
          :  Broyden damping             0.4000000          :
          :  net charge                          0          :
          :  unpaired electrons                  0          :
          ...................................................

 iter      E             dE          RMSdq      gap      omega  full diag
   1    -47.4679848 -0.474680E+02  0.561E-05    2.72       0.0  T
   2    -47.4679848 -0.653699E-11  0.331E-05    2.72     592.3  T
   3    -47.4679848 -0.163425E-12  0.191E-05    2.72    1027.0  T

   *** convergence criteria satisfied after 3 iterations ***

         #    Occupation            Energy/Eh            Energy/eV
      -------------------------------------------------------------
         1        2.0000           -0.7467945             -20.3213
       ...           ...                  ...                  ...
        35        2.0000           -0.4383174             -11.9272
        36        2.0000           -0.4280667             -11.6483
        37        2.0000           -0.4135018             -11.2520
        38        2.0000           -0.4080848             -11.1046
        39        2.0000           -0.3986852             -10.8488
        40        2.0000           -0.3836109             -10.4386
        41        2.0000           -0.3680967             -10.0164 (HOMO)
        42                         -0.2679906              -7.2924 (LUMO)
        43                         -0.2260281              -6.1505
        44                         -0.2189800              -5.9587
        45                         -0.1508547              -4.1050
        46                         -0.1218821              -3.3166
       ...                                ...                  ...
        76                          0.6797050              18.4957
      -------------------------------------------------------------
                  HL-Gap            0.1001061 Eh            2.7240 eV
             Fermi-level           -0.3180436 Eh           -8.6544 eV

 SCC (total)                   0 d,  0 h,  0 min,  0.019 sec
 SCC setup                      ...        0 min,  0.000 sec (  0.840%)
 Dispersion                     ...        0 min,  0.000 sec (  0.644%)
 classical contributions        ...        0 min,  0.000 sec (  0.295%)
 integral evaluation            ...        0 min,  0.004 sec ( 21.002%)
 iterations                     ...        0 min,  0.003 sec ( 17.379%)
 molecular gradient             ...        0 min,  0.011 sec ( 59.352%)
 printout                       ...        0 min,  0.000 sec (  0.452%)

         :::::::::::::::::::::::::::::::::::::::::::::::::::::
         ::                     SUMMARY                     ::
         :::::::::::::::::::::::::::::::::::::::::::::::::::::
         :: total energy             -46.979097641919 Eh    ::
         :: gradient norm              0.000812526616 Eh/a0 ::
         :: HOMO-LUMO gap              2.724026089913 eV    ::
         ::.................................................::
         :: SCC energy               -47.467993085525 Eh    ::
         :: -> isotropic ES            0.104231017548 Eh    ::
         :: -> anisotropic ES          0.001743918811 Eh    ::
         :: -> anisotropic XC          0.013630736710 Eh    ::
         :: -> dispersion             -0.025469042029 Eh    ::
         :: repulsion energy           0.488895443606 Eh    ::
         :: add. restraining           0.000000000000 Eh    ::
         :: total charge               0.000000000000 e     ::
         :::::::::::::::::::::::::::::::::::::::::::::::::::::

           -------------------------------------------------
          |                Property Printout                |
           -------------------------------------------------

    * Orbital Energies and Occupations

         #    Occupation            Energy/Eh            Energy/eV
      -------------------------------------------------------------
         1        2.0000           -0.7467945             -20.3213
       ...           ...                  ...                  ...
        29        2.0000           -0.4987700             -13.5722
        30        2.0000           -0.4955658             -13.4850
        31        2.0000           -0.4871665             -13.2565
        32        2.0000           -0.4840442             -13.1715
        33        2.0000           -0.4754374             -12.9373
        34        2.0000           -0.4652180             -12.6592
        35        2.0000           -0.4383174             -11.9272
        36        2.0000           -0.4280667             -11.6483
        37        2.0000           -0.4135018             -11.2520
        38        2.0000           -0.4080848             -11.1046
        39        2.0000           -0.3986852             -10.8488
        40        2.0000           -0.3836109             -10.4386
        41        2.0000           -0.3680967             -10.0164 (HOMO)
        42                         -0.2679906              -7.2924 (LUMO)
        43                         -0.2260281              -6.1505
        44                         -0.2189800              -5.9587
        45                         -0.1508547              -4.1050
        46                         -0.1218821              -3.3166
        47                         -0.0378208              -1.0292
        48                         -0.0318206              -0.8659
        49                         -0.0055202              -0.1502
        50                         -0.0005139              -0.0140
        51                          0.0032132               0.0874
        52                          0.0265155               0.7215
       ...                                ...                  ...
        76                          0.6797050              18.4957
      -------------------------------------------------------------
                  HL-Gap            0.1001061 Eh            2.7240 eV
             Fermi-level           -0.3180436 Eh           -8.6544 eV

     #   Z          covCN         q      C6AA      α(0)
     1   7 N        2.655    -0.236    26.167     7.597
     2   6 C        2.868     0.186    24.020     8.034
     3   7 N        1.851    -0.309    28.867     7.963
     4   6 C        2.733     0.337    21.279     7.552
     5   7 N        2.747    -0.099    23.169     7.149
     6   6 C        3.831     0.191    17.552     5.961
     7   6 C        3.796    -0.024    21.010     6.527
     8  16 S        2.065    -0.189   149.070    20.549
     9   6 C        3.786     0.160    18.035     6.049
    10   8 O        1.724    -0.314    19.225     5.920
    11   6 C        3.696     0.084    19.341     6.291
    12   8 O        1.657    -0.430    21.442     6.251
    13   6 C        2.864     0.052    26.826     8.490
    14   6 C        2.910    -0.098    30.467     9.051
    15   8 O        0.859    -0.439    22.472     6.356
    16   1 H        0.861     0.186     1.181     1.702
    17   1 H        0.860     0.204     1.084     1.631
    18   1 H        0.923     0.067     2.116     2.275
    19   1 H        0.925     0.069     2.099     2.266
    20   1 H        0.924     0.054     2.267     2.354
    21   1 H        0.924     0.047     2.355     2.400
    22   1 H        0.924     0.041     2.439     2.443
    23   1 H        0.923     0.040     2.447     2.446
    24   1 H        0.805     0.303     0.711     1.324
    25   1 H        0.926     0.065     2.136     2.286
    26   1 H        0.926     0.048     2.341     2.393

 Mol. C6AA /au·bohr⁶  :       8769.562349
 Mol. C8AA /au·bohr⁸  :     223062.883945
 Mol. α(0) /au        :        143.259383


Wiberg/Mayer (AO) data.
largest (>0.10) Wiberg bond orders for each atom

 ---------------------------------------------------------------------------
     #   Z sym  total        # sym  WBO       # sym  WBO       # sym  WBO
 ---------------------------------------------------------------------------
     1   7 N    3.388 --     2 C    1.272    16 H    0.948    17 H    0.939
                             3 N    0.106
     2   6 C    3.966 --     3 N    1.421     1 N    1.272    14 C    1.170
     3   7 N    3.052 --     2 C    1.421     4 C    1.240    15 O    0.119
                             1 N    0.106
     4   6 C    3.950 --    15 O    1.660     3 N    1.240     5 N    0.962
     5   7 N    3.573 --    13 C    1.261     6 C    0.987     4 C    0.962
                            15 O    0.123
     6   6 C    3.932 --     5 N    0.987     7 C    0.964    10 O    0.964
                            18 H    0.945
     7   6 C    3.979 --     8 S    1.005    20 H    0.976    19 H    0.975
                             6 C    0.964
     8  16 S    2.053 --     7 C    1.005     9 C    0.921
     9   6 C    3.934 --    10 O    1.008    11 C    0.993    21 H    0.957
                             8 S    0.921
    10   8 O    2.124 --     9 C    1.008     6 C    0.964
    11   6 C    3.961 --    12 O    1.009     9 C    0.993    22 H    0.969
                            23 H    0.961
    12   8 O    1.959 --    11 C    1.009    24 H    0.894
    13   6 C    3.966 --    14 C    1.604     5 N    1.261    25 H    0.957
    14   6 C    3.972 --    13 C    1.604     2 C    1.170    26 H    0.967
    15   8 O    2.015 --     4 C    1.660     5 N    0.123     3 N    0.119
    16   1 H    0.965 --     1 N    0.948
    17   1 H    0.958 --     1 N    0.939
    18   1 H    0.995 --     6 C    0.945
    19   1 H    0.995 --     7 C    0.975
    20   1 H    0.997 --     7 C    0.976
    21   1 H    0.998 --     9 C    0.957
    22   1 H    0.998 --    11 C    0.969
    23   1 H    0.998 --    11 C    0.961
    24   1 H    0.907 --    12 O    0.894
    25   1 H    0.995 --    13 C    0.957
    26   1 H    0.997 --    14 C    0.967
 ---------------------------------------------------------------------------

Topologies differ in total number of bonds
Writing topology from bond orders to xtbtopo.mol

molecular dipole:
                 x           y           z       tot (Debye)
 q only:        1.061      -2.387      -0.088
   full:        1.173      -3.012      -0.363       8.267
molecular quadrupole (traceless):
                xx          xy          yy          xz          yz          zz
 q only:       19.657      -4.966     -12.992       3.545       2.938      -6.665
  q+dip:       14.730      -6.072      -9.234       7.271       2.084      -5.496
   full:       15.614      -5.778     -11.737       7.714       3.147      -3.877

           -------------------------------------------------
          |                Geometry Summary                 |
           -------------------------------------------------

      molecular mass/u    :      229.2563472
   center of mass at/Å    :       -0.1116868       0.3012580       0.0327393
  moments of inertia/u·Å² :        0.3709877E+03   0.1928156E+04   0.2074936E+04
rotational constants/cm⁻¹ :        0.4543987E-01   0.8742877E-02   0.8124412E-02

 * 24 selected distances

     #   Z          #   Z                                           value/Å
     1   7 N        2   6 C                                       1.3438223
     2   6 C        3   7 N                                       1.3117567
     3   7 N        4   6 C                                       1.3377774
     5   7 N        6   6 C                                       1.4359519
     6   6 C        7   6 C                                       1.5386477 (max)
     6   6 C       10   8 O                                       1.4087269
     9   6 C       10   8 O                                       1.3861015
     9   6 C       11   6 C                                       1.5215010
    11   6 C       12   8 O                                       1.4020328
     5   7 N       13   6 C                                       1.3469308
     2   6 C       14   6 C                                       1.4283106
    13   6 C       14   6 C                                       1.3543515
     4   6 C       15   8 O                                       1.2071698
     1   7 N       16   1 H                                       1.0027764
     1   7 N       17   1 H                                       1.0041151
     6   6 C       18   1 H                                       1.1021786
     7   6 C       19   1 H                                       1.0866052
     7   6 C       20   1 H                                       1.0912853
     9   6 C       21   1 H                                       1.0984671
    11   6 C       22   1 H                                       1.0978868
    11   6 C       23   1 H                                       1.1005861
    12   8 O       24   1 H                                       0.9626891 (min)
    13   6 C       25   1 H                                       1.0809843
    14   6 C       26   1 H                                       1.0760473

 * 6 distinct bonds (by element types)

   Z      Z             #   av. dist./Å        max./Å        min./Å
   1 H    6 C           8     1.0917551     1.1021786     1.0760473
   6 C    6 C           4     1.4607027     1.5386477     1.3543515
   1 H    7 N           2     1.0034458     1.0041151     1.0027764
   6 C    7 N           5     1.3552478     1.4359519     1.3117567
   1 H    8 O           1     0.9626891     0.9626891     0.9626891
   6 C    8 O           4     1.3510077     1.4087269     1.2071698


optimized geometry written to: xtbopt.xyz


           -------------------------------------------------
          | TOTAL ENERGY              -46.979097641919 Eh   |
          | GRADIENT NORM               0.000812526616 Eh/α |
          | HOMO-LUMO GAP               2.724026089913 eV   |
           -------------------------------------------------

------------------------------------------------------------------------
 * finished run on 2025/05/15 at 16:10:44.827     
------------------------------------------------------------------------
 total:
 * wall-time:     0 d,  0 h,  0 min,  1.497 sec
 *  cpu-time:     0 d,  0 h,  0 min,  0.922 sec
 * ratio c/w:     0.616 speedup
 SCF:
 * wall-time:     0 d,  0 h,  0 min,  0.057 sec
 *  cpu-time:     0 d,  0 h,  0 min,  0.029 sec
 * ratio c/w:     0.508 speedup
 ANC optimizer:
 * wall-time:     0 d,  0 h,  0 min,  1.430 sec
[...]
      -----------------------------------------------------------      
     |                   =====================                   |     
     |                           x T B                           |     
     |                   =====================                   |     
     |                         S. Grimme                         |     
     |          Mulliken Center for Theoretical Chemistry        |     
     |                    University of Bonn                     |     
      -----------------------------------------------------------      

   * xtb version 6.7.1 (edcfbbe) compiled by 'conda@3ef47c1a292c' on 2024-11-25

   xtb is free software: you can redistribute it and/or modify it under
   the terms of the GNU Lesser General Public License as published by
   the Free Software Foundation, either version 3 of the License, or
   (at your option) any later version.
   
   xtb is distributed in the hope that it will be useful,
   but WITHOUT ANY WARRANTY; without even the implied warranty of
   MERCHANTABILITY or FITNESS FOR A PARTICULAR PURPOSE.  See the
   GNU Lesser General Public License for more details.
   
   Cite this work as:
   * C. Bannwarth, E. Caldeweyher, S. Ehlert, A. Hansen, P. Pracht,
     J. Seibert, S. Spicher, S. Grimme, WIREs Comput. Mol. Sci., 2020, 11,
     e01493. DOI: 10.1002/wcms.1493
   
   for GFN2-xTB:
   * C. Bannwarth, S. Ehlert and S. Grimme., J. Chem. Theory Comput., 2019,
     15, 1652-1671. DOI: 10.1021/acs.jctc.8b01176
   for GFN1-xTB:
   * S. Grimme, C. Bannwarth, P. Shushkov, J. Chem. Theory Comput., 2017,
     13, 1989-2009. DOI: 10.1021/acs.jctc.7b00118
   for GFN0-xTB:
   * P. Pracht, E. Caldeweyher, S. Ehlert, S. Grimme, ChemRxiv, 2019, preprint.
     DOI: 10.26434/chemrxiv.8326202.v1
   for GFN-FF:
   * S. Spicher and S. Grimme, Angew. Chem. Int. Ed., 2020, 59, 15665-15673.
     DOI: 10.1002/anie.202004239
   
   for ALPB and GBSA implicit solvation:
   * S. Ehlert, M. Stahn, S. Spicher, S. Grimme, J. Chem. Theory Comput.,
     2021, 17, 4250-4261. DOI: 10.1021/acs.jctc.1c00471
   
   for ddCOSMO and CPCM-X implicit solvation:
   * M. Stahn, S. Ehlert, S. Grimme, J. Phys. Chem. A,
     2023, XX, XXXX-XXXX. DOI: 10.1021/acs.jpca.3c04382
   
   for DFT-D4:
   * E. Caldeweyher, C. Bannwarth and S. Grimme, J. Chem. Phys., 2017,
     147, 034112. DOI: 10.1063/1.4993215
   * E. Caldeweyher, S. Ehlert, A. Hansen, H. Neugebauer, S. Spicher,
     C. Bannwarth and S. Grimme, J. Chem. Phys., 2019, 150, 154122.
     DOI: 10.1063/1.5090222
   * E. Caldeweyher, J.-M. Mewes, S. Ehlert and S. Grimme, Phys. Chem. Chem. Phys.
     2020, 22, 8499-8512. DOI: 10.1039/D0CP00502A
   
   for sTDA-xTB:
   * S. Grimme and C. Bannwarth, J. Chem. Phys., 2016, 145, 054103.
     DOI: 10.1063/1.4959605
   
   in the mass-spec context:
   * V. Asgeirsson, C. Bauer and S. Grimme, Chem. Sci., 2017, 8, 4879.
     DOI: 10.1039/c7sc00601b
   * J. Koopman and S. Grimme, ACS Omega 2019, 4, 12, 15120-15133.
     DOI: 10.1021/acsomega.9b02011
   
   for metadynamics refer to:
   * S. Grimme, J. Chem. Theory Comput., 2019, 155, 2847-2862
     DOI: 10.1021/acs.jctc.9b00143
   
   for SPH calculations refer to:
   * S. Spicher and S. Grimme, J. Chem. Theory Comput., 2021, 17, 1701-1714
     DOI: 10.1021/acs.jctc.0c01306
   
   for ONIOM refer to:
   * C. Plett, A. Katbashev, S. Ehlert, S. Grimme, M. Bursch,
     Phys. Chem. Chem. Phys., 2023, 25, 17860-17868. DOI: 10.1039/D3CP02178E
   
   for DIPRO refer to:
   * J. Kohn, N. Gildemeister, S. Grimme, D. Fazzi, A. Hansen,
     J. Chem. Phys., 2023, just accepted.
   
   for PTB refer to:
   * S. Grimme, M. Mueller, A. Hansen, J. Chem. Phys., 2023, 158, 124111.
     DOI: 10.1063/5.0137838
   
   with help from (in alphabetical order)
   P. Atkinson, C. Bannwarth, F. Bohle, G. Brandenburg, E. Caldeweyher
   M. Checinski, S. Dohm, S. Ehlert, S. Ehrlich, I. Gerasimov, C. Hölzer
   A. Katbashev, J. Kohn, J. Koopman, C. Lavigne, S. Lehtola, F. März, M. Müller,
   F. Musil, H. Neugebauer, J. Pisarek, C. Plett, P. Pracht, F. Pultar,
   J. Seibert, P. Shushkov, S. Spicher, M. Stahn, M. Steiner, T. Strunk,
   J. Stückrath, T. Rose, and J. Unsleber
   
 * started run on 2025/05/15 at 16:10:46.111     
   ID    Z sym.   atoms
    1    7 N      1, 3, 5
    2    6 C      2, 4, 6, 7, 9, 11, 13, 14
    3   16 S      8
    4    8 O      10, 12, 15
    5    1 H      16-26

           -------------------------------------------------
          |                Calculation Setup                |
           -------------------------------------------------

          program call               : xtb /rds/general/user/hgt20/home/callum/QDESCP/Lamivudine_rdkit_conf_6/Lamivudine_rdkit_conf_6.xyz --acc 1 --gfn 2 --chrg 0 --uhf 2 --etemp 300 --input /rds/general/user/hgt20/home/callum/QDESCP/Lamivudine_rdkit_conf_6/Lamivudine_rdkit_conf_6_xtb.inp -P 1
          hostname                   : login-c
          coordinate file            : /rds/general/user/hgt20/home/callum/QDESCP/Lamivudine_rdkit_conf_6/Lamivudine_rdkit_conf_6.xyz
          omp threads                :                     1


           -------------------------------------------------
          |                 G F N 2 - x T B                 |
           -------------------------------------------------

        Reference                      10.1021/acs.jctc.8b01176
      * Hamiltonian:
        H0-scaling (s, p, d)           1.850000    2.230000    2.230000
        zeta-weighting                 0.500000
      * Dispersion:
        s8                             2.700000
        a1                             0.520000
        a2                             5.000000
        s9                             5.000000
      * Repulsion:
        kExp                           1.500000    1.000000
        rExp                           1.000000
      * Coulomb:
        alpha                          2.000000
        third order                    shell-resolved
        anisotropic                    true
        a3                             3.000000
        a5                             4.000000
        cn-shift                       1.200000
        cn-exp                         4.000000
        max-rad                        5.000000


          ...................................................
          :                      SETUP                      :
          :.................................................:
          :  # basis functions                  77          :
          :  # atomic orbitals                  76          :
          :  # shells                           42          :
          :  # electrons                        82          :
          :  max. iterations                   250          :
          :  Hamiltonian                  GFN2-xTB          :
          :  restarted?                      false          :
          :  GBSA solvation                  false          :
          :  PC potential                    false          :
          :  electronic temp.          300.0000000     K    :
          :  accuracy                    1.0000000          :
          :  -> integral cutoff          0.2500000E+02      :
          :  -> integral neglect         0.1000000E-07      :
          :  -> SCF convergence          0.1000000E-05 Eh   :
          :  -> wf. convergence          0.1000000E-03 e    :
          :  Broyden damping             0.4000000          :
          :  net charge                          0          :
          :  unpaired electrons                  2          :
          ...................................................

 iter      E             dE          RMSdq      gap      omega  full diag
   1    -47.1047486 -0.471047E+02  0.531E+00    0.42       0.0  T
   2    -47.1520112 -0.472626E-01  0.385E+00    1.23       1.0  T
   3    -46.9828666  0.169145E+00  0.371E+00    1.18       1.0  T
   4    -47.2339448 -0.251078E+00  0.203E+00    0.91       1.0  T
   5    -47.1422265  0.917183E-01  0.253E+00    0.44       1.0  T
   6    -47.2657577 -0.123531E+00  0.235E+00    0.50       1.0  T
   7    -47.2848484 -0.190908E-01  0.186E+00    0.42       1.0  T
   8    -47.2491157  0.357327E-01  0.207E+00    0.57       1.0  T
   9    -47.3271672 -0.780514E-01  0.129E+00    0.46       1.0  T
  10    -47.3239805  0.318666E-02  0.121E+00    0.43       1.0  T
  11    -47.3368286 -0.128481E-01  0.289E-01    0.43       1.0  T
  12    -47.3255887  0.112400E-01  0.819E-01    0.44       1.0  T
  13    -47.3367495 -0.111608E-01  0.366E-01    0.42       1.0  T
  14    -47.3373337 -0.584238E-03  0.227E-01    0.43       1.0  T
  15    -47.3380796 -0.745878E-03  0.153E-01    0.42       1.0  T
  16    -47.3383476 -0.268059E-03  0.597E-02    0.42       1.0  T
  17    -47.3383834 -0.357989E-04  0.297E-02    0.42       1.0  T
  18    -47.3383947 -0.112788E-04  0.479E-03    0.42       4.1  T
  19    -47.3383949 -0.161748E-06  0.404E-03    0.42       4.9  T
  20    -47.3383951 -0.257452E-06  0.797E-04    0.42      24.6  T
  21    -47.3383951 -0.521018E-08  0.487E-04    0.42      40.3  T

   *** convergence criteria satisfied after 21 iterations ***

         #    Occupation            Energy/Eh            Energy/eV
      -------------------------------------------------------------
         1        2.0000           -0.7478920             -20.3512
       ...           ...                  ...                  ...
        36        2.0000           -0.4328856             -11.7794
        37        2.0000           -0.4145371             -11.2801
        38        2.0000           -0.4032123             -10.9720
        39        1.8667           -0.3913832             -10.6501
        40        1.6176           -0.3900601             -10.6141
        41        1.5157           -0.3896640             -10.6033
        42        0.9997           -0.2477766              -6.7423 (HOMO)
        43        0.0003           -0.2322763              -6.3206 (LUMO)
        44                         -0.2114662              -5.7543
        45                         -0.1664639              -4.5297
        46                         -0.1102481              -3.0000
        47                         -0.0428863              -1.1670
       ...                                ...                  ...
        76                          0.6813708              18.5410
      -------------------------------------------------------------
                  HL-Gap            0.0155002 Eh            0.4218 eV
             Fermi-level           -0.3148155 Eh           -8.5666 eV

 transition dipole moment (au) for excitation:          41          42
     X       Y       Z   
   1.0969   0.0500  -0.1423  total (au/Debye):    1.107   2.814
 dE (eV)             :    3.861
 oscillator strength :  0.16400E+00

 SCC (total)                   0 d,  0 h,  0 min,  0.042 sec
 SCC setup                      ...        0 min,  0.000 sec (  0.496%)
 Dispersion                     ...        0 min,  0.000 sec (  0.439%)
 classical contributions        ...        0 min,  0.000 sec (  0.148%)
 integral evaluation            ...        0 min,  0.004 sec ( 10.061%)
 iterations                     ...        0 min,  0.023 sec ( 53.515%)
 molecular gradient             ...        0 min,  0.010 sec ( 24.853%)
 printout                       ...        0 min,  0.004 sec ( 10.473%)

         :::::::::::::::::::::::::::::::::::::::::::::::::::::
         ::                     SUMMARY                     ::
         :::::::::::::::::::::::::::::::::::::::::::::::::::::
         :: total energy             -46.849507950775 Eh    ::
         :: gradient norm              0.106840902946 Eh/a0 ::
         :: HOMO-LUMO gap              0.421782483155 eV    ::
         ::.................................................::
         :: SCC energy               -47.338403394381 Eh    ::
         :: -> isotropic ES            0.095062193610 Eh    ::
         :: -> anisotropic ES          0.002113989363 Eh    ::
         :: -> anisotropic XC          0.006753651750 Eh    ::
         :: -> dispersion             -0.025497108648 Eh    ::
         :: repulsion energy           0.488895443606 Eh    ::
         :: add. restraining           0.000000000000 Eh    ::
         :: total charge               0.000000000002 e     ::
         :::::::::::::::::::::::::::::::::::::::::::::::::::::

           -------------------------------------------------
          |                Property Printout                |
           -------------------------------------------------

    * Orbital Energies and Occupations

         #    Occupation            Energy/Eh            Energy/eV
      -------------------------------------------------------------
         1        2.0000           -0.7478920             -20.3512
       ...           ...                  ...                  ...
        30        2.0000           -0.4902350             -13.3400
        31        2.0000           -0.4820340             -13.1168
        32        2.0000           -0.4799583             -13.0603
        33        2.0000           -0.4740308             -12.8990
        34        2.0000           -0.4665897             -12.6966
        35        2.0000           -0.4405476             -11.9879
        36        2.0000           -0.4328856             -11.7794
        37        2.0000           -0.4145371             -11.2801
        38        2.0000           -0.4032123             -10.9720
        39        1.8667           -0.3913832             -10.6501
        40        1.6176           -0.3900601             -10.6141
        41        1.5157           -0.3896640             -10.6033
        42        0.9997           -0.2477766              -6.7423 (HOMO)
        43        0.0003           -0.2322763              -6.3206 (LUMO)
        44                         -0.2114662              -5.7543
        45                         -0.1664639              -4.5297
        46                         -0.1102481              -3.0000
        47                         -0.0428863              -1.1670
        48                         -0.0357930              -0.9740
        49                         -0.0139928              -0.3808
        50                         -0.0119803              -0.3260
        51                          0.0102086               0.2778
        52                          0.0285274               0.7763
        53                          0.0520473               1.4163
       ...                                ...                  ...
        76                          0.6813708              18.5410
      -------------------------------------------------------------
                  HL-Gap            0.0155002 Eh            0.4218 eV
             Fermi-level           -0.3148155 Eh           -8.5666 eV

     #   Z          covCN         q      C6AA      α(0)
     1   7 N        2.655    -0.249    26.478     7.642
     2   6 C        2.868     0.138    24.993     8.195
     3   7 N        1.851    -0.259    27.589     7.785
     4   6 C        2.733     0.331    21.376     7.569
     5   7 N        2.747    -0.098    23.152     7.146
     6   6 C        3.831     0.191    17.555     5.961
     7   6 C        3.796    -0.039    21.284     6.569
     8  16 S        2.065    -0.103   145.348    20.291
     9   6 C        3.786     0.146    18.240     6.083
    10   8 O        1.724    -0.311    19.178     5.913
    11   6 C        3.696     0.084    19.342     6.291
    12   8 O        1.657    -0.430    21.437     6.250
    13   6 C        2.864    -0.010    28.265     8.715
    14   6 C        2.910    -0.076    29.897     8.966
    15   8 O        0.859    -0.425    22.178     6.314
    16   1 H        0.861     0.176     1.239     1.744
    17   1 H        0.860     0.191     1.155     1.684
    18   1 H        0.923     0.062     2.173     2.305
    19   1 H        0.925     0.074     2.044     2.236
    20   1 H        0.924     0.067     2.117     2.275
    21   1 H        0.924     0.052     2.301     2.372
    22   1 H        0.924     0.040     2.446     2.446
    23   1 H        0.923     0.045     2.381     2.413
    24   1 H        0.805     0.304     0.708     1.322
    25   1 H        0.926     0.050     2.317     2.380
    26   1 H        0.926     0.048     2.347     2.396

 Mol. C6AA /au·bohr⁶  :       8769.778850
 Mol. C8AA /au·bohr⁸  :     222864.019209
 Mol. α(0) /au        :        143.264412


Wiberg/Mayer (AO) data.
largest (>0.10) Wiberg bond orders for each atom

 ---------------------------------------------------------------------------
     #   Z sym  total        # sym  WBO       # sym  WBO       # sym  WBO
 ---------------------------------------------------------------------------
     1   7 N    3.262 --     2 C    1.198    16 H    0.952    17 H    0.945
     2   6 C    3.840 --     3 N    1.268    14 C    1.219     1 N    1.198
     3   7 N    2.909 --     4 C    1.287     2 C    1.268    15 O    0.160
     4   6 C    3.941 --    15 O    1.618     3 N    1.287     5 N    0.936
     5   7 N    3.392 --    13 C    1.173     6 C    1.004     4 C    0.936
     6   6 C    3.930 --     5 N    1.004    10 O    0.955     7 C    0.952
                            18 H    0.945
     7   6 C    3.958 --     8 S    0.970    19 H    0.970    20 H    0.967
                             6 C    0.952
     8  16 S    2.076 --     7 C    0.970     9 C    0.869
     9   6 C    3.908 --    10 O    1.014    11 C    0.990    21 H    0.949
                             8 S    0.869
    10   8 O    2.124 --     9 C    1.014     6 C    0.955
    11   6 C    3.955 --    12 O    1.009     9 C    0.990    22 H    0.968
                            23 H    0.959
    12   8 O    1.958 --    11 C    1.009    24 H    0.893
    13   6 C    3.815 --    14 C    1.406     5 N    1.173    25 H    0.947
    14   6 C    3.759 --    13 C    1.406     2 C    1.219    26 H    0.963
    15   8 O    1.957 --     4 C    1.618     3 N    0.160
    16   1 H    0.968 --     1 N    0.952
    17   1 H    0.961 --     1 N    0.945
    18   1 H    0.993 --     6 C    0.945
    19   1 H    0.989 --     7 C    0.970
    20   1 H    0.986 --     7 C    0.967
    21   1 H    0.989 --     9 C    0.949
    22   1 H    0.998 --    11 C    0.968
    23   1 H    0.996 --    11 C    0.959
    24   1 H    0.907 --    12 O    0.893
    25   1 H    0.981 --    13 C    0.947
    26   1 H    0.991 --    14 C    0.963
 ---------------------------------------------------------------------------

Topologies differ in total number of bonds
Writing topology from bond orders to xtbtopo.mol

molecular dipole:
                 x           y           z       tot (Debye)
 q only:        0.197      -2.040       0.160
   full:        0.450      -2.533      -0.163       6.552
molecular quadrupole (traceless):
                xx          xy          yy          xz          yz          zz
 q only:       17.771      -3.902     -12.340       2.248       3.270      -5.431
  q+dip:       12.992      -3.438      -8.289       6.517       2.189      -4.703
   full:       14.006      -3.256     -10.156       6.768       3.067      -3.850


           -------------------------------------------------
          | TOTAL ENERGY              -46.849507950775 Eh   |
          | GRADIENT NORM               0.106840902946 Eh/α |
          | HOMO-LUMO GAP               0.421782483155 eV   |
           -------------------------------------------------

------------------------------------------------------------------------
 * finished run on 2025/05/15 at 16:10:46.183     
------------------------------------------------------------------------
 total:
 * wall-time:     0 d,  0 h,  0 min,  0.072 sec
 *  cpu-time:     0 d,  0 h,  0 min,  0.050 sec
 * ratio c/w:     0.700 speedup
 SCF:
 * wall-time:     0 d,  0 h,  0 min,  0.042 sec
 *  cpu-time:     0 d,  0 h,  0 min,  0.042 sec
 * ratio c/w:     0.995 speedup


