26
 energy: -46.979354063768 gnorm: 0.000686566653 xtb: 6.7.1 (edcfbbe)
N            4.63475342801421        1.04700564160258       -0.65800490850300
C            3.38167119938705        0.62676775049617       -0.41214752865613
N            3.24484799202927       -0.59086095452749        0.06007460950876
C            2.04695136845589       -1.12060136058304        0.32602418671426
N            0.90198781099068       -0.27111897228551        0.09789152899629
C           -0.38257917187097       -0.84963034624857        0.39364563938462
C           -0.83733417939880       -1.81136986112313       -0.72150333041326
S           -2.64400079526143       -1.83801645561184       -0.57322809786610
C           -2.59942021532267       -0.44365054548232        0.65172051716829
O           -1.35562659867478        0.15138627511124        0.51079205847416
C           -3.71539142456892        0.55343333550314        0.37924127730047
O           -3.91279727981571        1.32043431286938        1.53883931679289
C            1.03711944626597        0.97247494211969       -0.39583904261158
C            2.26521302415712        1.47621896148302       -0.67205261908364
O            1.84545594679508       -2.24091064231266        0.73216866302709
H            4.82143365276843        1.97853480300159       -0.97919706984396
H            5.39130605063201        0.42486729200340       -0.43547528651351
H           -0.28108875874607       -1.41871535132546        1.33382676096654
H           -0.56730157354472       -1.42145683245668       -1.70417835641659
H           -0.42369357651830       -2.80645822848575       -0.58239931953016
H           -2.72679868427071       -0.88487336368350        1.64962544238589
H           -4.62137747714193       -0.00899963608289        0.11544949825209
H           -3.42093506581810        1.17862279346230       -0.47383709747703
H           -4.59976578510606        1.97444340325626        1.37139769912855
H            0.12402782704446        1.53164467989243       -0.53825202775734
H            2.39334283951888        2.47092835940736       -1.06138251342773
