42
 energy: -71.303025532176 gnorm: 0.000972215937 xtb: 6.7.1 (edcfbbe)
O           -6.15199726604988        0.70736892363740       -0.04700843500204
C           -5.28821241070095        1.56001279977329       -0.04896405835210
O           -5.57420431620320        2.85736550437180       -0.10588291272114
C           -3.84817421375199        1.25141956462311        0.00027935487232
C           -3.51106456699647       -0.05961989416294       -0.15127057582656
N           -2.25597093499665       -0.53905810726124       -0.12757113492268
C           -1.19186981071141        0.34133932641975        0.00576920115151
C            0.12305356442488       -0.11348180564096       -0.04893619682503
C            1.21916564490699        0.74278389820115        0.09846249292698
N            2.49539996774707        0.26685566728407        0.07467732422597
C            3.63539052948805        1.09163371817827       -0.27958647208174
C            4.66776159464859        0.22958392436120       -1.01185554578966
N            5.16246490461432       -0.87409436966586       -0.20307001917237
C            4.19091407027503       -1.31569723139651        0.78764694047562
C            2.77429081469615       -1.14271995210256        0.24930451454859
C            0.91362898825633        2.10751067650952        0.30476813139889
F            1.91187646830243        3.00402871581140        0.52165726631662
C           -0.37071772265128        2.57328466172581        0.33326748447584
C           -1.45757612524499        1.70770627187081        0.18302550813970
C           -2.81924723096817        2.26736262649287        0.22256875512231
O           -3.02599663429764        3.45022066032624        0.42749636143892
C           -2.03290501030885       -1.94653609656036       -0.27990981658798
C           -2.90334453204706       -2.91195020957397        0.46626781393974
C           -1.47508100821586       -2.73110636689224        0.87451722102829
H           -6.53542703706239        2.98524385869414       -0.11412513952385
H           -4.30199837603050       -0.78072147329962       -0.30888999928652
H            0.30475033102170       -1.15709189246290       -0.23196883583022
H            3.31741114803204        1.89895135412257       -0.94037637151820
H            4.08860453120353        1.53964776774042        0.61502167883262
H            4.19923180380105       -0.19061279038758       -1.91014672195444
H            5.50290951460723        0.85199140847496       -1.33486188150799
H            6.03084034635060       -0.62965717564757        0.25783258495482
H            4.26686202444325       -0.76319542388970        1.73763994398457
H            4.37602756598011       -2.37367904178465        0.99912892505897
H            2.06834742962286       -1.55700448231934        0.97397504880011
H            2.67751170227549       -1.69727173648538       -0.69424077361520
H           -0.56842711294166        3.62185945952332        0.49377540197027
H           -1.71306687132655       -2.22351601624183       -1.28060331957769
H           -3.19116559229643       -3.82277607227473       -0.03520418004867
H           -3.66432139608304       -2.51336451086698        1.11853527841669
H           -1.28026313376737       -2.19547528267214        1.79092935613599
H           -0.76561164204501       -3.51724085655413        0.66572580192873
