----- Optimization -----
      -----------------------------------------------------------      
     |                   =====================                   |     
     |                           x T B                           |     
     |                   =====================                   |     
     |                         S. Grimme                         |     
     |          Mulliken Center for Theoretical Chemistry        |     
     |                    University of Bonn                     |     
      -----------------------------------------------------------      

   * xtb version 6.7.1 (edcfbbe) compiled by 'conda@3ef47c1a292c' on 2024-11-25

   xtb is free software: you can redistribute it and/or modify it under
   the terms of the GNU Lesser General Public License as published by
   the Free Software Foundation, either version 3 of the License, or
   (at your option) any later version.
   
   xtb is distributed in the hope that it will be useful,
   but WITHOUT ANY WARRANTY; without even the implied warranty of
   MERCHANTABILITY or FITNESS FOR A PARTICULAR PURPOSE.  See the
   GNU Lesser General Public License for more details.
   
   Cite this work as:
   * C. Bannwarth, E. Caldeweyher, S. Ehlert, A. Hansen, P. Pracht,
     J. Seibert, S. Spicher, S. Grimme, WIREs Comput. Mol. Sci., 2020, 11,
     e01493. DOI: 10.1002/wcms.1493
   
   for GFN2-xTB:
   * C. Bannwarth, S. Ehlert and S. Grimme., J. Chem. Theory Comput., 2019,
     15, 1652-1671. DOI: 10.1021/acs.jctc.8b01176
   for GFN1-xTB:
   * S. Grimme, C. Bannwarth, P. Shushkov, J. Chem. Theory Comput., 2017,
     13, 1989-2009. DOI: 10.1021/acs.jctc.7b00118
   for GFN0-xTB:
   * P. Pracht, E. Caldeweyher, S. Ehlert, S. Grimme, ChemRxiv, 2019, preprint.
     DOI: 10.26434/chemrxiv.8326202.v1
   for GFN-FF:
   * S. Spicher and S. Grimme, Angew. Chem. Int. Ed., 2020, 59, 15665-15673.
     DOI: 10.1002/anie.202004239
   
   for ALPB and GBSA implicit solvation:
   * S. Ehlert, M. Stahn, S. Spicher, S. Grimme, J. Chem. Theory Comput.,
     2021, 17, 4250-4261. DOI: 10.1021/acs.jctc.1c00471
   
   for ddCOSMO and CPCM-X implicit solvation:
   * M. Stahn, S. Ehlert, S. Grimme, J. Phys. Chem. A,
     2023, XX, XXXX-XXXX. DOI: 10.1021/acs.jpca.3c04382
   
   for DFT-D4:
   * E. Caldeweyher, C. Bannwarth and S. Grimme, J. Chem. Phys., 2017,
     147, 034112. DOI: 10.1063/1.4993215
   * E. Caldeweyher, S. Ehlert, A. Hansen, H. Neugebauer, S. Spicher,
     C. Bannwarth and S. Grimme, J. Chem. Phys., 2019, 150, 154122.
     DOI: 10.1063/1.5090222
   * E. Caldeweyher, J.-M. Mewes, S. Ehlert and S. Grimme, Phys. Chem. Chem. Phys.
     2020, 22, 8499-8512. DOI: 10.1039/D0CP00502A
   
   for sTDA-xTB:
   * S. Grimme and C. Bannwarth, J. Chem. Phys., 2016, 145, 054103.
     DOI: 10.1063/1.4959605
   
   in the mass-spec context:
   * V. Asgeirsson, C. Bauer and S. Grimme, Chem. Sci., 2017, 8, 4879.
     DOI: 10.1039/c7sc00601b
   * J. Koopman and S. Grimme, ACS Omega 2019, 4, 12, 15120-15133.
     DOI: 10.1021/acsomega.9b02011
   
   for metadynamics refer to:
   * S. Grimme, J. Chem. Theory Comput., 2019, 155, 2847-2862
     DOI: 10.1021/acs.jctc.9b00143
   
   for SPH calculations refer to:
   * S. Spicher and S. Grimme, J. Chem. Theory Comput., 2021, 17, 1701-1714
     DOI: 10.1021/acs.jctc.0c01306
   
   for ONIOM refer to:
   * C. Plett, A. Katbashev, S. Ehlert, S. Grimme, M. Bursch,
     Phys. Chem. Chem. Phys., 2023, 25, 17860-17868. DOI: 10.1039/D3CP02178E
   
   for DIPRO refer to:
   * J. Kohn, N. Gildemeister, S. Grimme, D. Fazzi, A. Hansen,
     J. Chem. Phys., 2023, just accepted.
   
   for PTB refer to:
   * S. Grimme, M. Mueller, A. Hansen, J. Chem. Phys., 2023, 158, 124111.
     DOI: 10.1063/5.0137838
   
   with help from (in alphabetical order)
   P. Atkinson, C. Bannwarth, F. Bohle, G. Brandenburg, E. Caldeweyher
   M. Checinski, S. Dohm, S. Ehlert, S. Ehrlich, I. Gerasimov, C. Hölzer
   A. Katbashev, J. Kohn, J. Koopman, C. Lavigne, S. Lehtola, F. März, M. Müller,
   F. Musil, H. Neugebauer, J. Pisarek, C. Plett, P. Pracht, F. Pultar,
   J. Seibert, P. Shushkov, S. Spicher, M. Stahn, M. Steiner, T. Strunk,
   J. Stückrath, T. Rose, and J. Unsleber
   
 * started run on 2025/05/15 at 16:06:24.211     
   ID    Z sym.   atoms
    1    8 O      1, 3, 21
    2    6 C      2, 4, 5, 7-9, 11, 12, 14-16, 18-20, 22-24
    3    7 N      6, 10, 13
    4    9 F      17
    5    1 H      25-42

           -------------------------------------------------
          |                Calculation Setup                |
           -------------------------------------------------

          program call               : xtb /rds/general/user/hgt20/home/callum/QDESCP/Ciprofloxacin_rdkit_conf_22/Ciprofloxacin_rdkit_conf_22.xyz --opt normal --acc 1 --gfn 2 --chrg 0 --uhf 0 -P 1
          hostname                   : login-c
          coordinate file            : /rds/general/user/hgt20/home/callum/QDESCP/Ciprofloxacin_rdkit_conf_22/Ciprofloxacin_rdkit_conf_22.xyz
          omp threads                :                     1


           -------------------------------------------------
          |                 G F N 2 - x T B                 |
           -------------------------------------------------

        Reference                      10.1021/acs.jctc.8b01176
      * Hamiltonian:
        H0-scaling (s, p, d)           1.850000    2.230000    2.230000
        zeta-weighting                 0.500000
      * Dispersion:
        s8                             2.700000
        a1                             0.520000
        a2                             5.000000
        s9                             5.000000
      * Repulsion:
        kExp                           1.500000    1.000000
        rExp                           1.000000
      * Coulomb:
        alpha                          2.000000
        third order                    shell-resolved
        anisotropic                    true
        a3                             3.000000
        a5                             4.000000
        cn-shift                       1.200000
        cn-exp                         4.000000
        max-rad                        5.000000


          ...................................................
          :                      SETUP                      :
          :.................................................:
          :  # basis functions                 114          :
          :  # atomic orbitals                 114          :
          :  # shells                           66          :
          :  # electrons                       126          :
          :  max. iterations                   250          :
          :  Hamiltonian                  GFN2-xTB          :
          :  restarted?                      false          :
          :  GBSA solvation                  false          :
          :  PC potential                    false          :
          :  electronic temp.          300.0000000     K    :
          :  accuracy                    1.0000000          :
          :  -> integral cutoff          0.2500000E+02      :
          :  -> integral neglect         0.1000000E-07      :
          :  -> SCF convergence          0.1000000E-05 Eh   :
          :  -> wf. convergence          0.1000000E-03 e    :
          :  Broyden damping             0.4000000          :
          :  net charge                          0          :
          :  unpaired electrons                  0          :
          ...................................................

 iter      E             dE          RMSdq      gap      omega  full diag
   1    -71.9683857 -0.719684E+02  0.420E+00    2.37       0.0  T
   2    -72.0921343 -0.123749E+00  0.262E+00    2.33       1.0  T
   3    -72.1064714 -0.143371E-01  0.148E+00    2.52       1.0  T
   4    -72.1232571 -0.167858E-01  0.478E-01    2.49       1.0  T
   5    -72.1303720 -0.711481E-02  0.113E-01    2.48       1.0  T
   6    -72.1305947 -0.222762E-03  0.534E-02    2.49       1.0  T
   7    -72.1306271 -0.324055E-04  0.240E-02    2.49       1.0  T
   8    -72.1306300 -0.285973E-05  0.920E-03    2.49       1.7  T
   9    -72.1306315 -0.153038E-05  0.413E-03    2.49       3.7  T
  10    -72.1306316 -0.120802E-06  0.163E-03    2.49       9.5  T
  11    -72.1306317 -0.553554E-07  0.728E-04    2.49      21.2  T
  12    -72.1306317 -0.728602E-08  0.311E-04    2.49      49.6  T

   *** convergence criteria satisfied after 12 iterations ***

         #    Occupation            Energy/Eh            Energy/eV
      -------------------------------------------------------------
         1        2.0000           -0.8202024             -22.3188
       ...           ...                  ...                  ...
        57        2.0000           -0.4372094             -11.8971
        58        2.0000           -0.4213874             -11.4665
        59        2.0000           -0.4153502             -11.3023
        60        2.0000           -0.3855026             -10.4901
        61        2.0000           -0.3746349             -10.1943
        62        2.0000           -0.3734200             -10.1613
        63        2.0000           -0.3644857              -9.9182 (HOMO)
        64                         -0.2729482              -7.4273 (LUMO)
        65                         -0.2589609              -7.0467
        66                         -0.2295281              -6.2458
        67                         -0.2066067              -5.6221
        68                         -0.1437681              -3.9121
       ...                                ...                  ...
       114                          0.6976664              18.9845
      -------------------------------------------------------------
                  HL-Gap            0.0915375 Eh            2.4909 eV
             Fermi-level           -0.3187169 Eh           -8.6727 eV

 SCC (total)                   0 d,  0 h,  0 min,  0.067 sec
 SCC setup                      ...        0 min,  0.000 sec (  0.578%)
 Dispersion                     ...        0 min,  0.000 sec (  0.721%)
 classical contributions        ...        0 min,  0.000 sec (  0.219%)
 integral evaluation            ...        0 min,  0.008 sec ( 11.865%)
 iterations                     ...        0 min,  0.027 sec ( 40.306%)
 molecular gradient             ...        0 min,  0.031 sec ( 46.038%)
 printout                       ...        0 min,  0.000 sec (  0.264%)

         :::::::::::::::::::::::::::::::::::::::::::::::::::::
         ::                     SUMMARY                     ::
         :::::::::::::::::::::::::::::::::::::::::::::::::::::
         :: total energy             -71.286533214044 Eh    ::
         :: gradient norm              0.080598017629 Eh/a0 ::
         :: HOMO-LUMO gap              2.490861730718 eV    ::
         ::.................................................::
         :: SCC energy               -72.130609413567 Eh    ::
         :: -> isotropic ES            0.107985602384 Eh    ::
         :: -> anisotropic ES          0.007995489869 Eh    ::
         :: -> anisotropic XC          0.019910504849 Eh    ::
         :: -> dispersion             -0.045058026213 Eh    ::
         :: repulsion energy           0.844076199523 Eh    ::
         :: add. restraining           0.000000000000 Eh    ::
         :: total charge              -0.000000000000 e     ::
         :::::::::::::::::::::::::::::::::::::::::::::::::::::

      ----------------------------------------------------------- 
     |                   =====================                   |
     |                        A N C O P T                        |
     |                   =====================                   |
     |               Approximate Normal Coordinate               |
     |                Rational Function Optimizer                |
      ----------------------------------------------------------- 
      ----------------------------------------------------------- 
     |                   =====================                   |
     |                        A N C O P T                        |
     |                   =====================                   |
     |               Approximate Normal Coordinate               |
     |                Rational Function Optimizer                |
      ----------------------------------------------------------- 

          ...................................................
          :                      SETUP                      :
          :.................................................:
          :   optimization level            normal          :
          :   max. optcycles                   200          :
          :   ANC micro-cycles                  20          :
          :   degrees of freedom               120          :
          :.................................................:
          :   RF solver                   davidson          :
          :   write xtbopt.log                true          :
          :   linear?                        false          :
          :   energy convergence         0.5000000E-05 Eh   :
          :   grad. convergence          0.1000000E-02 Eh/α :
          :   maxmium RF displ.          1.0000000          :
          :   Hlow (freq-cutoff)         0.1000000E-01      :
          :   Hmax (freq-cutoff)         5.0000000          :
          :   S6 in model hess.         20.0000000          :
          ...................................................

generating ANC from exact Hessian ...
Using Lindh-Hessian (1995)
 Shifting diagonal of input Hessian by    9.5962905432032380E-003
 Lowest  eigenvalues of input Hessian
    0.000000    0.000000    0.000000    0.000000    0.000000    0.000000
    0.010000    0.010329    0.010832    0.011564    0.012008    0.012163
    0.013168    0.014422    0.016260    0.016663    0.019505    0.020620
 Highest eigenvalues
    1.870302    2.005105    2.028795    2.099319    2.212573    2.340942


........................................................................
.............................. CYCLE    1 ..............................
........................................................................

 iter      E             dE          RMSdq      gap      omega  full diag
   1    -72.1306317 -0.721306E+02  0.124E-04    2.49       0.0  T
   2    -72.1306317 -0.125539E-09  0.798E-05    2.49     193.3  T
   3    -72.1306317 -0.859188E-10  0.475E-05    2.49     324.8  T
     SCC iter.                  ...        0 min,  0.007 sec
     gradient                   ...        0 min,  0.026 sec
 * total energy  :   -71.2865332 Eh     change       -0.1161283E-08 Eh
   gradient norm :     0.0806010 Eh/α   predicted     0.0000000E+00 (-100.00%)
   displ. norm   :     0.3855865 α      lambda       -0.1495257E-01
   maximum displ.:     0.1812872 α      in ANC's #11, #15, #20, ...

........................................................................
.............................. CYCLE    2 ..............................
........................................................................

 iter      E             dE          RMSdq      gap      omega  full diag
   1    -72.1655568 -0.721656E+02  0.229E-01    2.52       0.0  T
   2    -72.1659460 -0.389198E-03  0.159E-01    2.55       1.0  T
   3    -72.1661162 -0.170157E-03  0.882E-02    2.54       1.0  T
   4    -72.1661665 -0.503306E-04  0.282E-02    2.54       1.0  T
   5    -72.1661897 -0.232351E-04  0.555E-03    2.54       2.8  T
   6    -72.1661903 -0.552889E-06  0.256E-03    2.54       6.0  T
   7    -72.1661903 -0.492104E-07  0.972E-04    2.54      15.9  T
   8    -72.1661903 -0.507237E-08  0.396E-04    2.54      38.9  T
     SCC iter.                  ...        0 min,  0.017 sec
     gradient                   ...        0 min,  0.025 sec
 * total energy  :   -71.2971750 Eh     change       -0.1064177E-01 Eh
   gradient norm :     0.0350555 Eh/α   predicted    -0.8595913E-02 ( -19.22%)
   displ. norm   :     0.3965798 α      lambda       -0.5939272E-02
   maximum displ.:     0.2362944 α      in ANC's #11, #15, #12, ...

........................................................................
.............................. CYCLE    3 ..............................
........................................................................

 iter      E             dE          RMSdq      gap      omega  full diag
   1    -72.1903045 -0.721903E+02  0.171E-01    2.56       0.0  T
   2    -72.1905809 -0.276382E-03  0.119E-01    2.59       1.0  T
   3    -72.1907054 -0.124514E-03  0.654E-02    2.59       1.0  T
   4    -72.1907208 -0.153634E-04  0.233E-02    2.58       1.0  T
   5    -72.1907357 -0.149487E-04  0.459E-03    2.59       3.4  T
   6    -72.1907362 -0.459778E-06  0.191E-03    2.59       8.1  T
   7    -72.1907362 -0.289465E-07  0.732E-04    2.59      21.1  T
   8    -72.1907362 -0.343057E-08  0.311E-04    2.59      49.6  T
     SCC iter.                  ...        0 min,  0.019 sec
     gradient                   ...        0 min,  0.026 sec
 * total energy  :   -71.3007753 Eh     change       -0.3600281E-02 Eh
   gradient norm :     0.0093880 Eh/α   predicted    -0.3436686E-02 (  -4.54%)
   displ. norm   :     0.2676044 α      lambda       -0.1147235E-02
   maximum displ.:     0.1748614 α      in ANC's #11, #15, #3, ...

........................................................................
.............................. CYCLE    4 ..............................
........................................................................

 iter      E             dE          RMSdq      gap      omega  full diag
   1    -72.1957341 -0.721957E+02  0.632E-02    2.59       0.0  T
   2    -72.1957535 -0.194002E-04  0.384E-02    2.60       1.0  T
   3    -72.1957535 -0.292165E-07  0.214E-02    2.60       1.0  T
   4    -72.1957600 -0.644841E-05  0.524E-03    2.60       2.9  T
   5    -72.1957608 -0.855955E-06  0.160E-03    2.60       9.6  T
   6    -72.1957609 -0.446056E-07  0.807E-04    2.60      19.1  T
   7    -72.1957609 -0.615312E-08  0.241E-04    2.60      64.1  T
     SCC iter.                  ...        0 min,  0.015 sec
     gradient                   ...        0 min,  0.026 sec
 * total energy  :   -71.3016070 Eh     change       -0.8317748E-03 Eh
   gradient norm :     0.0077835 Eh/α   predicted    -0.6147068E-03 ( -26.10%)
   displ. norm   :     0.3237578 α      lambda       -0.8303958E-03
   maximum displ.:     0.1815467 α      in ANC's #11, #3, #5, ...

........................................................................
.............................. CYCLE    5 ..............................
........................................................................

 iter      E             dE          RMSdq      gap      omega  full diag
   1    -72.1974695 -0.721975E+02  0.724E-02    2.60       0.0  T
   2    -72.1974769 -0.735706E-05  0.423E-02    2.61       1.0  T
   3    -72.1974727  0.414741E-05  0.146E-02    2.60       1.1  T
   4    -72.1974784 -0.571611E-05  0.300E-03    2.61       5.1  T
   5    -72.1974787 -0.216250E-06  0.132E-03    2.61      11.6  T
   6    -72.1974787 -0.128381E-07  0.616E-04    2.61      25.1  T
   7    -72.1974787 -0.701952E-08  0.215E-04    2.61      71.9  T
     SCC iter.                  ...        0 min,  0.015 sec
     gradient                   ...        0 min,  0.026 sec
 * total energy  :   -71.3021557 Eh     change       -0.5486627E-03 Eh
   gradient norm :     0.0059828 Eh/α   predicted    -0.4587230E-03 ( -16.39%)
   displ. norm   :     0.2440969 α      lambda       -0.3488538E-03
   maximum displ.:     0.1247992 α      in ANC's #5, #4, #3, ...

........................................................................
.............................. CYCLE    6 ..............................
........................................................................

 iter      E             dE          RMSdq      gap      omega  full diag
   1    -72.1974759 -0.721975E+02  0.528E-02    2.61       0.0  T
   2    -72.1974778 -0.196074E-05  0.309E-02    2.61       1.0  T
   3    -72.1974766  0.118947E-05  0.728E-03    2.61       2.1  T
   4    -72.1974784 -0.171755E-05  0.178E-03    2.61       8.7  T
   5    -72.1974784 -0.498405E-07  0.917E-04    2.61      16.8  T
   6    -72.1974784 -0.986755E-08  0.386E-04    2.61      39.9  T
     SCC iter.                  ...        0 min,  0.013 sec
     gradient                   ...        0 min,  0.033 sec
 * total energy  :   -71.3023972 Eh     change       -0.2415157E-03 Eh
   gradient norm :     0.0046632 Eh/α   predicted    -0.1848204E-03 ( -23.47%)
   displ. norm   :     0.2261505 α      lambda       -0.2363694E-03
   maximum displ.:     0.1239875 α      in ANC's #5, #4, #3, ...

........................................................................
.............................. CYCLE    7 ..............................
........................................................................

 iter      E             dE          RMSdq      gap      omega  full diag
   1    -72.1973954 -0.721974E+02  0.515E-02    2.61       0.0  T
   2    -72.1973986 -0.315124E-05  0.303E-02    2.60       1.0  T
   3    -72.1973962  0.236783E-05  0.110E-02    2.61       1.4  T
   4    -72.1973995 -0.325922E-05  0.204E-03    2.60       7.6  T
   5    -72.1973996 -0.966942E-07  0.936E-04    2.60      16.5  T
   6    -72.1973996 -0.391042E-08  0.470E-04    2.60      32.8  T
     SCC iter.                  ...        0 min,  0.013 sec
     gradient                   ...        0 min,  0.026 sec
 * total energy  :   -71.3025661 Eh     change       -0.1689244E-03 Eh
   gradient norm :     0.0036000 Eh/α   predicted    -0.1242295E-03 ( -26.46%)
   displ. norm   :     0.1941561 α      lambda       -0.1612280E-03
   maximum displ.:     0.1102529 α      in ANC's #4, #5, #3, ...

........................................................................
.............................. CYCLE    8 ..............................
........................................................................

 iter      E             dE          RMSdq      gap      omega  full diag
   1    -72.1974479 -0.721974E+02  0.430E-02    2.60       0.0  T
   2    -72.1974505 -0.260856E-05  0.255E-02    2.60       1.0  T
   3    -72.1974479  0.265321E-05  0.115E-02    2.60       1.3  T
   4    -72.1974515 -0.362898E-05  0.205E-03    2.60       7.5  T
   5    -72.1974516 -0.107572E-06  0.900E-04    2.60      17.2  T
   6    -72.1974516 -0.626002E-08  0.493E-04    2.60      31.3  T
     SCC iter.                  ...        0 min,  0.013 sec
     gradient                   ...        0 min,  0.033 sec
 * total energy  :   -71.3026838 Eh     change       -0.1176657E-03 Eh
   gradient norm :     0.0035998 Eh/α   predicted    -0.8365372E-04 ( -28.91%)
   displ. norm   :     0.1927076 α      lambda       -0.1195184E-03
   maximum displ.:     0.1130370 α      in ANC's #4, #5, #3, ...

........................................................................
.............................. CYCLE    9 ..............................
........................................................................

 iter      E             dE          RMSdq      gap      omega  full diag
   1    -72.1973244 -0.721973E+02  0.430E-02    2.60       0.0  T
   2    -72.1973269 -0.247978E-05  0.254E-02    2.59       1.0  T
   3    -72.1973237  0.315290E-05  0.116E-02    2.60       1.3  T
   4    -72.1973277 -0.403732E-05  0.217E-03    2.59       7.1  T
   5    -72.1973279 -0.121750E-06  0.894E-04    2.59      17.3  T
   6    -72.1973279 -0.400074E-08  0.514E-04    2.59      30.0  T
     SCC iter.                  ...        0 min,  0.013 sec
     gradient                   ...        0 min,  0.026 sec
 * total energy  :   -71.3027699 Eh     change       -0.8608095E-04 Eh
   gradient norm :     0.0032923 Eh/α   predicted    -0.6198121E-04 ( -28.00%)
   displ. norm   :     0.1670172 α      lambda       -0.8354249E-04
   maximum displ.:     0.1000384 α      in ANC's #4, #5, #3, ...

........................................................................
.............................. CYCLE   10 ..............................
........................................................................

 iter      E             dE          RMSdq      gap      omega  full diag
   1    -72.1974571 -0.721975E+02  0.362E-02    2.59       0.0  T
   2    -72.1974588 -0.166688E-05  0.212E-02    2.59       1.0  T
   3    -72.1974565  0.223574E-05  0.947E-03    2.59       1.6  T
   4    -72.1974594 -0.282179E-05  0.188E-03    2.59       8.2  T
   5    -72.1974594 -0.838452E-07  0.763E-04    2.59      20.2  T
   6    -72.1974594  0.256392E-09  0.383E-04    2.59      40.3  T
     SCC iter.                  ...        0 min,  0.013 sec
     gradient                   ...        0 min,  0.026 sec
 * total energy  :   -71.3028309 Eh     change       -0.6105025E-04 Eh
   gradient norm :     0.0029853 Eh/α   predicted    -0.4293943E-04 ( -29.67%)
   displ. norm   :     0.1500336 α      lambda       -0.6543451E-04
   maximum displ.:     0.0903319 α      in ANC's #4, #6, #3, ...

........................................................................
.............................. CYCLE   11 ..............................
........................................................................

 iter      E             dE          RMSdq      gap      omega  full diag
   1    -72.1977208 -0.721977E+02  0.339E-02    2.58       0.0  T
   2    -72.1977227 -0.196661E-05  0.196E-02    2.59       1.0  T
   3    -72.1977215  0.120234E-05  0.770E-03    2.59       2.0  T
   4    -72.1977230 -0.148704E-05  0.226E-03    2.59       6.8  T
   5    -72.1977232 -0.164610E-06  0.721E-04    2.59      21.4  T
   6    -72.1977232 -0.203627E-09  0.319E-04    2.59      48.4  T
     SCC iter.                  ...        0 min,  0.013 sec
     gradient                   ...        0 min,  0.026 sec
 * total energy  :   -71.3028777 Eh     change       -0.4674119E-04 Eh
   gradient norm :     0.0025810 Eh/α   predicted    -0.3345835E-04 ( -28.42%)
   displ. norm   :     0.1245117 α      lambda       -0.4548133E-04
   maximum displ.:     0.0737210 α      in ANC's #4, #6, #8, ...

........................................................................
.............................. CYCLE   12 ..............................
........................................................................

 iter      E             dE          RMSdq      gap      omega  full diag
   1    -72.1979889 -0.721980E+02  0.288E-02    2.58       0.0  T
   2    -72.1979899 -0.922591E-06  0.167E-02    2.58       1.0  T
   3    -72.1979892  0.644898E-06  0.532E-03    2.58       2.9  T
   4    -72.1979900 -0.819969E-06  0.156E-03    2.58       9.9  T
   5    -72.1979901 -0.693433E-07  0.603E-04    2.58      25.6  T
   6    -72.1979901 -0.367905E-09  0.276E-04    2.58      55.9  T
     SCC iter.                  ...        0 min,  0.013 sec
     gradient                   ...        0 min,  0.026 sec
 * total energy  :   -71.3029109 Eh     change       -0.3316799E-04 Eh
   gradient norm :     0.0022861 Eh/α   predicted    -0.2309410E-04 ( -30.37%)
   displ. norm   :     0.1224875 α      lambda       -0.3838863E-04
   maximum displ.:     0.0697176 α      in ANC's #4, #6, #8, ...

........................................................................
.............................. CYCLE   13 ..............................
........................................................................

 iter      E             dE          RMSdq      gap      omega  full diag
   1    -72.1980736 -0.721981E+02  0.297E-02    2.58       0.0  T
   2    -72.1980742 -0.641337E-06  0.172E-02    2.58       1.0  T
   3    -72.1980738  0.376702E-06  0.418E-03    2.58       3.7  T
   4    -72.1980743 -0.523131E-06  0.134E-03    2.58      11.6  T
   5    -72.1980744 -0.428832E-07  0.581E-04    2.58      26.5  T
   6    -72.1980744 -0.630948E-09  0.255E-04    2.58      60.6  T
     SCC iter.                  ...        0 min,  0.013 sec
     gradient                   ...        0 min,  0.025 sec
 * total energy  :   -71.3029391 Eh     change       -0.2829524E-04 Eh
   gradient norm :     0.0022051 Eh/α   predicted    -0.1948321E-04 ( -31.14%)
   displ. norm   :     0.1272837 α      lambda       -0.3486936E-04
   maximum displ.:     0.0695121 α      in ANC's #4, #8, #6, ...

........................................................................
.............................. CYCLE   14 ..............................
........................................................................

 iter      E             dE          RMSdq      gap      omega  full diag
   1    -72.1980575 -0.721981E+02  0.308E-02    2.58       0.0  T
   2    -72.1980579 -0.351353E-06  0.179E-02    2.58       1.0  T
   3    -72.1980577  0.208447E-06  0.334E-03    2.58       4.6  T
   4    -72.1980580 -0.368020E-06  0.106E-03    2.58      14.6  T
   5    -72.1980581 -0.104508E-07  0.557E-04    2.58      27.7  T
   6    -72.1980581 -0.224242E-08  0.188E-04    2.58      81.9  T
     SCC iter.                  ...        0 min,  0.013 sec
     gradient                   ...        0 min,  0.026 sec
 * total energy  :   -71.3029645 Eh     change       -0.2537464E-04 Eh
   gradient norm :     0.0019434 Eh/α   predicted    -0.1772187E-04 ( -30.16%)
   displ. norm   :     0.1780801 α      lambda       -0.2794369E-04
   maximum displ.:     0.0927464 α      in ANC's #4, #8, #6, ...

........................................................................
.............................. CYCLE   15 ..............................
........................................................................

 iter      E             dE          RMSdq      gap      omega  full diag
   1    -72.1976154 -0.721976E+02  0.450E-02    2.58       0.0  T
   2    -72.1976163 -0.852061E-06  0.262E-02    2.58       1.0  T
   3    -72.1976159  0.436489E-06  0.476E-03    2.58       3.2  T
   4    -72.1976166 -0.769596E-06  0.165E-03    2.58       9.3  T
   5    -72.1976167 -0.383445E-07  0.829E-04    2.58      18.6  T
   6    -72.1976167 -0.236311E-08  0.287E-04    2.58      53.8  T
     SCC iter.                  ...        0 min,  0.013 sec
     gradient                   ...        0 min,  0.026 sec
 * total energy  :   -71.3029880 Eh     change       -0.2344960E-04 Eh
   gradient norm :     0.0021071 Eh/α   predicted    -0.1417136E-04 ( -39.57%)
   displ. norm   :     0.0366576 α      lambda       -0.1559316E-04
   maximum displ.:     0.0226489 α      in ANC's #5, #1, #12, ...

........................................................................
.............................. CYCLE   16 ..............................
........................................................................

 iter      E             dE          RMSdq      gap      omega  full diag
   1    -72.1983146 -0.721983E+02  0.102E-02    2.58       0.0  T
   2    -72.1983150 -0.435115E-06  0.624E-03    2.58       2.5  T
   3    -72.1983149  0.535277E-07  0.313E-03    2.58       4.9  T
   4    -72.1983151 -0.160167E-06  0.877E-04    2.58      17.6  T
   5    -72.1983151 -0.243561E-07  0.248E-04    2.58      62.1  T
     SCC iter.                  ...        0 min,  0.011 sec
     gradient                   ...        0 min,  0.026 sec
 * total energy  :   -71.3029960 Eh     change       -0.8028762E-05 Eh
   gradient norm :     0.0019041 Eh/α   predicted    -0.7808058E-05 (  -2.75%)
   displ. norm   :     0.0974268 α      lambda       -0.1869294E-04
   maximum displ.:     0.0528881 α      in ANC's #12, #4, #1, ...

........................................................................
.............................. CYCLE   17 ..............................
........................................................................

 iter      E             dE          RMSdq      gap      omega  full diag
   1    -72.1977259 -0.721977E+02  0.308E-02    2.58       0.0  T
   2    -72.1977270 -0.113394E-05  0.183E-02    2.58       1.0  T
   3    -72.1977256  0.143687E-05  0.707E-03    2.58       2.2  T
   4    -72.1977274 -0.185711E-05  0.160E-03    2.58       9.6  T
   5    -72.1977275 -0.537606E-07  0.723E-04    2.58      21.3  T
   6    -72.1977275 -0.291801E-08  0.321E-04    2.58      48.1  T
     SCC iter.                  ...        0 min,  0.013 sec
     gradient                   ...        0 min,  0.026 sec
 * total energy  :   -71.3030082 Eh     change       -0.1217912E-04 Eh
   gradient norm :     0.0017870 Eh/α   predicted    -0.9386116E-05 ( -22.93%)
   displ. norm   :     0.0267762 α      lambda       -0.6941885E-05
   maximum displ.:     0.0167263 α      in ANC's #1, #5, #2, ...

........................................................................
.............................. CYCLE   18 ..............................
........................................................................

 iter      E             dE          RMSdq      gap      omega  full diag
   1    -72.1977487 -0.721977E+02  0.945E-03    2.58       0.0  T
   2    -72.1977495 -0.804620E-06  0.542E-03    2.58       2.8  T
   3    -72.1977495 -0.262972E-07  0.269E-03    2.58       5.7  T
   4    -72.1977495 -0.811166E-08  0.741E-04    2.58      20.8  T
   5    -72.1977495 -0.139495E-07  0.220E-04    2.58      70.2  T
     SCC iter.                  ...        0 min,  0.011 sec
     gradient                   ...        0 min,  0.026 sec
 * total energy  :   -71.3030142 Eh     change       -0.6059516E-05 Eh
   gradient norm :     0.0016018 Eh/α   predicted    -0.3473309E-05 ( -42.68%)
   displ. norm   :     0.0467105 α      lambda       -0.7693090E-05
   maximum displ.:     0.0255405 α      in ANC's #1, #13, #15, ...

........................................................................
.............................. CYCLE   19 ..............................
........................................................................

 iter      E             dE          RMSdq      gap      omega  full diag
   1    -72.1977705 -0.721978E+02  0.152E-02    2.58       0.0  T
   2    -72.1977707 -0.182828E-06  0.888E-03    2.58       1.7  T
   3    -72.1977704  0.259265E-06  0.300E-03    2.58       5.1  T
   4    -72.1977707 -0.325058E-06  0.650E-04    2.58      23.7  T
   5    -72.1977708 -0.889931E-08  0.307E-04    2.58      50.3  T
     SCC iter.                  ...        0 min,  0.011 sec
     gradient                   ...        0 min,  0.026 sec
 * total energy  :   -71.3030209 Eh     change       -0.6658050E-05 Eh
   gradient norm :     0.0007899 Eh/α   predicted    -0.3852428E-05 ( -42.14%)
   displ. norm   :     0.0565568 α      lambda       -0.4107713E-05
   maximum displ.:     0.0312349 α      in ANC's #1, #13, #12, ...

........................................................................
.............................. CYCLE   20 ..............................
........................................................................

 iter      E             dE          RMSdq      gap      omega  full diag
   1    -72.1978327 -0.721978E+02  0.182E-02    2.58       0.0  T
   2    -72.1978329 -0.215374E-06  0.107E-02    2.58       1.4  T
   3    -72.1978325  0.406678E-06  0.361E-03    2.58       4.3  T
   4    -72.1978331 -0.515339E-06  0.717E-04    2.58      21.5  T
   5    -72.1978331 -0.692395E-08  0.384E-04    2.58      40.2  T
     SCC iter.                  ...        0 min,  0.011 sec
     gradient                   ...        0 min,  0.026 sec
 * total energy  :   -71.3030255 Eh     change       -0.4636174E-05 Eh
   gradient norm :     0.0009720 Eh/α   predicted    -0.2061183E-05 ( -55.54%)
   displ. norm   :     0.0663689 α      lambda       -0.4146254E-05
   maximum displ.:     0.0406497 α      in ANC's #1, #12, #13, ...

   *** GEOMETRY OPTIMIZATION CONVERGED AFTER 20 ITERATIONS ***

------------------------------------------------------------------------
 total energy gain   :        -0.0164923 Eh      -10.3491 kcal/mol
 total RMSD          :         0.3582433 a0        0.1896 Å
 total power (kW/mol):        -2.1650287 (step)  -43.8180 (real)
------------------------------------------------------------------------

 ANCopt (total)                0 d,  0 h,  0 min,  0.988 sec
 optimizer setup                ...        0 min,  0.000 sec (  0.008%)
 model hessian                  ...        0 min,  0.013 sec (  1.342%)
 ANC generation                 ...        0 min,  0.002 sec (  0.153%)
 coordinate transformation      ...        0 min,  0.000 sec (  0.017%)
 single point calculation       ...        0 min,  0.966 sec ( 97.780%)
 optimization log               ...        0 min,  0.004 sec (  0.366%)
 hessian update                 ...        0 min,  0.000 sec (  0.029%)
 rational function              ...        0 min,  0.002 sec (  0.155%)

================
 final structure:
================
42
 xtb: 6.7.1 (edcfbbe)
O           -6.15199726604988        0.70736892363740       -0.04700843500204
C           -5.28821241070095        1.56001279977329       -0.04896405835210
O           -5.57420431620320        2.85736550437180       -0.10588291272114
C           -3.84817421375199        1.25141956462311        0.00027935487232
C           -3.51106456699647       -0.05961989416294       -0.15127057582656
N           -2.25597093499665       -0.53905810726124       -0.12757113492268
C           -1.19186981071141        0.34133932641975        0.00576920115151
C            0.12305356442488       -0.11348180564096       -0.04893619682503
C            1.21916564490699        0.74278389820115        0.09846249292698
N            2.49539996774707        0.26685566728407        0.07467732422597
C            3.63539052948805        1.09163371817827       -0.27958647208174
C            4.66776159464859        0.22958392436120       -1.01185554578966
N            5.16246490461432       -0.87409436966586       -0.20307001917237
C            4.19091407027503       -1.31569723139651        0.78764694047562
C            2.77429081469615       -1.14271995210256        0.24930451454859
C            0.91362898825633        2.10751067650952        0.30476813139889
F            1.91187646830243        3.00402871581140        0.52165726631662
C           -0.37071772265128        2.57328466172581        0.33326748447584
C           -1.45757612524499        1.70770627187081        0.18302550813970
C           -2.81924723096817        2.26736262649287        0.22256875512231
O           -3.02599663429764        3.45022066032624        0.42749636143892
C           -2.03290501030885       -1.94653609656036       -0.27990981658798
C           -2.90334453204706       -2.91195020957397        0.46626781393974
C           -1.47508100821586       -2.73110636689224        0.87451722102829
H           -6.53542703706239        2.98524385869414       -0.11412513952385
H           -4.30199837603050       -0.78072147329962       -0.30888999928652
H            0.30475033102170       -1.15709189246290       -0.23196883583022
H            3.31741114803204        1.89895135412257       -0.94037637151820
H            4.08860453120353        1.53964776774042        0.61502167883262
H            4.19923180380105       -0.19061279038758       -1.91014672195444
H            5.50290951460723        0.85199140847496       -1.33486188150799
H            6.03084034635060       -0.62965717564757        0.25783258495482
H            4.26686202444325       -0.76319542388970        1.73763994398457
H            4.37602756598011       -2.37367904178465        0.99912892505897
H            2.06834742962286       -1.55700448231934        0.97397504880011
H            2.67751170227549       -1.69727173648538       -0.69424077361520
H           -0.56842711294166        3.62185945952332        0.49377540197027
H           -1.71306687132655       -2.22351601624183       -1.28060331957769
H           -3.19116559229643       -3.82277607227473       -0.03520418004867
H           -3.66432139608304       -2.51336451086698        1.11853527841669
H           -1.28026313376737       -2.19547528267214        1.79092935613599
H           -0.76561164204501       -3.51724085655413        0.66572580192873

 Bond Distances (Angstroems)
 ---------------------------
O1-C2=1.2137         C2-O1=1.2137         C2-O3=1.3297         C2-C4=1.4736         O3-C2=1.3297         O3-H25=0.9697        
C4-C2=1.4736         C4-C5=1.3621         C4-C20=1.4630        C5-C4=1.3621         C5-N6=1.3438         C5-H26=1.0819        
N6-C5=1.3438         N6-C7=1.3875         N6-C22=1.4332        C7-N6=1.3875         C7-C8=1.3924         C7-C19=1.4032        
C8-C7=1.3924         C8-C9=1.3987         C8-H27=1.0750        C9-C8=1.3987         C9-N10=1.3623        C9-C16=1.4136        
N10-C9=1.3623        N10-C11=1.4510       N10-C15=1.4475       C11-N10=1.4510       C11-C12=1.5314       C11-H28=1.0906       
C11-H29=1.0984       C12-C11=1.5314       C12-N13=1.4550       C12-H30=1.0968       C12-H31=1.0905       N13-C12=1.4550       
N13-C14=1.4562       N13-H32=1.0130       C14-N13=1.4562       C14-C15=1.5253       C14-H33=1.1016       C14-H34=1.0947       
C15-N10=1.4475       C15-C14=1.5253       C15-H35=1.0932       C15-H36=1.0987       C16-C9=1.4136        C16-F17=1.3591       
C16-C18=1.3665       F17-C16=1.3591       C18-C16=1.3665       C18-C19=1.3975       C18-H37=1.0791       C19-C7=1.4032        
C19-C18=1.3975       C19-C20=1.4727       C20-C4=1.4630        C20-C19=1.4727       C20-O21=1.2182       O21-C20=1.2182       
C22-N6=1.4332        C22-C23=1.4988       C22-C24=1.5031       C22-H38=1.0865       C23-C22=1.4988       C23-C24=1.4964       
C23-H39=1.0789       C23-H40=1.0786       C24-C22=1.5031       C24-C23=1.4964       C24-H41=1.0792       C24-H42=1.0793       
H25-O3=0.9697        H26-C5=1.0819        H27-C8=1.0750        H28-C11=1.0906       H29-C11=1.0984       H30-C12=1.0968       
H31-C12=1.0905       H32-N13=1.0130       H33-C14=1.1016       H34-C14=1.0947       H35-C15=1.0932       H36-C15=1.0987       
H37-C18=1.0791       H38-C22=1.0865       H39-C23=1.0789       H40-C23=1.0786       H41-C24=1.0792       H42-C24=1.0793       
 C  H  Rav=1.0877 sigma=0.0086  Rmin=1.0750  Rmax=1.1016    16
 C  C  Rav=1.4466 sigma=0.0563  Rmin=1.3621  Rmax=1.5314    15
 N  H  Rav=1.0130 sigma=0.0000  Rmin=1.0130  Rmax=1.0130     1
 N  C  Rav=1.4170 sigma=0.0426  Rmin=1.3438  Rmax=1.4562     8
 O  H  Rav=0.9697 sigma=0.0000  Rmin=0.9697  Rmax=0.9697     1
 O  C  Rav=1.2539 sigma=0.0537  Rmin=1.2137  Rmax=1.3297     3
 F  C  Rav=1.3591 sigma=0.0000  Rmin=1.3591  Rmax=1.3591     1

 selected bond angles (degree)
 --------------------
O3-C2-O1=122.17                C4-C2-O1=123.25                C4-C2-O3=114.58                H25-O3-C2=110.01               
C5-C4-C2=116.08                C20-C4-C2=123.16               C20-C4-C5=120.75               N6-C5-C4=124.93                
H26-C5-C4=118.48               H26-C5-N6=116.59               C7-N6-C5=119.45                C22-N6-C5=119.60               
C22-N6-C7=120.93               C8-C7-N6=120.88                C19-C7-N6=119.00               C19-C7-C8=120.12               
C9-C8-C7=122.41                H27-C8-C7=118.91               H27-C8-C9=118.67               N10-C9-C8=121.23               
C16-C9-C8=115.91               C16-C9-N10=122.84              C11-N10-C9=122.80              C15-N10-C9=121.24              
C15-N10-C11=115.57             

 selected dihedral angles (degree)
 ---------------------------------
H25-O3-C2-O1=  1.81           H25-O3-C2-C4=181.36           C5-C4-C2-O1=  9.43            C5-C4-C2-O3=189.89            
C20-C4-C2-O1=190.56           C20-C4-C2-O3= 11.02           N6-C5-C4-C2=180.44            N6-C5-C4-C20=359.34           
H26-C5-C4-C2=  0.79           H26-C5-C4-C20=179.70          C7-N6-C5-C4=357.25            C7-N6-C5-H26=176.90           
C22-N6-C5-C4=179.09           C22-N6-C5-H26=358.74          C8-C7-N6-C5=184.00            C8-C7-N6-C22=  2.13           
C19-C7-N6-C5=  3.30           C19-C7-N6-C22=181.43          C9-C8-C7-N6=180.83            C9-C8-C7-C19=  1.53           
H27-C8-C7-N6=  2.17           H27-C8-C7-C19=182.87          N10-C9-C8-C7=178.31           N10-C9-C8-H27=356.98          
C16-C9-C8-C7=359.86           C16-C9-C8-H27=178.53          C11-N10-C9-C8=156.09          C11-N10-C9-C16=334.43         
C15-N10-C9-C8=343.58          C15-N10-C9-C16=161.92         
           -------------------------------------------------
          |                Final Singlepoint                |
           -------------------------------------------------

          ...................................................
          :                      SETUP                      :
          :.................................................:
          :  # basis functions                 114          :
          :  # atomic orbitals                 114          :
          :  # shells                           66          :
          :  # electrons                       126          :
          :  max. iterations                   250          :
          :  Hamiltonian                  GFN2-xTB          :
          :  restarted?                      false          :
          :  GBSA solvation                  false          :
          :  PC potential                    false          :
          :  electronic temp.          300.0000000     K    :
          :  accuracy                    1.0000000          :
          :  -> integral cutoff          0.2500000E+02      :
          :  -> integral neglect         0.1000000E-07      :
          :  -> SCF convergence          0.1000000E-05 Eh   :
          :  -> wf. convergence          0.1000000E-03 e    :
          :  Broyden damping             0.4000000          :
          :  net charge                          0          :
          :  unpaired electrons                  0          :
          ...................................................

 iter      E             dE          RMSdq      gap      omega  full diag
   1    -72.1978331 -0.721978E+02  0.169E-04    2.58       0.0  T
   2    -72.1978331 -0.211827E-09  0.109E-04    2.58     142.0  T
   3    -72.1978331 -0.100584E-09  0.712E-05    2.58     216.7  T

   *** convergence criteria satisfied after 3 iterations ***

         #    Occupation            Energy/Eh            Energy/eV
      -------------------------------------------------------------
         1        2.0000           -0.8143680             -22.1601
       ...           ...                  ...                  ...
        57        2.0000           -0.4370788             -11.8935
        58        2.0000           -0.4215500             -11.4710
        59        2.0000           -0.4098266             -11.1519
        60        2.0000           -0.3839724             -10.4484
        61        2.0000           -0.3732024             -10.1554
        62        2.0000           -0.3693229             -10.0498
        63        2.0000           -0.3646135              -9.9216 (HOMO)
        64                         -0.2699058              -7.3445 (LUMO)
        65                         -0.2559678              -6.9652
        66                         -0.2215686              -6.0292
        67                         -0.1987402              -5.4080
        68                         -0.1331463              -3.6231
       ...                                ...                  ...
       114                          0.7170646              19.5123
      -------------------------------------------------------------
                  HL-Gap            0.0947077 Eh            2.5771 eV
             Fermi-level           -0.3172596 Eh           -8.6331 eV

 SCC (total)                   0 d,  0 h,  0 min,  0.041 sec
 SCC setup                      ...        0 min,  0.000 sec (  0.765%)
 Dispersion                     ...        0 min,  0.000 sec (  0.730%)
 classical contributions        ...        0 min,  0.000 sec (  0.343%)
 integral evaluation            ...        0 min,  0.008 sec ( 18.802%)
 iterations                     ...        0 min,  0.007 sec ( 15.975%)
 molecular gradient             ...        0 min,  0.026 sec ( 62.960%)
 printout                       ...        0 min,  0.000 sec (  0.408%)

         :::::::::::::::::::::::::::::::::::::::::::::::::::::
         ::                     SUMMARY                     ::
         :::::::::::::::::::::::::::::::::::::::::::::::::::::
         :: total energy             -71.303025532176 Eh    ::
         :: gradient norm              0.000972215937 Eh/a0 ::
         :: HOMO-LUMO gap              2.577126383985 eV    ::
         ::.................................................::
         :: SCC energy               -72.197774544520 Eh    ::
         :: -> isotropic ES            0.109303193753 Eh    ::
         :: -> anisotropic ES          0.007861718085 Eh    ::
         :: -> anisotropic XC          0.018644334008 Eh    ::
         :: -> dispersion             -0.046166973708 Eh    ::
         :: repulsion energy           0.894749012344 Eh    ::
         :: add. restraining           0.000000000000 Eh    ::
         :: total charge               0.000000000000 e     ::
         :::::::::::::::::::::::::::::::::::::::::::::::::::::

           -------------------------------------------------
          |                Property Printout                |
           -------------------------------------------------

    * Orbital Energies and Occupations

         #    Occupation            Energy/Eh            Energy/eV
      -------------------------------------------------------------
         1        2.0000           -0.8143680             -22.1601
       ...           ...                  ...                  ...
        51        2.0000           -0.4645810             -12.6419
        52        2.0000           -0.4615024             -12.5581
        53        2.0000           -0.4569157             -12.4333
        54        2.0000           -0.4556403             -12.3986
        55        2.0000           -0.4543176             -12.3626
        56        2.0000           -0.4424784             -12.0404
        57        2.0000           -0.4370788             -11.8935
        58        2.0000           -0.4215500             -11.4710
        59        2.0000           -0.4098266             -11.1519
        60        2.0000           -0.3839724             -10.4484
        61        2.0000           -0.3732024             -10.1554
        62        2.0000           -0.3693229             -10.0498
        63        2.0000           -0.3646135              -9.9216 (HOMO)
        64                         -0.2699058              -7.3445 (LUMO)
        65                         -0.2559678              -6.9652
        66                         -0.2215686              -6.0292
        67                         -0.1987402              -5.4080
        68                         -0.1331463              -3.6231
        69                         -0.0948087              -2.5799
        70                         -0.0732245              -1.9925
        71                         -0.0329853              -0.8976
        72                         -0.0224999              -0.6123
        73                          0.0244808               0.6662
        74                          0.0366760               0.9980
       ...                                ...                  ...
       114                          0.7170646              19.5123
      -------------------------------------------------------------
                  HL-Gap            0.0947077 Eh            2.5771 eV
             Fermi-level           -0.3172596 Eh           -8.6331 eV

     #   Z          covCN         q      C6AA      α(0)
     1   8 O        0.857    -0.455    22.804     6.402
     2   6 C        2.704     0.359    20.901     7.483
     3   8 O        1.660    -0.349    19.891     6.021
     4   6 C        2.956    -0.079    29.977     8.980
     5   6 C        2.883     0.029    27.343     8.573
     6   7 N        2.746    -0.006    21.385     6.868
     7   6 C        2.933     0.051    26.855     8.499
     8   6 C        2.930    -0.096    30.407     9.043
     9   6 C        2.904     0.052    26.822     8.492
    10   7 N        2.742    -0.080    22.804     7.092
    11   6 C        3.746    -0.002    20.682     6.487
    12   6 C        3.747     0.006    20.546     6.465
    13   7 N        2.679    -0.258    26.687     7.672
    14   6 C        3.746     0.014    20.413     6.445
    15   6 C        3.750    -0.001    20.664     6.483
    16   6 C        2.783     0.136    25.011     8.191
    17   9 F        0.786    -0.237    11.620     4.027
    18   6 C        2.922    -0.041    29.019     8.834
    19   6 C        2.982    -0.044    29.078     8.845
    20   6 C        2.830     0.222    23.321     7.913
    21   8 O        0.857    -0.399    21.659     6.240
    22   6 C        3.811     0.028    20.093     6.380
    23   6 C        3.806    -0.070    21.836     6.652
    24   6 C        3.806    -0.068    21.804     6.647
    25   1 H        0.805     0.327     0.646     1.263
    26   1 H        0.925     0.082     1.959     2.189
    27   1 H        0.926     0.045     2.378     2.412
    28   1 H        0.924     0.057     2.231     2.336
    29   1 H        0.923     0.046     2.368     2.407
    30   1 H        0.924     0.043     2.410     2.428
    31   1 H        0.924     0.040     2.450     2.448
    32   1 H        0.860     0.138     1.482     1.907
    33   1 H        0.923     0.021     2.713     2.576
    34   1 H        0.924     0.043     2.414     2.430
    35   1 H        0.924     0.046     2.367     2.406
    36   1 H        0.923     0.045     2.386     2.416
    37   1 H        0.926     0.091     1.867     2.137
    38   1 H        0.925     0.048     2.351     2.398
    39   1 H        0.926     0.054     2.271     2.357
    40   1 H        0.926     0.060     2.197     2.318
    41   1 H        0.926     0.053     2.285     2.364
    42   1 H        0.926     0.047     2.356     2.400

 Mol. C6AA /au·bohr⁶  :      20032.700043
 Mol. C8AA /au·bohr⁸  :     469230.684127
 Mol. α(0) /au        :        215.925851


Wiberg/Mayer (AO) data.
largest (>0.10) Wiberg bond orders for each atom

 ---------------------------------------------------------------------------
     #   Z sym  total        # sym  WBO       # sym  WBO       # sym  WBO
 ---------------------------------------------------------------------------
     1   8 O    1.983 --     2 C    1.683     3 O    0.168
     2   6 C    3.919 --     1 O    1.683     3 O    1.150     4 C    1.030
     3   8 O    2.226 --     2 C    1.150    25 H    0.868     1 O    0.168
     4   6 C    3.970 --     5 C    1.546    20 C    1.078     2 C    1.030
     5   6 C    3.961 --     4 C    1.546     6 N    1.263    26 H    0.951
     6   7 N    3.619 --     5 C    1.263     7 C    1.100    22 C    0.982
     7   6 C    3.962 --     8 C    1.370    19 C    1.299     6 N    1.100
     8   6 C    3.967 --     7 C    1.370     9 C    1.346    27 H    0.960
     9   6 C    3.976 --     8 C    1.346    16 C    1.244    10 N    1.201
    10   7 N    3.426 --     9 C    1.201    15 C    0.993    11 C    0.987
    11   6 C    3.974 --    12 C    0.992    10 N    0.987    28 H    0.971
                            29 H    0.965
    12   6 C    3.986 --    13 N    1.014    11 C    0.992    31 H    0.976
                            30 H    0.970
    13   7 N    3.061 --    12 C    1.014    14 C    1.011    32 H    0.960
    14   6 C    3.988 --    13 N    1.011    15 C    1.003    34 H    0.971
                            33 H    0.970
    15   6 C    3.980 --    14 C    1.003    10 N    0.993    35 H    0.968
                            36 H    0.963
    16   6 C    3.874 --    18 C    1.485     9 C    1.244    17 F    0.942
    17   9 F    1.066 --    16 C    0.942
    18   6 C    3.983 --    16 C    1.485    19 C    1.335    37 H    0.957
    19   6 C    3.977 --    18 C    1.335     7 C    1.299    20 C    1.057
    20   6 C    3.954 --    21 O    1.713     4 C    1.078    19 C    1.057
    21   8 O    2.021 --    20 C    1.713
    22   6 C    3.920 --     6 N    0.982    23 C    0.974    24 C    0.963
                            38 H    0.959
    23   6 C    3.943 --    24 C    0.985    39 H    0.979    40 H    0.976
                            22 C    0.974
    24   6 C    3.940 --    23 C    0.985    42 H    0.979    41 H    0.979
                            22 C    0.963
    25   1 H    0.893 --     3 O    0.868
    26   1 H    0.993 --     5 C    0.951
    27   1 H    0.997 --     8 C    0.960
    28   1 H    0.996 --    11 C    0.971
    29   1 H    0.995 --    11 C    0.965
    30   1 H    0.998 --    12 C    0.970
    31   1 H    0.998 --    12 C    0.976
    32   1 H    0.981 --    13 N    0.960
    33   1 H    0.999 --    14 C    0.970
    34   1 H    0.998 --    14 C    0.971
    35   1 H    0.998 --    15 C    0.968
    36   1 H    0.995 --    15 C    0.963
    37   1 H    0.990 --    18 C    0.957
    38   1 H    0.995 --    22 C    0.959
    39   1 H    0.997 --    23 C    0.979
    40   1 H    0.996 --    23 C    0.976
    41   1 H    0.997 --    24 C    0.979
    42   1 H    0.997 --    24 C    0.979
 ---------------------------------------------------------------------------

Topologies differ in total number of bonds
Writing topology from bond orders to xtbtopo.mol

molecular dipole:
                 x           y           z       tot (Debye)
 q only:        2.223      -2.731      -0.293
   full:        2.125      -2.696      -0.194       8.740
molecular quadrupole (traceless):
                xx          xy          yy          xz          yz          zz
 q only:       -4.867       9.854      -3.806       1.909      -5.454       8.673
  q+dip:       -2.337      12.336      -7.354       5.772      -4.060       9.690
   full:       -3.510      12.700      -9.100       5.581      -5.827      12.611

           -------------------------------------------------
          |                Geometry Summary                 |
           -------------------------------------------------

      molecular mass/u    :      331.3421713
   center of mass at/Å    :       -0.5965986       0.5567815       0.0996492
  moments of inertia/u·Å² :        0.1079404E+04   0.3837143E+04   0.4790653E+04
rotational constants/cm⁻¹ :        0.1561753E-01   0.4393277E-02   0.3518859E-02

 * 41 selected distances

     #   Z          #   Z                                           value/Å
     1   8 O        2   6 C                                       1.2137257
     2   6 C        3   8 O                                       1.3297201
     4   6 C        5   6 C                                       1.3621436
     5   6 C        6   7 N                                       1.3437571
     6   7 N        7   6 C                                       1.3875125
     7   6 C        8   6 C                                       1.3924363
     8   6 C        9   6 C                                       1.3987063
     9   6 C       10   7 N                                       1.3622951
    10   7 N       11   6 C                                       1.4509792
    11   6 C       12   6 C                                       1.5313844 (max)
    12   6 C       13   7 N                                       1.4549816
    13   7 N       14   6 C                                       1.4561746
    10   7 N       15   6 C                                       1.4474732
    14   6 C       15   6 C                                       1.5253051
     9   6 C       16   6 C                                       1.4136457
    16   6 C       18   6 C                                       1.3664935
     7   6 C       19   6 C                                       1.4032030
    18   6 C       19   6 C                                       1.3975193
    20   6 C       21   8 O                                       1.2181519
     6   7 N       22   6 C                                       1.4331644
    22   6 C       23   6 C                                       1.4988232
    22   6 C       24   6 C                                       1.5031368
    23   6 C       24   6 C                                       1.4964322
     3   8 O       25   1 H                                       0.9697268 (min)
     5   6 C       26   1 H                                       1.0818539
     8   6 C       27   1 H                                       1.0750055
    11   6 C       28   1 H                                       1.0906494
    11   6 C       29   1 H                                       1.0983822
    12   6 C       30   1 H                                       1.0968194
    12   6 C       31   1 H                                       1.0905028
    13   7 N       32   1 H                                       1.0130434
    14   6 C       33   1 H                                       1.1015958
    14   6 C       34   1 H                                       1.0946768
    15   6 C       35   1 H                                       1.0932225
    15   6 C       36   1 H                                       1.0987137
    18   6 C       37   1 H                                       1.0790557
    22   6 C       38   1 H                                       1.0864631
    23   6 C       39   1 H                                       1.0788508
    23   6 C       40   1 H                                       1.0786146
    24   6 C       41   1 H                                       1.0791970
    24   6 C       42   1 H                                       1.0793277

 * 6 distinct bonds (by element types)

   Z      Z             #   av. dist./Å        max./Å        min./Å
   1 H    6 C          16     1.0876832     1.1015958     1.0750055
   6 C    6 C          12     1.4407691     1.5313844     1.3621436
   1 H    7 N           1     1.0130434     1.0130434     1.0130434
   6 C    7 N           8     1.4170422     1.4561746     1.3437571
   1 H    8 O           1     0.9697268     0.9697268     0.9697268
   6 C    8 O           3     1.2538659     1.3297201     1.2137257


optimized geometry written to: xtbopt.xyz


           -------------------------------------------------
          | TOTAL ENERGY              -71.303025532176 Eh   |
          | GRADIENT NORM               0.000972215937 Eh/α |
          | HOMO-LUMO GAP               2.577126383985 eV   |
           -------------------------------------------------

------------------------------------------------------------------------
 * finished run on 2025/05/15 at 16:06:25.331     
------------------------------------------------------------------------
 total:
 * wall-time:     0 d,  0 h,  0 min,  1.119 sec
 *  cpu-time:     0 d,  0 h,  0 min,  1.082 sec
 * ratio c/w:     0.967 speedup
 SCF:
 * wall-time:     0 d,  0 h,  0 min,  0.067 sec
 *  cpu-time:     0 d,  0 h,  0 min,  0.062 sec
 * ratio c/w:     0.920 speedup
 ANC optimizer:
 * wall-time:     0 d,  0 h,  0 min,  1.038 sec
 *  cpu-time:     0 d,  0 h,  0 min,  1.008 sec
 * ratio c/w:     0.971 speedup



----- Single-point -----
      -----------------------------------------------------------      
     |                   =====================                   |     
     |                           x T B                           |     
     |                   =====================                   |     
     |                         S. Grimme                         |     
     |          Mulliken Center for Theoretical Chemistry        |     
     |                    University of Bonn                     |     
      -----------------------------------------------------------      

   * xtb version 6.7.1 (edcfbbe) compiled by 'conda@3ef47c1a292c' on 2024-11-25

   xtb is free software: you can redistribute it and/or modify it under
   the terms of the GNU Lesser General Public License as published by
   the Free Software Foundation, either version 3 of the License, or
   (at your option) any later version.
   
   xtb is distributed in the hope that it will be useful,
   but WITHOUT ANY WARRANTY; without even the implied warranty of
   MERCHANTABILITY or FITNESS FOR A PARTICULAR PURPOSE.  See the
   GNU Lesser General Public License for more details.
   
   Cite this work as:
   * C. Bannwarth, E. Caldeweyher, S. Ehlert, A. Hansen, P. Pracht,
     J. Seibert, S. Spicher, S. Grimme, WIREs Comput. Mol. Sci., 2020, 11,
     e01493. DOI: 10.1002/wcms.1493
   
   for GFN2-xTB:
   * C. Bannwarth, S. Ehlert and S. Grimme., J. Chem. Theory Comput., 2019,
     15, 1652-1671. DOI: 10.1021/acs.jctc.8b01176
   for GFN1-xTB:
   * S. Grimme, C. Bannwarth, P. Shushkov, J. Chem. Theory Comput., 2017,
     13, 1989-2009. DOI: 10.1021/acs.jctc.7b00118
   for GFN0-xTB:
   * P. Pracht, E. Caldeweyher, S. Ehlert, S. Grimme, ChemRxiv, 2019, preprint.
     DOI: 10.26434/chemrxiv.8326202.v1
   for GFN-FF:
   * S. Spicher and S. Grimme, Angew. Chem. Int. Ed., 2020, 59, 15665-15673.
     DOI: 10.1002/anie.202004239
   
   for ALPB and GBSA implicit solvation:
   * S. Ehlert, M. Stahn, S. Spicher, S. Grimme, J. Chem. Theory Comput.,
     2021, 17, 4250-4261. DOI: 10.1021/acs.jctc.1c00471
   
   for ddCOSMO and CPCM-X implicit solvation:
   * M. Stahn, S. Ehlert, S. Grimme, J. Phys. Chem. A,
     2023, XX, XXXX-XXXX. DOI: 10.1021/acs.jpca.3c04382
   
   for DFT-D4:
   * E. Caldeweyher, C. Bannwarth and S. Grimme, J. Chem. Phys., 2017,
     147, 034112. DOI: 10.1063/1.4993215
   * E. Caldeweyher, S. Ehlert, A. Hansen, H. Neugebauer, S. Spicher,
     C. Bannwarth and S. Grimme, J. Chem. Phys., 2019, 150, 154122.
     DOI: 10.1063/1.5090222
   * E. Caldeweyher, J.-M. Mewes, S. Ehlert and S. Grimme, Phys. Chem. Chem. Phys.
     2020, 22, 8499-8512. DOI: 10.1039/D0CP00502A
   
   for sTDA-xTB:
   * S. Grimme and C. Bannwarth, J. Chem. Phys., 2016, 145, 054103.
     DOI: 10.1063/1.4959605
   
   in the mass-spec context:
   * V. Asgeirsson, C. Bauer and S. Grimme, Chem. Sci., 2017, 8, 4879.
     DOI: 10.1039/c7sc00601b
   * J. Koopman and S. Grimme, ACS Omega 2019, 4, 12, 15120-15133.
     DOI: 10.1021/acsomega.9b02011
   
   for metadynamics refer to:
   * S. Grimme, J. Chem. Theory Comput., 2019, 155, 2847-2862
     DOI: 10.1021/acs.jctc.9b00143
   
   for SPH calculations refer to:
   * S. Spicher and S. Grimme, J. Chem. Theory Comput., 2021, 17, 1701-1714
     DOI: 10.1021/acs.jctc.0c01306
   
   for ONIOM refer to:
   * C. Plett, A. Katbashev, S. Ehlert, S. Grimme, M. Bursch,
     Phys. Chem. Chem. Phys., 2023, 25, 17860-17868. DOI: 10.1039/D3CP02178E
   
   for DIPRO refer to:
   * J. Kohn, N. Gildemeister, S. Grimme, D. Fazzi, A. Hansen,
     J. Chem. Phys., 2023, just accepted.
   
   for PTB refer to:
   * S. Grimme, M. Mueller, A. Hansen, J. Chem. Phys., 2023, 158, 124111.
     DOI: 10.1063/5.0137838
   
   with help from (in alphabetical order)
   P. Atkinson, C. Bannwarth, F. Bohle, G. Brandenburg, E. Caldeweyher
   M. Checinski, S. Dohm, S. Ehlert, S. Ehrlich, I. Gerasimov, C. Hölzer
   A. Katbashev, J. Kohn, J. Koopman, C. Lavigne, S. Lehtola, F. März, M. Müller,
   F. Musil, H. Neugebauer, J. Pisarek, C. Plett, P. Pracht, F. Pultar,
   J. Seibert, P. Shushkov, S. Spicher, M. Stahn, M. Steiner, T. Strunk,
   J. Stückrath, T. Rose, and J. Unsleber
   
 * started run on 2025/05/15 at 16:06:25.346     
   ID    Z sym.   atoms
    1    8 O      1, 3, 21
    2    6 C      2, 4, 5, 7-9, 11, 12, 14-16, 18-20, 22-24
    3    7 N      6, 10, 13
    4    9 F      17
    5    1 H      25-42

           -------------------------------------------------
          |                Calculation Setup                |
           -------------------------------------------------

          program call               : xtb /rds/general/user/hgt20/home/callum/QDESCP/Ciprofloxacin_rdkit_conf_22/Ciprofloxacin_rdkit_conf_22.xyz --acc 1 --gfn 2 --chrg 0 --uhf 0 --etemp 300 --input /rds/general/user/hgt20/home/callum/QDESCP/Ciprofloxacin_rdkit_conf_22/Ciprofloxacin_rdkit_conf_22_xtb.inp -P 1
          hostname                   : login-c
          coordinate file            : /rds/general/user/hgt20/home/callum/QDESCP/Ciprofloxacin_rdkit_conf_22/Ciprofloxacin_rdkit_conf_22.xyz
          omp threads                :                     1


           -------------------------------------------------
          |                 G F N 2 - x T B                 |
           -------------------------------------------------

        Reference                      10.1021/acs.jctc.8b01176
      * Hamiltonian:
        H0-scaling (s, p, d)           1.850000    2.230000    2.230000
        zeta-weighting                 0.500000
      * Dispersion:
        s8                             2.700000
        a1                             0.520000
        a2                             5.000000
        s9                             5.000000
      * Repulsion:
        kExp                           1.500000    1.000000
        rExp                           1.000000
      * Coulomb:
        alpha                          2.000000
        third order                    shell-resolved
        anisotropic                    true
        a3                             3.000000
        a5                             4.000000
        cn-shift                       1.200000
        cn-exp                         4.000000
        max-rad                        5.000000

q/qsh data taken from xtbrestart
CAMM data taken from xtbrestart

          ...................................................
          :                      SETUP                      :
          :.................................................:
          :  # basis functions                 114          :
          :  # atomic orbitals                 114          :
          :  # shells                           66          :
          :  # electrons                       126          :
          :  max. iterations                   250          :
          :  Hamiltonian                  GFN2-xTB          :
          :  restarted?                       true          :
          :  GBSA solvation                  false          :
          :  PC potential                    false          :
          :  electronic temp.          300.0000000     K    :
          :  accuracy                    1.0000000          :
          :  -> integral cutoff          0.2500000E+02      :
          :  -> integral neglect         0.1000000E-07      :
          :  -> SCF convergence          0.1000000E-05 Eh   :
          :  -> wf. convergence          0.1000000E-03 e    :
          :  Broyden damping             0.4000000          :
          :  net charge                          0          :
          :  unpaired electrons                  0          :
          ...................................................

 iter      E             dE          RMSdq      gap      omega  full diag
   1    -72.1978331 -0.721978E+02  0.161E-05    2.58       0.0  T
   2    -72.1978331 -0.478906E-11  0.118E-05    2.58    1311.4  T
   3    -72.1978331 -0.619593E-11  0.364E-06    2.58    4239.9  T

   *** convergence criteria satisfied after 3 iterations ***

         #    Occupation            Energy/Eh            Energy/eV
      -------------------------------------------------------------
         1        2.0000           -0.8143681             -22.1601
       ...           ...                  ...                  ...
        57        2.0000           -0.4370788             -11.8935
        58        2.0000           -0.4215502             -11.4710
        59        2.0000           -0.4098266             -11.1519
        60        2.0000           -0.3839724             -10.4484
        61        2.0000           -0.3732023             -10.1554
        62        2.0000           -0.3693233             -10.0498
        63        2.0000           -0.3646133              -9.9216 (HOMO)
        64                         -0.2699058              -7.3445 (LUMO)
        65                         -0.2559679              -6.9652
        66                         -0.2215686              -6.0292
        67                         -0.1987403              -5.4080
        68                         -0.1331463              -3.6231
       ...                                ...                  ...
       114                          0.7170642              19.5123
      -------------------------------------------------------------
                  HL-Gap            0.0947076 Eh            2.5771 eV
             Fermi-level           -0.3172595 Eh           -8.6331 eV

 SCC (total)                   0 d,  0 h,  0 min,  0.041 sec
 SCC setup                      ...        0 min,  0.000 sec (  0.922%)
 Dispersion                     ...        0 min,  0.001 sec (  1.338%)
 classical contributions        ...        0 min,  0.000 sec (  0.376%)
 integral evaluation            ...        0 min,  0.008 sec ( 20.044%)
 iterations                     ...        0 min,  0.008 sec ( 19.569%)
 molecular gradient             ...        0 min,  0.024 sec ( 57.192%)
 printout                       ...        0 min,  0.000 sec (  0.542%)

         :::::::::::::::::::::::::::::::::::::::::::::::::::::
         ::                     SUMMARY                     ::
         :::::::::::::::::::::::::::::::::::::::::::::::::::::
         :: total energy             -71.303025532223 Eh    ::
         :: gradient norm              0.000972262879 Eh/a0 ::
         :: HOMO-LUMO gap              2.577124607043 eV    ::
         ::.................................................::
         :: SCC energy               -72.197774544568 Eh    ::
         :: -> isotropic ES            0.109303580436 Eh    ::
         :: -> anisotropic ES          0.007861662742 Eh    ::
         :: -> anisotropic XC          0.018644336908 Eh    ::
         :: -> dispersion             -0.046166974430 Eh    ::
         :: repulsion energy           0.894749012344 Eh    ::
         :: add. restraining           0.000000000000 Eh    ::
         :: total charge              -0.000000000000 e     ::
         :::::::::::::::::::::::::::::::::::::::::::::::::::::

           -------------------------------------------------
          |                Property Printout                |
           -------------------------------------------------

    * Orbital Energies and Occupations

         #    Occupation            Energy/Eh            Energy/eV
      -------------------------------------------------------------
         1        2.0000           -0.8143681             -22.1601
       ...           ...                  ...                  ...
        51        2.0000           -0.4645810             -12.6419
        52        2.0000           -0.4615023             -12.5581
        53        2.0000           -0.4569156             -12.4333
        54        2.0000           -0.4556402             -12.3986
        55        2.0000           -0.4543175             -12.3626
        56        2.0000           -0.4424784             -12.0405
        57        2.0000           -0.4370788             -11.8935
        58        2.0000           -0.4215502             -11.4710
        59        2.0000           -0.4098266             -11.1519
        60        2.0000           -0.3839724             -10.4484
        61        2.0000           -0.3732023             -10.1554
        62        2.0000           -0.3693233             -10.0498
        63        2.0000           -0.3646133              -9.9216 (HOMO)
        64                         -0.2699058              -7.3445 (LUMO)
        65                         -0.2559679              -6.9652
        66                         -0.2215686              -6.0292
        67                         -0.1987403              -5.4080
        68                         -0.1331463              -3.6231
        69                         -0.0948086              -2.5799
        70                         -0.0732247              -1.9925
        71                         -0.0329850              -0.8976
        72                         -0.0224997              -0.6122
        73                          0.0244810               0.6662
        74                          0.0366759               0.9980
       ...                                ...                  ...
       114                          0.7170642              19.5123
      -------------------------------------------------------------
                  HL-Gap            0.0947076 Eh            2.5771 eV
             Fermi-level           -0.3172595 Eh           -8.6331 eV

     #   Z          covCN         q      C6AA      α(0)
     1   8 O        0.857    -0.455    22.804     6.402
     2   6 C        2.704     0.359    20.901     7.483
     3   8 O        1.660    -0.349    19.891     6.021
     4   6 C        2.956    -0.079    29.977     8.980
     5   6 C        2.883     0.029    27.343     8.573
     6   7 N        2.746    -0.006    21.385     6.868
     7   6 C        2.933     0.051    26.855     8.499
     8   6 C        2.930    -0.096    30.407     9.043
     9   6 C        2.904     0.052    26.822     8.492
    10   7 N        2.742    -0.080    22.804     7.092
    11   6 C        3.746    -0.002    20.682     6.487
    12   6 C        3.747     0.006    20.546     6.465
    13   7 N        2.679    -0.258    26.687     7.672
    14   6 C        3.746     0.014    20.413     6.445
    15   6 C        3.750    -0.001    20.664     6.483
    16   6 C        2.783     0.136    25.011     8.191
    17   9 F        0.786    -0.237    11.620     4.027
    18   6 C        2.922    -0.041    29.019     8.834
    19   6 C        2.982    -0.044    29.078     8.845
    20   6 C        2.830     0.222    23.321     7.913
    21   8 O        0.857    -0.399    21.659     6.240
    22   6 C        3.811     0.028    20.093     6.380
    23   6 C        3.806    -0.070    21.836     6.652
    24   6 C        3.806    -0.068    21.804     6.647
    25   1 H        0.805     0.327     0.646     1.263
    26   1 H        0.925     0.082     1.959     2.189
    27   1 H        0.926     0.045     2.378     2.412
    28   1 H        0.924     0.057     2.231     2.336
    29   1 H        0.923     0.046     2.368     2.407
    30   1 H        0.924     0.043     2.410     2.428
    31   1 H        0.924     0.040     2.450     2.448
    32   1 H        0.860     0.138     1.482     1.907
    33   1 H        0.923     0.021     2.713     2.576
    34   1 H        0.924     0.043     2.414     2.430
    35   1 H        0.924     0.046     2.367     2.406
    36   1 H        0.923     0.045     2.386     2.416
    37   1 H        0.926     0.091     1.867     2.137
    38   1 H        0.925     0.048     2.351     2.398
    39   1 H        0.926     0.054     2.271     2.357
    40   1 H        0.926     0.060     2.197     2.318
    41   1 H        0.926     0.053     2.285     2.364
    42   1 H        0.926     0.047     2.356     2.400

 Mol. C6AA /au·bohr⁶  :      20032.699986
 Mol. C8AA /au·bohr⁸  :     469230.685106
 Mol. α(0) /au        :        215.925851


Wiberg/Mayer (AO) data.
largest (>0.10) Wiberg bond orders for each atom

 ---------------------------------------------------------------------------
     #   Z sym  total        # sym  WBO       # sym  WBO       # sym  WBO
 ---------------------------------------------------------------------------
     1   8 O    1.983 --     2 C    1.683     3 O    0.168
     2   6 C    3.919 --     1 O    1.683     3 O    1.150     4 C    1.030
[...]
   * S. Ehlert, M. Stahn, S. Spicher, S. Grimme, J. Chem. Theory Comput.,
     2021, 17, 4250-4261. DOI: 10.1021/acs.jctc.1c00471
   
   for ddCOSMO and CPCM-X implicit solvation:
   * M. Stahn, S. Ehlert, S. Grimme, J. Phys. Chem. A,
     2023, XX, XXXX-XXXX. DOI: 10.1021/acs.jpca.3c04382
   
   for DFT-D4:
   * E. Caldeweyher, C. Bannwarth and S. Grimme, J. Chem. Phys., 2017,
     147, 034112. DOI: 10.1063/1.4993215
   * E. Caldeweyher, S. Ehlert, A. Hansen, H. Neugebauer, S. Spicher,
     C. Bannwarth and S. Grimme, J. Chem. Phys., 2019, 150, 154122.
     DOI: 10.1063/1.5090222
   * E. Caldeweyher, J.-M. Mewes, S. Ehlert and S. Grimme, Phys. Chem. Chem. Phys.
     2020, 22, 8499-8512. DOI: 10.1039/D0CP00502A
   
   for sTDA-xTB:
   * S. Grimme and C. Bannwarth, J. Chem. Phys., 2016, 145, 054103.
     DOI: 10.1063/1.4959605
   
   in the mass-spec context:
   * V. Asgeirsson, C. Bauer and S. Grimme, Chem. Sci., 2017, 8, 4879.
     DOI: 10.1039/c7sc00601b
   * J. Koopman and S. Grimme, ACS Omega 2019, 4, 12, 15120-15133.
     DOI: 10.1021/acsomega.9b02011
   
   for metadynamics refer to:
   * S. Grimme, J. Chem. Theory Comput., 2019, 155, 2847-2862
     DOI: 10.1021/acs.jctc.9b00143
   
   for SPH calculations refer to:
   * S. Spicher and S. Grimme, J. Chem. Theory Comput., 2021, 17, 1701-1714
     DOI: 10.1021/acs.jctc.0c01306
   
   for ONIOM refer to:
   * C. Plett, A. Katbashev, S. Ehlert, S. Grimme, M. Bursch,
     Phys. Chem. Chem. Phys., 2023, 25, 17860-17868. DOI: 10.1039/D3CP02178E
   
   for DIPRO refer to:
   * J. Kohn, N. Gildemeister, S. Grimme, D. Fazzi, A. Hansen,
     J. Chem. Phys., 2023, just accepted.
   
   for PTB refer to:
   * S. Grimme, M. Mueller, A. Hansen, J. Chem. Phys., 2023, 158, 124111.
     DOI: 10.1063/5.0137838
   
   with help from (in alphabetical order)
   P. Atkinson, C. Bannwarth, F. Bohle, G. Brandenburg, E. Caldeweyher
   M. Checinski, S. Dohm, S. Ehlert, S. Ehrlich, I. Gerasimov, C. Hölzer
   A. Katbashev, J. Kohn, J. Koopman, C. Lavigne, S. Lehtola, F. März, M. Müller,
   F. Musil, H. Neugebauer, J. Pisarek, C. Plett, P. Pracht, F. Pultar,
   J. Seibert, P. Shushkov, S. Spicher, M. Stahn, M. Steiner, T. Strunk,
   J. Stückrath, T. Rose, and J. Unsleber
   
 * started run on 2025/05/15 at 16:06:27.276     
   ID    Z sym.   atoms
    1    8 O      1, 3, 21
    2    6 C      2, 4, 5, 7-9, 11, 12, 14-16, 18-20, 22-24
    3    7 N      6, 10, 13
    4    9 F      17
    5    1 H      25-42

           -------------------------------------------------
          |                Calculation Setup                |
           -------------------------------------------------

          program call               : xtb /rds/general/user/hgt20/home/callum/QDESCP/Ciprofloxacin_rdkit_conf_22/Ciprofloxacin_rdkit_conf_22.xyz --acc 1 --gfn 2 --chrg 0 --uhf 2 --etemp 300 --input /rds/general/user/hgt20/home/callum/QDESCP/Ciprofloxacin_rdkit_conf_22/Ciprofloxacin_rdkit_conf_22_xtb.inp -P 1
          hostname                   : login-c
          coordinate file            : /rds/general/user/hgt20/home/callum/QDESCP/Ciprofloxacin_rdkit_conf_22/Ciprofloxacin_rdkit_conf_22.xyz
          omp threads                :                     1


           -------------------------------------------------
          |                 G F N 2 - x T B                 |
           -------------------------------------------------

        Reference                      10.1021/acs.jctc.8b01176
      * Hamiltonian:
        H0-scaling (s, p, d)           1.850000    2.230000    2.230000
        zeta-weighting                 0.500000
      * Dispersion:
        s8                             2.700000
        a1                             0.520000
        a2                             5.000000
        s9                             5.000000
      * Repulsion:
        kExp                           1.500000    1.000000
        rExp                           1.000000
      * Coulomb:
        alpha                          2.000000
        third order                    shell-resolved
        anisotropic                    true
        a3                             3.000000
        a5                             4.000000
        cn-shift                       1.200000
        cn-exp                         4.000000
        max-rad                        5.000000


          ...................................................
          :                      SETUP                      :
          :.................................................:
          :  # basis functions                 114          :
          :  # atomic orbitals                 114          :
          :  # shells                           66          :
          :  # electrons                       126          :
          :  max. iterations                   250          :
          :  Hamiltonian                  GFN2-xTB          :
          :  restarted?                      false          :
          :  GBSA solvation                  false          :
          :  PC potential                    false          :
          :  electronic temp.          300.0000000     K    :
          :  accuracy                    1.0000000          :
          :  -> integral cutoff          0.2500000E+02      :
          :  -> integral neglect         0.1000000E-07      :
          :  -> SCF convergence          0.1000000E-05 Eh   :
          :  -> wf. convergence          0.1000000E-03 e    :
          :  Broyden damping             0.4000000          :
          :  net charge                          0          :
          :  unpaired electrons                  2          :
          ...................................................

 iter      E             dE          RMSdq      gap      omega  full diag
   1    -71.8119037 -0.718119E+02  0.405E+00    0.17       0.0  T
   2    -71.8083129  0.359082E-02  0.308E+00    0.07       1.0  T
   3    -71.9029435 -0.946306E-01  0.230E+00    0.33       1.0  T
   4    -71.9444780 -0.415345E-01  0.154E+00    0.27       1.0  T
   5    -71.9692566 -0.247786E-01  0.141E+00    0.32       1.0  T
   6    -72.0745400 -0.105283E+00  0.520E-01    0.23       1.0  T
   7    -72.0674203  0.711976E-02  0.611E-01    0.18       1.0  T
   8    -72.0841815 -0.167612E-01  0.349E-01    0.12       1.0  T
   9    -72.0609954  0.231861E-01  0.615E-01    0.14       1.0  T
  10    -72.0876477 -0.266523E-01  0.185E-01    0.14       1.0  T
  11    -72.0895512 -0.190351E-02  0.803E-02    0.13       1.0  T
  12    -72.0898398 -0.288637E-03  0.436E-02    0.14       1.0  T
  13    -72.0898606 -0.208109E-04  0.350E-02    0.14       1.0  T
  14    -72.0899225 -0.618560E-04  0.236E-02    0.14       1.0  T
  15    -72.0899318 -0.932676E-05  0.204E-02    0.14       1.0  T
  16    -72.0899613 -0.294801E-04  0.438E-03    0.14       3.5  T
  17    -72.0899626 -0.127940E-05  0.483E-04    0.14      31.9  T
  18    -72.0899625  0.108369E-06  0.125E-03    0.14      12.3  T
  19    -72.0899626 -0.120664E-06  0.470E-05    0.14     328.3  T
  20    -72.0899626  0.271285E-10  0.382E-05    0.14     404.4  T

   *** convergence criteria satisfied after 20 iterations ***

         #    Occupation            Energy/Eh            Energy/eV
      -------------------------------------------------------------
         1        2.0000           -0.8152056             -22.1829
       ...           ...                  ...                  ...
        58        2.0000           -0.4126625             -11.2291
        59        2.0000           -0.4030455             -10.9674
        60        2.0000           -0.3860411             -10.5047
        61        1.9636           -0.3758096             -10.2263
        62        1.5359           -0.3728329             -10.1453
        63        1.5005           -0.3726981             -10.1416
        64        0.9325           -0.2556740              -6.9572 (HOMO)
        65        0.0675           -0.2506835              -6.8214 (LUMO)
        66                         -0.2104441              -5.7265
        67                         -0.1937405              -5.2719
        68                         -0.1241380              -3.3780
        69                         -0.0847454              -2.3060
       ...                                ...                  ...
       114                          0.7227767              19.6678
      -------------------------------------------------------------
                  HL-Gap            0.0049905 Eh            0.1358 eV
             Fermi-level           -0.3129375 Eh           -8.5155 eV

 transition dipole moment (au) for excitation:          63          64
     X       Y       Z   
   1.1180  -0.5466  -0.0465  total (au/Debye):    1.245   3.165
 dE (eV)             :    3.184
 oscillator strength :  0.17110E+00

 SCC (total)                   0 d,  0 h,  0 min,  0.086 sec
 SCC setup                      ...        0 min,  0.000 sec (  0.419%)
 Dispersion                     ...        0 min,  0.000 sec (  0.518%)
 classical contributions        ...        0 min,  0.000 sec (  0.171%)
 integral evaluation            ...        0 min,  0.008 sec (  9.328%)
 iterations                     ...        0 min,  0.044 sec ( 51.615%)
 molecular gradient             ...        0 min,  0.025 sec ( 29.574%)
 printout                       ...        0 min,  0.007 sec (  8.366%)

         :::::::::::::::::::::::::::::::::::::::::::::::::::::
         ::                     SUMMARY                     ::
         :::::::::::::::::::::::::::::::::::::::::::::::::::::
         :: total energy             -71.195155066419 Eh    ::
         :: gradient norm              0.086353993865 Eh/a0 ::
         :: HOMO-LUMO gap              0.135798348457 eV    ::
         ::.................................................::
         :: SCC energy               -72.089904078763 Eh    ::
         :: -> isotropic ES            0.102859954794 Eh    ::
         :: -> anisotropic ES          0.006814020426 Eh    ::
         :: -> anisotropic XC          0.017184970508 Eh    ::
         :: -> dispersion             -0.046139364905 Eh    ::
         :: repulsion energy           0.894749012344 Eh    ::
         :: add. restraining           0.000000000000 Eh    ::
         :: total charge               0.000000000988 e     ::
         :::::::::::::::::::::::::::::::::::::::::::::::::::::

           -------------------------------------------------
          |                Property Printout                |
           -------------------------------------------------

    * Orbital Energies and Occupations

         #    Occupation            Energy/Eh            Energy/eV
      -------------------------------------------------------------
         1        2.0000           -0.8152056             -22.1829
       ...           ...                  ...                  ...
        52        2.0000           -0.4583405             -12.4721
        53        2.0000           -0.4520340             -12.3005
        54        2.0000           -0.4493250             -12.2268
        55        2.0000           -0.4458491             -12.1322
        56        2.0000           -0.4374123             -11.9026
        57        2.0000           -0.4343052             -11.8180
        58        2.0000           -0.4126625             -11.2291
        59        2.0000           -0.4030455             -10.9674
        60        2.0000           -0.3860411             -10.5047
        61        1.9636           -0.3758096             -10.2263
        62        1.5359           -0.3728329             -10.1453
        63        1.5005           -0.3726981             -10.1416
        64        0.9325           -0.2556740              -6.9572 (HOMO)
        65        0.0675           -0.2506835              -6.8214 (LUMO)
        66                         -0.2104441              -5.7265
        67                         -0.1937405              -5.2719
        68                         -0.1241380              -3.3780
        69                         -0.0847454              -2.3060
        70                         -0.0653876              -1.7793
        71                         -0.0418421              -1.1386
        72                         -0.0112528              -0.3062
        73                          0.0120267               0.3273
        74                          0.0396335               1.0785
        75                          0.0467813               1.2730
       ...                                ...                  ...
       114                          0.7227767              19.6678
      -------------------------------------------------------------
                  HL-Gap            0.0049905 Eh            0.1358 eV
             Fermi-level           -0.3129375 Eh           -8.5155 eV

     #   Z          covCN         q      C6AA      α(0)
     1   8 O        0.857    -0.451    22.724     6.391
     2   6 C        2.704     0.356    20.957     7.493
     3   8 O        1.660    -0.360    20.082     6.050
     4   6 C        2.956    -0.071    29.762     8.948
     5   6 C        2.883    -0.011    28.281     8.718
     6   7 N        2.746    -0.020    21.641     6.909
     7   6 C        2.933     0.055    26.774     8.486
     8   6 C        2.930    -0.108    30.734     9.092
     9   6 C        2.904     0.033    27.269     8.562
    10   7 N        2.742    -0.049    22.178     6.994
    11   6 C        3.746    -0.006    20.755     6.499
    12   6 C        3.747     0.003    20.588     6.472
    13   7 N        2.679    -0.247    26.435     7.636
    14   6 C        3.746     0.010    20.471     6.454
    15   6 C        3.750    -0.006    20.749     6.496
    16   6 C        2.783     0.138    24.980     8.187
    17   9 F        0.786    -0.236    11.609     4.025
    18   6 C        2.922    -0.073    29.817     8.955
    19   6 C        2.982    -0.014    28.362     8.736
    20   6 C        2.830     0.196    23.818     7.997
    21   8 O        0.857    -0.351    20.733     6.105
    22   6 C        3.811     0.031    20.050     6.374
    23   6 C        3.806    -0.069    21.820     6.650
    24   6 C        3.806    -0.069    21.820     6.650
    25   1 H        0.805     0.326     0.649     1.265
    26   1 H        0.925     0.070     2.090     2.261
    27   1 H        0.926     0.038     2.474     2.460
    28   1 H        0.924     0.068     2.108     2.270
    29   1 H        0.923     0.060     2.197     2.318
    30   1 H        0.924     0.050     2.316     2.380
    31   1 H        0.924     0.046     2.376     2.410
    32   1 H        0.860     0.144     1.442     1.881
    33   1 H        0.923     0.029     2.607     2.525
    34   1 H        0.924     0.049     2.336     2.390
    35   1 H        0.924     0.059     2.205     2.322
    36   1 H        0.923     0.060     2.199     2.319
    37   1 H        0.926     0.076     2.024     2.225
    38   1 H        0.925     0.042     2.421     2.433
    39   1 H        0.926     0.050     2.316     2.380
    40   1 H        0.926     0.060     2.193     2.316
    41   1 H        0.926     0.050     2.318     2.381
    42   1 H        0.926     0.042     2.426     2.436

 Mol. C6AA /au·bohr⁶  :      20012.474546
 Mol. C8AA /au·bohr⁸  :     469231.611987
 Mol. α(0) /au        :        215.849484


Wiberg/Mayer (AO) data.
largest (>0.10) Wiberg bond orders for each atom

 ---------------------------------------------------------------------------
     #   Z sym  total        # sym  WBO       # sym  WBO       # sym  WBO
 ---------------------------------------------------------------------------
     1   8 O    1.957 --     2 C    1.658     3 O    0.158
     2   6 C    3.891 --     1 O    1.658     3 O    1.135     4 C    1.036
     3   8 O    2.204 --     2 C    1.135    25 H    0.869     1 O    0.158
     4   6 C    3.850 --     5 C    1.444    20 C    1.080     2 C    1.036
     5   6 C    3.857 --     4 C    1.444     6 N    1.186    26 H    0.949
     6   7 N    3.551 --     5 C    1.186     7 C    1.120    22 C    0.988
     7   6 C    3.940 --     8 C    1.376    19 C    1.264     6 N    1.120
     8   6 C    3.874 --     7 C    1.376     9 C    1.246    27 H    0.959
     9   6 C    3.907 --    16 C    1.275     8 C    1.246    10 N    1.174
    10   7 N    3.328 --     9 C    1.174    15 C    0.999    11 C    0.997
    11   6 C    3.963 --    10 N    0.997    12 C    0.985    28 H    0.967
                            29 H    0.953
    12   6 C    3.978 --    13 N    1.017    11 C    0.985    31 H    0.975
                            30 H    0.967
    13   7 N    3.069 --    12 C    1.017    14 C    1.011    32 H    0.958
    14   6 C    3.982 --    13 N    1.011    15 C    1.002    34 H    0.970
                            33 H    0.966
    15   6 C    3.973 --    14 C    1.002    10 N    0.999    35 H    0.965
                            36 H    0.952
    16   6 C    3.779 --    18 C    1.385     9 C    1.275    17 F    0.943
    17   9 F    1.057 --    16 C    0.943
    18   6 C    3.919 --    16 C    1.385    19 C    1.296    37 H    0.960
    19   6 C    3.815 --    18 C    1.296     7 C    1.264    20 C    1.036
    20   6 C    3.878 --    21 O    1.564     4 C    1.080    19 C    1.036
    21   8 O    1.851 --    20 C    1.564
    22   6 C    3.923 --     6 N    0.988    23 C    0.975    24 C    0.961
                            38 H    0.958
    23   6 C    3.943 --    24 C    0.983    39 H    0.980    40 H    0.975
                            22 C    0.975
    24   6 C    3.938 --    23 C    0.983    42 H    0.980    41 H    0.979
                            22 C    0.961
    25   1 H    0.892 --     3 O    0.869
    26   1 H    0.987 --     5 C    0.949
    27   1 H    0.997 --     8 C    0.959
    28   1 H    0.992 --    11 C    0.967
    29   1 H    0.979 --    11 C    0.953
    30   1 H    0.994 --    12 C    0.967
    31   1 H    0.997 --    12 C    0.975
    32   1 H    0.978 --    13 N    0.958
    33   1 H    0.995 --    14 C    0.966
    34   1 H    0.997 --    14 C    0.970
    35   1 H    0.992 --    15 C    0.965
    36   1 H    0.979 --    15 C    0.952
    37   1 H    0.992 --    18 C    0.960
    38   1 H    0.994 --    22 C    0.958
    39   1 H    0.997 --    23 C    0.980
    40   1 H    0.996 --    23 C    0.975
    41   1 H    0.997 --    24 C    0.979
    42   1 H    0.998 --    24 C    0.980
 ---------------------------------------------------------------------------

Topologies differ in total number of bonds
Writing topology from bond orders to xtbtopo.mol

molecular dipole:
                 x           y           z       tot (Debye)
 q only:        3.253      -2.657      -0.269
   full:        3.190      -2.561      -0.162      10.405
molecular quadrupole (traceless):
                xx          xy          yy          xz          yz          zz
 q only:       -2.270       7.787      -5.195       1.301      -5.505       7.465
  q+dip:        0.120       9.626      -8.399       5.049      -3.990       8.278
   full:       -0.609       9.935      -9.948       4.924      -5.600      10.557


           -------------------------------------------------
          | TOTAL ENERGY              -71.195155066419 Eh   |
          | GRADIENT NORM               0.086353993865 Eh/α |
          | HOMO-LUMO GAP               0.135798348457 eV   |
           -------------------------------------------------

------------------------------------------------------------------------
 * finished run on 2025/05/15 at 16:06:27.381     
------------------------------------------------------------------------
 total:
 * wall-time:     0 d,  0 h,  0 min,  0.104 sec
 *  cpu-time:     0 d,  0 h,  0 min,  0.097 sec
 * ratio c/w:     0.934 speedup
 SCF:
 * wall-time:     0 d,  0 h,  0 min,  0.086 sec
 *  cpu-time:     0 d,  0 h,  0 min,  0.086 sec
 * ratio c/w:     0.994 speedup


