----- Optimization -----
      -----------------------------------------------------------      
     |                   =====================                   |     
     |                           x T B                           |     
     |                   =====================                   |     
     |                         S. Grimme                         |     
     |          Mulliken Center for Theoretical Chemistry        |     
     |                    University of Bonn                     |     
      -----------------------------------------------------------      

   * xtb version 6.7.1 (edcfbbe) compiled by 'conda@3ef47c1a292c' on 2024-11-25

   xtb is free software: you can redistribute it and/or modify it under
   the terms of the GNU Lesser General Public License as published by
   the Free Software Foundation, either version 3 of the License, or
   (at your option) any later version.
   
   xtb is distributed in the hope that it will be useful,
   but WITHOUT ANY WARRANTY; without even the implied warranty of
   MERCHANTABILITY or FITNESS FOR A PARTICULAR PURPOSE.  See the
   GNU Lesser General Public License for more details.
   
   Cite this work as:
   * C. Bannwarth, E. Caldeweyher, S. Ehlert, A. Hansen, P. Pracht,
     J. Seibert, S. Spicher, S. Grimme, WIREs Comput. Mol. Sci., 2020, 11,
     e01493. DOI: 10.1002/wcms.1493
   
   for GFN2-xTB:
   * C. Bannwarth, S. Ehlert and S. Grimme., J. Chem. Theory Comput., 2019,
     15, 1652-1671. DOI: 10.1021/acs.jctc.8b01176
   for GFN1-xTB:
   * S. Grimme, C. Bannwarth, P. Shushkov, J. Chem. Theory Comput., 2017,
     13, 1989-2009. DOI: 10.1021/acs.jctc.7b00118
   for GFN0-xTB:
   * P. Pracht, E. Caldeweyher, S. Ehlert, S. Grimme, ChemRxiv, 2019, preprint.
     DOI: 10.26434/chemrxiv.8326202.v1
   for GFN-FF:
   * S. Spicher and S. Grimme, Angew. Chem. Int. Ed., 2020, 59, 15665-15673.
     DOI: 10.1002/anie.202004239
   
   for ALPB and GBSA implicit solvation:
   * S. Ehlert, M. Stahn, S. Spicher, S. Grimme, J. Chem. Theory Comput.,
     2021, 17, 4250-4261. DOI: 10.1021/acs.jctc.1c00471
   
   for ddCOSMO and CPCM-X implicit solvation:
   * M. Stahn, S. Ehlert, S. Grimme, J. Phys. Chem. A,
     2023, XX, XXXX-XXXX. DOI: 10.1021/acs.jpca.3c04382
   
   for DFT-D4:
   * E. Caldeweyher, C. Bannwarth and S. Grimme, J. Chem. Phys., 2017,
     147, 034112. DOI: 10.1063/1.4993215
   * E. Caldeweyher, S. Ehlert, A. Hansen, H. Neugebauer, S. Spicher,
     C. Bannwarth and S. Grimme, J. Chem. Phys., 2019, 150, 154122.
     DOI: 10.1063/1.5090222
   * E. Caldeweyher, J.-M. Mewes, S. Ehlert and S. Grimme, Phys. Chem. Chem. Phys.
     2020, 22, 8499-8512. DOI: 10.1039/D0CP00502A
   
   for sTDA-xTB:
   * S. Grimme and C. Bannwarth, J. Chem. Phys., 2016, 145, 054103.
     DOI: 10.1063/1.4959605
   
   in the mass-spec context:
   * V. Asgeirsson, C. Bauer and S. Grimme, Chem. Sci., 2017, 8, 4879.
     DOI: 10.1039/c7sc00601b
   * J. Koopman and S. Grimme, ACS Omega 2019, 4, 12, 15120-15133.
     DOI: 10.1021/acsomega.9b02011
   
   for metadynamics refer to:
   * S. Grimme, J. Chem. Theory Comput., 2019, 155, 2847-2862
     DOI: 10.1021/acs.jctc.9b00143
   
   for SPH calculations refer to:
   * S. Spicher and S. Grimme, J. Chem. Theory Comput., 2021, 17, 1701-1714
     DOI: 10.1021/acs.jctc.0c01306
   
   for ONIOM refer to:
   * C. Plett, A. Katbashev, S. Ehlert, S. Grimme, M. Bursch,
     Phys. Chem. Chem. Phys., 2023, 25, 17860-17868. DOI: 10.1039/D3CP02178E
   
   for DIPRO refer to:
   * J. Kohn, N. Gildemeister, S. Grimme, D. Fazzi, A. Hansen,
     J. Chem. Phys., 2023, just accepted.
   
   for PTB refer to:
   * S. Grimme, M. Mueller, A. Hansen, J. Chem. Phys., 2023, 158, 124111.
     DOI: 10.1063/5.0137838
   
   with help from (in alphabetical order)
   P. Atkinson, C. Bannwarth, F. Bohle, G. Brandenburg, E. Caldeweyher
   M. Checinski, S. Dohm, S. Ehlert, S. Ehrlich, I. Gerasimov, C. Hölzer
   A. Katbashev, J. Kohn, J. Koopman, C. Lavigne, S. Lehtola, F. März, M. Müller,
   F. Musil, H. Neugebauer, J. Pisarek, C. Plett, P. Pracht, F. Pultar,
   J. Seibert, P. Shushkov, S. Spicher, M. Stahn, M. Steiner, T. Strunk,
   J. Stückrath, T. Rose, and J. Unsleber
   
 * started run on 2025/05/15 at 16:11:52.728     
   ID    Z sym.   atoms
    1    7 N      1, 3, 5
    2    6 C      2, 4, 6, 7, 9, 11, 13, 14
    3   16 S      8
    4    8 O      10, 12, 15
    5    1 H      16-26

           -------------------------------------------------
          |                Calculation Setup                |
           -------------------------------------------------

          program call               : xtb /rds/general/user/hgt20/home/callum/QDESCP/Lamivudine_rdkit_conf_5/Lamivudine_rdkit_conf_5.xyz --opt normal --acc 1 --gfn 2 --chrg 0 --uhf 0 -P 1
          hostname                   : login-c
          coordinate file            : /rds/general/user/hgt20/home/callum/QDESCP/Lamivudine_rdkit_conf_5/Lamivudine_rdkit_conf_5.xyz
          omp threads                :                     1


           -------------------------------------------------
          |                 G F N 2 - x T B                 |
           -------------------------------------------------

        Reference                      10.1021/acs.jctc.8b01176
      * Hamiltonian:
        H0-scaling (s, p, d)           1.850000    2.230000    2.230000
        zeta-weighting                 0.500000
      * Dispersion:
        s8                             2.700000
        a1                             0.520000
        a2                             5.000000
        s9                             5.000000
      * Repulsion:
        kExp                           1.500000    1.000000
        rExp                           1.000000
      * Coulomb:
        alpha                          2.000000
        third order                    shell-resolved
        anisotropic                    true
        a3                             3.000000
        a5                             4.000000
        cn-shift                       1.200000
        cn-exp                         4.000000
        max-rad                        5.000000


          ...................................................
          :                      SETUP                      :
          :.................................................:
          :  # basis functions                  77          :
          :  # atomic orbitals                  76          :
          :  # shells                           42          :
          :  # electrons                        82          :
          :  max. iterations                   250          :
          :  Hamiltonian                  GFN2-xTB          :
          :  restarted?                      false          :
          :  GBSA solvation                  false          :
          :  PC potential                    false          :
          :  electronic temp.          300.0000000     K    :
          :  accuracy                    1.0000000          :
          :  -> integral cutoff          0.2500000E+02      :
          :  -> integral neglect         0.1000000E-07      :
          :  -> SCF convergence          0.1000000E-05 Eh   :
          :  -> wf. convergence          0.1000000E-03 e    :
          :  Broyden damping             0.4000000          :
          :  net charge                          0          :
          :  unpaired electrons                  0          :
          ...................................................

 iter      E             dE          RMSdq      gap      omega  full diag
   1    -47.3189158 -0.473189E+02  0.509E+00    3.45       0.0  T
   2    -47.4192931 -0.100377E+00  0.294E+00    3.23       1.0  T
   3    -47.4170041  0.228896E-02  0.140E+00    3.01       1.0  T
   4    -47.4263975 -0.939338E-02  0.557E-01    2.86       1.0  T
   5    -47.4311016 -0.470411E-02  0.156E-01    2.88       1.0  T
   6    -47.4311892 -0.875556E-04  0.607E-02    2.89       1.0  T
   7    -47.4312026 -0.134666E-04  0.215E-02    2.90       1.0  T
   8    -47.4312044 -0.176348E-05  0.100E-02    2.91       2.0  T
   9    -47.4312045 -0.114565E-06  0.375E-03    2.91       5.2  T
  10    -47.4312046 -0.347264E-07  0.144E-03    2.91      13.6  T
  11    -47.4312046 -0.105932E-07  0.599E-04    2.91      32.7  T
  12    -47.4312046 -0.992479E-09  0.277E-04    2.91      70.8  T

   *** convergence criteria satisfied after 12 iterations ***

         #    Occupation            Energy/Eh            Energy/eV
      -------------------------------------------------------------
         1        2.0000           -0.7352142             -20.0062
       ...           ...                  ...                  ...
        35        2.0000           -0.4351080             -11.8399
        36        2.0000           -0.4328503             -11.7785
        37        2.0000           -0.4149434             -11.2912
        38        2.0000           -0.4023731             -10.9491
        39        2.0000           -0.3976989             -10.8219
        40        2.0000           -0.3841528             -10.4533
        41        2.0000           -0.3728996             -10.1471 (HOMO)
        42                         -0.2661375              -7.2420 (LUMO)
        43                         -0.2298858              -6.2555
        44                         -0.2240957              -6.0980
        45                         -0.1428557              -3.8873
        46                         -0.1313437              -3.5740
       ...                                ...                  ...
        76                          0.6484367              17.6449
      -------------------------------------------------------------
                  HL-Gap            0.1067620 Eh            2.9051 eV
             Fermi-level           -0.3195186 Eh           -8.6945 eV

 SCC (total)                   0 d,  0 h,  0 min,  0.054 sec
 SCC setup                      ...        0 min,  0.000 sec (  0.410%)
 Dispersion                     ...        0 min,  0.000 sec (  0.388%)
 classical contributions        ...        0 min,  0.000 sec (  0.125%)
 integral evaluation            ...        0 min,  0.004 sec (  8.137%)
 iterations                     ...        0 min,  0.013 sec ( 24.814%)
 molecular gradient             ...        0 min,  0.036 sec ( 65.925%)
 printout                       ...        0 min,  0.000 sec (  0.189%)

         :::::::::::::::::::::::::::::::::::::::::::::::::::::
         ::                     SUMMARY                     ::
         :::::::::::::::::::::::::::::::::::::::::::::::::::::
         :: total energy             -46.965969534717 Eh    ::
         :: gradient norm              0.091102948517 Eh/a0 ::
         :: HOMO-LUMO gap              2.905142652059 eV    ::
         ::.................................................::
         :: SCC energy               -47.431128517007 Eh    ::
         :: -> isotropic ES            0.107481252883 Eh    ::
         :: -> anisotropic ES          0.002135397606 Eh    ::
         :: -> anisotropic XC          0.014765473488 Eh    ::
         :: -> dispersion             -0.026093733666 Eh    ::
         :: repulsion energy           0.465158982290 Eh    ::
         :: add. restraining           0.000000000000 Eh    ::
         :: total charge              -0.000000000000 e     ::
         :::::::::::::::::::::::::::::::::::::::::::::::::::::

      ----------------------------------------------------------- 
     |                   =====================                   |
     |                        A N C O P T                        |
     |                   =====================                   |
     |               Approximate Normal Coordinate               |
     |                Rational Function Optimizer                |
      ----------------------------------------------------------- 
      ----------------------------------------------------------- 
     |                   =====================                   |
     |                        A N C O P T                        |
     |                   =====================                   |
     |               Approximate Normal Coordinate               |
     |                Rational Function Optimizer                |
      ----------------------------------------------------------- 

          ...................................................
          :                      SETUP                      :
          :.................................................:
          :   optimization level            normal          :
          :   max. optcycles                   200          :
          :   ANC micro-cycles                  20          :
          :   degrees of freedom                72          :
          :.................................................:
          :   RF solver                   davidson          :
          :   write xtbopt.log                true          :
          :   linear?                        false          :
          :   energy convergence         0.5000000E-05 Eh   :
          :   grad. convergence          0.1000000E-02 Eh/α :
          :   maxmium RF displ.          1.0000000          :
          :   Hlow (freq-cutoff)         0.1000000E-01      :
          :   Hmax (freq-cutoff)         5.0000000          :
          :   S6 in model hess.         20.0000000          :
          ...................................................

generating ANC from exact Hessian ...
Using Lindh-Hessian (1995)
 Shifting diagonal of input Hessian by    8.9482690471970622E-003
 Lowest  eigenvalues of input Hessian
    0.000000    0.000000    0.000000    0.000000    0.000000    0.000000
    0.010000    0.010457    0.010833    0.013725    0.014748    0.019301
    0.020394    0.024352    0.028466    0.029828    0.031573    0.035838
 Highest eigenvalues
    1.658688    1.832674    1.969798    2.045939    2.141441    2.393419


........................................................................
.............................. CYCLE    1 ..............................
........................................................................

 iter      E             dE          RMSdq      gap      omega  full diag
   1    -47.4312046 -0.474312E+02  0.806E-05    2.91       0.0  T
   2    -47.4312046 -0.142037E-10  0.506E-05    2.91     387.2  T
   3    -47.4312046  0.554223E-12  0.266E-05    2.91     737.3  T
     SCC iter.                  ...        0 min,  0.004 sec
     gradient                   ...        0 min,  0.011 sec
 * total energy  :   -46.9659695 Eh     change       -0.2636611E-09 Eh
   gradient norm :     0.0911033 Eh/α   predicted     0.0000000E+00 (-100.00%)
   displ. norm   :     0.2591592 α      lambda       -0.1096147E-01
   maximum displ.:     0.0992522 α      in ANC's #22, #19, #9, ...

........................................................................
.............................. CYCLE    2 ..............................
........................................................................

 iter      E             dE          RMSdq      gap      omega  full diag
   1    -47.4500841 -0.474501E+02  0.227E-01    2.91       0.0  T
   2    -47.4502227 -0.138534E-03  0.133E-01    2.91       1.0  T
   3    -47.4502139  0.874448E-05  0.780E-02    2.91       1.0  T
   4    -47.4502615 -0.475676E-04  0.199E-02    2.90       1.0  T
   5    -47.4502679 -0.642541E-05  0.537E-03    2.90       3.7  T
   6    -47.4502680 -0.126954E-06  0.248E-03    2.91       7.9  T
   7    -47.4502681 -0.221383E-07  0.954E-04    2.91      20.6  T
   8    -47.4502681 -0.237131E-08  0.373E-04    2.91      52.6  T
     SCC iter.                  ...        0 min,  0.008 sec
     gradient                   ...        0 min,  0.012 sec
 * total energy  :   -46.9735290 Eh     change       -0.7559486E-02 Eh
   gradient norm :     0.0503604 Eh/α   predicted    -0.5851728E-02 ( -22.59%)
   displ. norm   :     0.2181220 α      lambda       -0.4686290E-02
   maximum displ.:     0.0952386 α      in ANC's #9, #4, #22, ...

........................................................................
.............................. CYCLE    3 ..............................
........................................................................

 iter      E             dE          RMSdq      gap      omega  full diag
   1    -47.4628183 -0.474628E+02  0.185E-01    2.90       0.0  T
   2    -47.4629304 -0.112094E-03  0.101E-01    2.88       1.0  T
   3    -47.4629384 -0.799472E-05  0.653E-02    2.89       1.0  T
   4    -47.4629626 -0.241529E-04  0.166E-02    2.88       1.2  T
   5    -47.4629670 -0.442112E-05  0.455E-03    2.88       4.3  T
   6    -47.4629671 -0.160096E-06  0.209E-03    2.88       9.4  T
   7    -47.4629672 -0.186539E-07  0.852E-04    2.88      23.0  T
   8    -47.4629672 -0.257947E-08  0.261E-04    2.88      75.1  T
     SCC iter.                  ...        0 min,  0.009 sec
     gradient                   ...        0 min,  0.011 sec
 * total energy  :   -46.9762960 Eh     change       -0.2766979E-02 Eh
   gradient norm :     0.0215559 Eh/α   predicted    -0.2457386E-02 ( -11.19%)
   displ. norm   :     0.1399360 α      lambda       -0.9778658E-03
   maximum displ.:     0.0632239 α      in ANC's #9, #4, #6, ...

........................................................................
.............................. CYCLE    4 ..............................
........................................................................

 iter      E             dE          RMSdq      gap      omega  full diag
   1    -47.4637702 -0.474638E+02  0.895E-02    2.88       0.0  T
   2    -47.4637921 -0.219588E-04  0.483E-02    2.87       1.0  T
   3    -47.4637925 -0.405210E-06  0.235E-02    2.87       1.0  T
   4    -47.4637949 -0.241321E-05  0.596E-03    2.87       3.3  T
   5    -47.4637951 -0.190315E-06  0.304E-03    2.87       6.5  T
   6    -47.4637952 -0.856783E-07  0.116E-03    2.87      16.9  T
   7    -47.4637952 -0.144114E-07  0.392E-04    2.87      50.1  T
   8    -47.4637952 -0.703736E-09  0.163E-04    2.87     120.3  T
     SCC iter.                  ...        0 min,  0.009 sec
     gradient                   ...        0 min,  0.012 sec
 * total energy  :   -46.9769669 Eh     change       -0.6708817E-03 Eh
   gradient norm :     0.0134068 Eh/α   predicted    -0.4985525E-03 ( -25.69%)
   displ. norm   :     0.1562533 α      lambda       -0.6261719E-03
   maximum displ.:     0.0666569 α      in ANC's #1, #9, #4, ...

........................................................................
.............................. CYCLE    5 ..............................
........................................................................

 iter      E             dE          RMSdq      gap      omega  full diag
   1    -47.4633518 -0.474634E+02  0.851E-02    2.87       0.0  T
   2    -47.4633799 -0.281144E-04  0.483E-02    2.87       1.0  T
   3    -47.4633809 -0.102075E-05  0.215E-02    2.86       1.0  T
   4    -47.4633828 -0.185013E-05  0.754E-03    2.86       2.6  T
   5    -47.4633834 -0.655008E-06  0.313E-03    2.86       6.3  T
   6    -47.4633835 -0.810933E-07  0.126E-03    2.86      15.6  T
   7    -47.4633835 -0.128625E-07  0.403E-04    2.86      48.6  T
   8    -47.4633835 -0.379643E-09  0.168E-04    2.86     116.5  T
     SCC iter.                  ...        0 min,  0.008 sec
     gradient                   ...        0 min,  0.044 sec
 * total energy  :   -46.9773704 Eh     change       -0.4035067E-03 Eh
   gradient norm :     0.0096052 Eh/α   predicted    -0.3207552E-03 ( -20.51%)
   displ. norm   :     0.1236886 α      lambda       -0.2500331E-03
   maximum displ.:     0.0615888 α      in ANC's #1, #2, #5, ...

........................................................................
.............................. CYCLE    6 ..............................
........................................................................

 iter      E             dE          RMSdq      gap      omega  full diag
   1    -47.4633872 -0.474634E+02  0.536E-02    2.87       0.0  T
   2    -47.4633997 -0.124681E-04  0.318E-02    2.87       1.0  T
   3    -47.4634002 -0.484111E-06  0.148E-02    2.87       1.3  T
   4    -47.4634010 -0.798228E-06  0.633E-03    2.87       3.1  T
   5    -47.4634016 -0.638194E-06  0.193E-03    2.87      10.2  T
   6    -47.4634016 -0.103417E-07  0.712E-04    2.87      27.5  T
   7    -47.4634016 -0.432316E-08  0.279E-04    2.87      70.4  T
     SCC iter.                  ...        0 min,  0.008 sec
     gradient                   ...        0 min,  0.011 sec
 * total energy  :   -46.9775559 Eh     change       -0.1855181E-03 Eh
   gradient norm :     0.0080613 Eh/α   predicted    -0.1269328E-03 ( -31.58%)
   displ. norm   :     0.1781717 α      lambda       -0.2541576E-03
   maximum displ.:     0.0962888 α      in ANC's #1, #2, #5, ...

........................................................................
.............................. CYCLE    7 ..............................
........................................................................

 iter      E             dE          RMSdq      gap      omega  full diag
   1    -47.4639944 -0.474640E+02  0.633E-02    2.89       0.0  T
   2    -47.4640079 -0.135056E-04  0.370E-02    2.89       1.0  T
   3    -47.4640080 -0.136253E-06  0.166E-02    2.89       1.2  T
   4    -47.4640092 -0.119902E-05  0.634E-03    2.89       3.1  T
   5    -47.4640098 -0.640874E-06  0.222E-03    2.89       8.8  T
   6    -47.4640099 -0.259189E-07  0.799E-04    2.89      24.5  T
   7    -47.4640099 -0.442938E-08  0.325E-04    2.89      60.3  T
     SCC iter.                  ...        0 min,  0.007 sec
     gradient                   ...        0 min,  0.011 sec
 * total energy  :   -46.9777435 Eh     change       -0.1876167E-03 Eh
   gradient norm :     0.0075298 Eh/α   predicted    -0.1311136E-03 ( -30.12%)
   displ. norm   :     0.2192466 α      lambda       -0.2373486E-03
   maximum displ.:     0.1249141 α      in ANC's #1, #2, #5, ...

........................................................................
.............................. CYCLE    8 ..............................
........................................................................

 iter      E             dE          RMSdq      gap      omega  full diag
   1    -47.4649410 -0.474649E+02  0.692E-02    2.92       0.0  T
   2    -47.4649503 -0.921653E-05  0.400E-02    2.92       1.0  T
   3    -47.4649501  0.173830E-06  0.148E-02    2.92       1.3  T
   4    -47.4649513 -0.116876E-05  0.505E-03    2.92       3.9  T
   5    -47.4649515 -0.290956E-06  0.239E-03    2.92       8.2  T
   6    -47.4649516 -0.631400E-07  0.799E-04    2.92      24.5  T
   7    -47.4649516 -0.313960E-08  0.326E-04    2.92      60.2  T
     SCC iter.                  ...        0 min,  0.007 sec
     gradient                   ...        0 min,  0.041 sec
 * total energy  :   -46.9779252 Eh     change       -0.1816402E-03 Eh
   gradient norm :     0.0075423 Eh/α   predicted    -0.1243831E-03 ( -31.52%)
   displ. norm   :     0.2993066 α      lambda       -0.2602219E-03
   maximum displ.:     0.1718519 α      in ANC's #1, #2, #4, ...

........................................................................
.............................. CYCLE    9 ..............................
........................................................................

 iter      E             dE          RMSdq      gap      omega  full diag
   1    -47.4653677 -0.474654E+02  0.896E-02    2.95       0.0  T
   2    -47.4653765 -0.879676E-05  0.518E-02    2.96       1.0  T
   3    -47.4653767 -0.192746E-06  0.147E-02    2.96       1.3  T
   4    -47.4653778 -0.110025E-05  0.525E-03    2.96       3.7  T
   5    -47.4653779 -0.162288E-06  0.238E-03    2.96       8.2  T
   6    -47.4653780 -0.697328E-07  0.925E-04    2.96      21.2  T
   7    -47.4653780 -0.616229E-08  0.378E-04    2.96      51.9  T
     SCC iter.                  ...        0 min,  0.007 sec
     gradient                   ...        0 min,  0.011 sec
 * total energy  :   -46.9781283 Eh     change       -0.2030958E-03 Eh
   gradient norm :     0.0088774 Eh/α   predicted    -0.1417704E-03 ( -30.20%)
   displ. norm   :     0.3970187 α      lambda       -0.3457526E-03
   maximum displ.:     0.2373937 α      in ANC's #1, #2, #4, ...

........................................................................
.............................. CYCLE   10 ..............................
........................................................................

 iter      E             dE          RMSdq      gap      omega  full diag
   1    -47.4663514 -0.474664E+02  0.115E-01    2.99       0.0  T
   2    -47.4663621 -0.107101E-04  0.676E-02    2.99       1.0  T
   3    -47.4663634 -0.131258E-05  0.147E-02    3.00       1.3  T
   4    -47.4663639 -0.452847E-06  0.560E-03    3.00       3.5  T
   5    -47.4663640 -0.893296E-07  0.211E-03    3.00       9.3  T
   6    -47.4663640 -0.448238E-07  0.924E-04    3.00      21.2  T
   7    -47.4663640 -0.661629E-08  0.428E-04    3.00      45.8  T
     SCC iter.                  ...        0 min,  0.008 sec
     gradient                   ...        0 min,  0.011 sec
 * total energy  :   -46.9783596 Eh     change       -0.2313311E-03 Eh
   gradient norm :     0.0105185 Eh/α   predicted    -0.2001303E-03 ( -13.49%)
   displ. norm   :     0.5424435 α      lambda       -0.4016471E-03
   maximum displ.:     0.3072898 α      in ANC's #1, #2, #4, ...

........................................................................
.............................. CYCLE   11 ..............................
........................................................................

 iter      E             dE          RMSdq      gap      omega  full diag
   1    -47.4621168 -0.474621E+02  0.158E-01    3.03       0.0  T
   2    -47.4621301 -0.132130E-04  0.917E-02    3.03       1.0  T
   3    -47.4621323 -0.219965E-05  0.185E-02    3.03       1.1  T
   4    -47.4621329 -0.665280E-06  0.865E-03    3.03       2.3  T
   5    -47.4621335 -0.552154E-06  0.387E-03    3.03       5.1  T
   6    -47.4621337 -0.227514E-06  0.123E-03    3.03      15.9  T
   7    -47.4621337 -0.334850E-08  0.505E-04    3.03      38.9  T
   8    -47.4621337 -0.139941E-08  0.148E-04    3.03     132.2  T
     SCC iter.                  ...        0 min,  0.008 sec
     gradient                   ...        0 min,  0.039 sec
 * total energy  :   -46.9784325 Eh     change       -0.7291026E-04 Eh
   gradient norm :     0.0195310 Eh/α   predicted    -0.2599208E-03 ( 256.49%)
   displ. norm   :     0.0838382 α      lambda       -0.5398662E-03
   maximum displ.:     0.0451113 α      in ANC's #5, #8, #10, ...

........................................................................
.............................. CYCLE   12 ..............................
........................................................................

 iter      E             dE          RMSdq      gap      omega  full diag
   1    -47.4677008 -0.474677E+02  0.467E-02    3.02       0.0  T
   2    -47.4677073 -0.656572E-05  0.286E-02    3.02       1.0  T
   3    -47.4677075 -0.207308E-06  0.125E-02    3.02       1.6  T
   4    -47.4677080 -0.521211E-06  0.324E-03    3.02       6.0  T
   5    -47.4677081 -0.463895E-07  0.156E-03    3.02      12.6  T
   6    -47.4677081 -0.214596E-07  0.776E-04    3.02      25.3  T
   7    -47.4677081 -0.306973E-08  0.315E-04    3.02      62.3  T
     SCC iter.                  ...        0 min,  0.007 sec
     gradient                   ...        0 min,  0.011 sec
 * total energy  :   -46.9787369 Eh     change       -0.3043607E-03 Eh
   gradient norm :     0.0053318 Eh/α   predicted    -0.2718377E-03 ( -10.69%)
   displ. norm   :     0.3237619 α      lambda       -0.2117486E-03
   maximum displ.:     0.1982068 α      in ANC's #1, #2, #4, ...

........................................................................
.............................. CYCLE   13 ..............................
........................................................................

 iter      E             dE          RMSdq      gap      omega  full diag
   1    -47.4669482 -0.474669E+02  0.897E-02    3.03       0.0  T
   2    -47.4669517 -0.343913E-05  0.516E-02    3.03       1.0  T
   3    -47.4669510  0.688370E-06  0.141E-02    3.03       1.4  T
   4    -47.4669528 -0.176429E-05  0.613E-03    3.03       3.2  T
   5    -47.4669529 -0.142990E-06  0.216E-03    3.03       9.1  T
   6    -47.4669530 -0.658294E-07  0.704E-04    3.03      27.9  T
   7    -47.4669530 -0.933170E-09  0.309E-04    3.03      63.5  T
     SCC iter.                  ...        0 min,  0.007 sec
     gradient                   ...        0 min,  0.012 sec
 * total energy  :   -46.9789007 Eh     change       -0.1638366E-03 Eh
   gradient norm :     0.0049616 Eh/α   predicted    -0.1169738E-03 ( -28.60%)
   displ. norm   :     0.3919126 α      lambda       -0.2064128E-03
   maximum displ.:     0.2562726 α      in ANC's #2, #1, #4, ...

........................................................................
.............................. CYCLE   14 ..............................
........................................................................

 iter      E             dE          RMSdq      gap      omega  full diag
   1    -47.4660267 -0.474660E+02  0.109E-01    3.03       0.0  T
   2    -47.4660333 -0.656065E-05  0.625E-02    3.04       1.0  T
   3    -47.4660332  0.121555E-06  0.162E-02    3.03       1.2  T
   4    -47.4660349 -0.174386E-05  0.702E-03    3.03       2.8  T
   5    -47.4660350 -0.100506E-06  0.306E-03    3.03       6.4  T
   6    -47.4660352 -0.129732E-06  0.914E-04    3.03      21.4  T
   7    -47.4660352 -0.408057E-08  0.434E-04    3.03      45.2  T
     SCC iter.                  ...        0 min,  0.007 sec
     gradient                   ...        0 min,  0.044 sec
 * total energy  :   -46.9790361 Eh     change       -0.1353615E-03 Eh
   gradient norm :     0.0055402 Eh/α   predicted    -0.1190617E-03 ( -12.04%)
   displ. norm   :     0.1542768 α      lambda       -0.9690326E-04
   maximum displ.:     0.1108550 α      in ANC's #2, #1, #3, ...

........................................................................
.............................. CYCLE   15 ..............................
........................................................................

 iter      E             dE          RMSdq      gap      omega  full diag
   1    -47.4672582 -0.474673E+02  0.494E-02    3.04       0.0  T
   2    -47.4672604 -0.215240E-05  0.266E-02    3.04       1.0  T
   3    -47.4672604 -0.230249E-07  0.731E-03    3.03       2.7  T
   4    -47.4672607 -0.272142E-06  0.294E-03    3.03       6.7  T
   5    -47.4672607 -0.136563E-07  0.110E-03    3.03      17.8  T
   6    -47.4672607 -0.643431E-08  0.436E-04    3.03      45.0  T
   7    -47.4672607 -0.251657E-08  0.195E-04    3.03     100.5  T
     SCC iter.                  ...        0 min,  0.007 sec
     gradient                   ...        0 min,  0.011 sec
 * total energy  :   -46.9791102 Eh     change       -0.7418864E-04 Eh
   gradient norm :     0.0043035 Eh/α   predicted    -0.4960568E-04 ( -33.14%)
   displ. norm   :     0.2167609 α      lambda       -0.1108225E-03
   maximum displ.:     0.1534709 α      in ANC's #2, #1, #3, ...

........................................................................
.............................. CYCLE   16 ..............................
........................................................................

 iter      E             dE          RMSdq      gap      omega  full diag
   1    -47.4677505 -0.474678E+02  0.676E-02    3.04       0.0  T
   2    -47.4677538 -0.333845E-05  0.362E-02    3.04       1.0  T
   3    -47.4677532  0.632689E-06  0.107E-02    3.04       1.8  T
   4    -47.4677543 -0.110662E-05  0.468E-03    3.04       4.2  T
   5    -47.4677544 -0.144773E-06  0.203E-03    3.04       9.7  T
   6    -47.4677545 -0.363666E-07  0.525E-04    3.04      37.3  T
   7    -47.4677545 -0.207508E-08  0.230E-04    3.04      85.1  T
     SCC iter.                  ...        0 min,  0.007 sec
     gradient                   ...        0 min,  0.012 sec
 * total energy  :   -46.9791908 Eh     change       -0.8058905E-04 Eh
   gradient norm :     0.0032440 Eh/α   predicted    -0.5801550E-04 ( -28.01%)
   displ. norm   :     0.1582271 α      lambda       -0.6738496E-04
   maximum displ.:     0.1063950 α      in ANC's #2, #1, #3, ...

........................................................................
.............................. CYCLE   17 ..............................
........................................................................

 iter      E             dE          RMSdq      gap      omega  full diag
   1    -47.4682430 -0.474682E+02  0.543E-02    3.05       0.0  T
   2    -47.4682448 -0.179528E-05  0.279E-02    3.05       1.0  T
   3    -47.4682440  0.802343E-06  0.942E-03    3.05       2.1  T
   4    -47.4682453 -0.126386E-05  0.377E-03    3.05       5.2  T
   5    -47.4682454 -0.553625E-07  0.145E-03    3.05      13.5  T
   6    -47.4682454 -0.193782E-07  0.294E-04    3.05      66.6  T
   7    -47.4682454 -0.423860E-09  0.142E-04    3.05     137.9  T
     SCC iter.                  ...        0 min,  0.008 sec
     gradient                   ...        0 min,  0.038 sec
 * total energy  :   -46.9792360 Eh     change       -0.4518929E-04 Eh
   gradient norm :     0.0029398 Eh/α   predicted    -0.3453869E-04 ( -23.57%)
   displ. norm   :     0.1028397 α      lambda       -0.3017356E-04
   maximum displ.:     0.0680350 α      in ANC's #2, #1, #3, ...

........................................................................
.............................. CYCLE   18 ..............................
........................................................................

 iter      E             dE          RMSdq      gap      omega  full diag
   1    -47.4677393 -0.474677E+02  0.343E-02    3.05       0.0  T
   2    -47.4677398 -0.557788E-06  0.176E-02    3.05       1.1  T
   3    -47.4677399 -0.226197E-07  0.400E-03    3.05       4.9  T
   4    -47.4677399 -0.611754E-07  0.228E-03    3.05       8.6  T
   5    -47.4677400 -0.366208E-07  0.740E-04    3.05      26.5  T
   6    -47.4677400 -0.665352E-08  0.220E-04    3.05      89.1  T
     SCC iter.                  ...        0 min,  0.006 sec
     gradient                   ...        0 min,  0.011 sec
 * total energy  :   -46.9792564 Eh     change       -0.2033691E-04 Eh
   gradient norm :     0.0021122 Eh/α   predicted    -0.1525248E-04 ( -25.00%)
   displ. norm   :     0.0583177 α      lambda       -0.1717009E-04
   maximum displ.:     0.0335929 α      in ANC's #4, #3, #2, ...

........................................................................
.............................. CYCLE   19 ..............................
........................................................................

 iter      E             dE          RMSdq      gap      omega  full diag
   1    -47.4678543 -0.474679E+02  0.254E-02    3.05       0.0  T
   2    -47.4678548 -0.475945E-06  0.132E-02    3.05       1.5  T
   3    -47.4678549 -0.405566E-07  0.325E-03    3.05       6.0  T
   4    -47.4678549 -0.444574E-07  0.168E-03    3.05      11.7  T
   5    -47.4678549 -0.526419E-08  0.442E-04    3.05      44.4  T
   6    -47.4678549 -0.132273E-08  0.177E-04    3.05     110.7  T
     SCC iter.                  ...        0 min,  0.007 sec
     gradient                   ...        0 min,  0.012 sec
 * total energy  :   -46.9792667 Eh     change       -0.1035789E-04 Eh
   gradient norm :     0.0015128 Eh/α   predicted    -0.8614730E-05 ( -16.83%)
   displ. norm   :     0.0347485 α      lambda       -0.6377335E-05
   maximum displ.:     0.0196105 α      in ANC's #3, #2, #5, ...

........................................................................
.............................. CYCLE   20 ..............................
........................................................................

 iter      E             dE          RMSdq      gap      omega  full diag
   1    -47.4673527 -0.474674E+02  0.180E-02    3.05       0.0  T
   2    -47.4673530 -0.274443E-06  0.967E-03    3.05       2.0  T
   3    -47.4673527  0.240586E-06  0.490E-03    3.05       4.0  T
   4    -47.4673531 -0.365168E-06  0.140E-03    3.05      14.0  T
   5    -47.4673531 -0.824420E-08  0.628E-04    3.05      31.2  T
   6    -47.4673531 -0.160843E-08  0.164E-04    3.05     119.3  T
     SCC iter.                  ...        0 min,  0.045 sec
     gradient                   ...        0 min,  0.012 sec
 * total energy  :   -46.9792713 Eh     change       -0.4593026E-05 Eh
   gradient norm :     0.0011269 Eh/α   predicted    -0.3197266E-05 ( -30.39%)
   displ. norm   :     0.0217512 α      lambda       -0.3002502E-05
   maximum displ.:     0.0164935 α      in ANC's #1, #2, #13, ...
 * RMSD in coord.:     0.6397504 α      energy gain  -0.1330178E-01 Eh

generating ANC from exact Hessian ...
Using Lindh-Hessian (1995)
 Shifting diagonal of input Hessian by    8.9468041623921597E-003
 Lowest  eigenvalues of input Hessian
    0.000000    0.000000    0.000000    0.000000    0.000000    0.000000
    0.010000    0.010486    0.010830    0.014311    0.014949    0.019567
    0.021061    0.025922    0.028834    0.030357    0.033716    0.037179
 Highest eigenvalues
    1.719820    1.946575    2.048556    2.115134    2.212777    2.501593


........................................................................
.............................. CYCLE   21 ..............................
........................................................................

 iter      E             dE          RMSdq      gap      omega  full diag
   1    -47.4676721 -0.474677E+02  0.814E-03    3.05       0.0  T
   2    -47.4676721 -0.474257E-07  0.485E-03    3.05       4.0  T
   3    -47.4676721  0.398737E-07  0.185E-03    3.05      10.6  T
   4    -47.4676721 -0.560124E-07  0.588E-04    3.05      33.4  T
   5    -47.4676721 -0.271584E-08  0.246E-04    3.05      79.6  T
     SCC iter.                  ...        0 min,  0.005 sec
     gradient                   ...        0 min,  0.012 sec
 * total energy  :   -46.9792743 Eh     change       -0.2969989E-05 Eh
   gradient norm :     0.0009628 Eh/α   predicted     0.0000000E+00 (-100.00%)
   displ. norm   :     0.0123981 α      lambda       -0.2623657E-05
   maximum displ.:     0.0072504 α      in ANC's #2, #4, #10, ...

   *** GEOMETRY OPTIMIZATION CONVERGED AFTER 21 ITERATIONS ***

------------------------------------------------------------------------
 total energy gain   :        -0.0133047 Eh       -8.3489 kcal/mol
 total RMSD          :         0.6397504 a0        0.3385 Å
 total power (kW/mol):        -1.6634102 (step)  -47.5498 (real)
------------------------------------------------------------------------

 ANCopt (total)                0 d,  0 h,  0 min,  0.735 sec
 optimizer setup                ...        0 min,  0.000 sec (  0.009%)
 model hessian                  ...        0 min,  0.015 sec (  2.016%)
 ANC generation                 ...        0 min,  0.001 sec (  0.172%)
 coordinate transformation      ...        0 min,  0.000 sec (  0.011%)
 single point calculation       ...        0 min,  0.712 sec ( 96.901%)
 optimization log               ...        0 min,  0.003 sec (  0.475%)
 hessian update                 ...        0 min,  0.000 sec (  0.021%)
 rational function              ...        0 min,  0.001 sec (  0.180%)

================
 final structure:
================
26
 xtb: 6.7.1 (edcfbbe)
N           -4.37481762236330        1.02015350212514       -0.29128242907733
C           -3.15194684182813        0.48739927264207       -0.10995351935811
N           -3.09351487446837       -0.80248384069967        0.12249343795967
C           -1.93150282848837       -1.44665170727911        0.29043919679203
N           -0.73394900683486       -0.65542196098238        0.15983499226478
C            0.53378681672540       -1.33449548060972        0.27820493760862
C            1.14778894496927       -1.13064655188032        1.66527342885705
S            2.91327780206955       -1.38346223074244        1.39051142135364
C            2.73214593455374       -0.64472106846309       -0.27442508932323
O            1.42694094667939       -0.87307119205781       -0.71395863745704
C            3.10775406890473        0.84213571477511       -0.26923409153360
O            2.28517551725490        1.54744846048379        0.63160054802596
C           -0.79274177588226        0.67291406216114       -0.05032355016492
C           -1.98454520430828        1.30329466734272       -0.18788790815602
O           -1.81867086694378       -2.62149063522241        0.55087608380715
H           -4.50384383721075        2.01141294092682       -0.36986036687925
H           -5.16862452165449        0.41526595734319       -0.17759151888449
H            0.32152579067833       -2.40249808269253        0.10843822621657
H            0.98524182038817       -0.11157291068522        2.01967103746156
H            0.77562717265926       -1.85572565624175        2.38269403709980
H            3.42649671239583       -1.16821379136303       -0.94276364065386
H            2.98313918231008        1.22993589838048       -1.29109210736918
H            4.16354542142684        0.91618555221682        0.01743855236549
H            2.64560108643535        2.43040872550105        0.76084165289580
H            0.15486923965424        1.19002575094815       -0.10221360488866
H           -2.04855907712144        2.36367460407370       -0.35953108896340

 Bond Distances (Angstroems)
 ---------------------------
N1-C2=1.3462         N1-H16=1.0027        N1-H17=1.0045        C2-N1=1.3462         C2-N3=1.3120         C2-C14=1.4264        
N3-C2=1.3120         N3-C4=1.3392         C4-N3=1.3392         C4-N5=1.4413         C4-O15=1.2086        N5-C4=1.4413         
N5-C6=1.4430         N5-C13=1.3461        C6-N5=1.4430         C6-C7=1.5305         C6-O10=1.4125        C6-H18=1.1020        
C7-C6=1.5305         C7-S8=1.8045         C7-H19=1.0911        C7-H20=1.0858        S8-C7=1.8045         S8-C9=1.8305         
C9-S8=1.8305         C9-O10=1.3960        C9-C11=1.5336        C9-H21=1.0967        O10-C6=1.4125        O10-C9=1.3960        
C11-C9=1.5336        C11-O12=1.4091       C11-H22=1.1001       C11-H23=1.0965       O12-C11=1.4091       O12-H24=0.9624       
C13-N5=1.3461        C13-C14=1.3552       C13-H25=1.0808       C14-C2=1.4264        C14-C13=1.3552       C14-H26=1.0761       
O15-C4=1.2086        H16-N1=1.0027        H17-N1=1.0045        H18-C6=1.1020        H19-C7=1.0911        H20-C7=1.0858        
H21-C9=1.0967        H22-C11=1.1001       H23-C11=1.0965       H24-O12=0.9624       H25-C13=1.0808       H26-C14=1.0761       
 C  H  Rav=1.0911 sigma=0.0088  Rmin=1.0761  Rmax=1.1020     8
 C  C  Rav=1.4614 sigma=0.0750  Rmin=1.3552  Rmax=1.5336     4
 N  H  Rav=1.0036 sigma=0.0009  Rmin=1.0027  Rmax=1.0045     2
 N  C  Rav=1.3713 sigma=0.0514  Rmin=1.3120  Rmax=1.4430     6
 O  H  Rav=0.9624 sigma=0.0000  Rmin=0.9624  Rmax=0.9624     1
 O  C  Rav=1.3566 sigma=0.0856  Rmin=1.2086  Rmax=1.4125     4
 S  C  Rav=1.8175 sigma=0.0130  Rmin=1.8045  Rmax=1.8305     2

 selected bond angles (degree)
 --------------------
H16-N1-C2=121.24               H17-N1-C2=117.67               H17-N1-H16=120.17              N3-C2-N1=116.96                
C14-C2-N1=120.65               C14-C2-N3=122.38               C4-N3-C2=122.26                N5-C4-N3=116.46                
O15-C4-N3=125.14               O15-C4-N5=118.40               C6-N5-C4=117.66                C13-N5-C4=121.30               
C13-N5-C6=121.03               C7-C6-N5=111.35                O10-C6-N5=110.13               O10-C6-C7=109.84               
H18-C6-N5=105.91               H18-C6-C7=110.24               H18-C6-O10=109.28              S8-C7-C6=103.64                
H19-C7-C6=111.04               H19-C7-S8=109.03               H20-C7-C6=111.86               H20-C7-S8=110.02               
H20-C7-H19=110.98              C9-S8-C7= 89.15                O10-C9-S8=108.23               C11-C9-S8=111.34               
C11-C9-O10=112.87              H21-C9-S8=107.40               H21-C9-O10=108.78              H21-C9-C11=108.05              
C9-O10-C6=115.05               

 selected dihedral angles (degree)
 ---------------------------------
N3-C2-N1-H16=173.02           N3-C2-N1-H17=  4.00           C14-C2-N1-H16=352.26          C14-C2-N1-H17=183.23          
C4-N3-C2-N1=178.57            C4-N3-C2-C14=359.35           N5-C4-N3-C2=358.06            O15-C4-N3-C2=177.38           
C6-N5-C4-N3=182.63            C6-N5-C4-O15=  3.26           C13-N5-C4-N3=  3.35           C13-N5-C4-O15=183.99          
C7-C6-N5-C4=259.15            C7-C6-N5-C13= 78.42           O10-C6-N5-C4=137.04           O10-C6-N5-C13=316.32          
H18-C6-N5-C4= 19.00           H18-C6-N5-C13=198.27          S8-C7-C6-N5=203.96            S8-C7-C6-O10=326.23           
S8-C7-C6-H18= 86.71           H19-C7-C6-N5=320.89           H19-C7-C6-O10= 83.16          H19-C7-C6-H18=203.63          
H20-C7-C6-N5= 85.47           H20-C7-C6-O10=207.74          H20-C7-C6-H18=328.22          C9-S8-C7-C6= 33.87            
C9-S8-C7-H19=275.55           C9-S8-C7-H20=153.63           O10-C9-S8-C7=332.09           C11-C9-S8-C7= 96.70           
H21-C9-S8-C7=214.80           C9-O10-C6-N5=137.24           C9-O10-C6-C7= 14.25           C9-O10-C6-H18=253.19          
C6-O10-C9-S8= 12.29           C6-O10-C9-C11=248.59          C6-O10-C9-H21=128.69          
           -------------------------------------------------
          |                Final Singlepoint                |
           -------------------------------------------------

          ...................................................
          :                      SETUP                      :
          :.................................................:
          :  # basis functions                  77          :
          :  # atomic orbitals                  76          :
          :  # shells                           42          :
          :  # electrons                        82          :
          :  max. iterations                   250          :
          :  Hamiltonian                  GFN2-xTB          :
          :  restarted?                      false          :
          :  GBSA solvation                  false          :
          :  PC potential                    false          :
          :  electronic temp.          300.0000000     K    :
          :  accuracy                    1.0000000          :
          :  -> integral cutoff          0.2500000E+02      :
          :  -> integral neglect         0.1000000E-07      :
          :  -> SCF convergence          0.1000000E-05 Eh   :
          :  -> wf. convergence          0.1000000E-03 e    :
          :  Broyden damping             0.4000000          :
          :  net charge                          0          :
          :  unpaired electrons                  0          :
          ...................................................

 iter      E             dE          RMSdq      gap      omega  full diag
   1    -47.4676721 -0.474677E+02  0.872E-05    3.05       0.0  T
   2    -47.4676721 -0.237037E-10  0.487E-05    3.05     402.4  T
   3    -47.4676721 -0.397193E-11  0.306E-05    3.05     640.3  T

   *** convergence criteria satisfied after 3 iterations ***

         #    Occupation            Energy/Eh            Energy/eV
      -------------------------------------------------------------
         1        2.0000           -0.7360626             -20.0293
       ...           ...                  ...                  ...
        35        2.0000           -0.4405845             -11.9889
        36        2.0000           -0.4282451             -11.6531
        37        2.0000           -0.4060045             -11.0479
        38        2.0000           -0.3993582             -10.8671
        39        2.0000           -0.3900305             -10.6133
        40        2.0000           -0.3757285             -10.2241
        41        2.0000           -0.3716770             -10.1138 (HOMO)
        42                         -0.2597266              -7.0675 (LUMO)
        43                         -0.2302385              -6.2651
        44                         -0.2110455              -5.7428
        45                         -0.1398409              -3.8053
        46                         -0.1144374              -3.1140
       ...                                ...                  ...
        76                          0.6832003              18.5908
      -------------------------------------------------------------
                  HL-Gap            0.1119504 Eh            3.0463 eV
             Fermi-level           -0.3157018 Eh           -8.5907 eV

 SCC (total)                   0 d,  0 h,  0 min,  0.020 sec
 SCC setup                      ...        0 min,  0.000 sec (  0.748%)
 Dispersion                     ...        0 min,  0.000 sec (  0.603%)
 classical contributions        ...        0 min,  0.000 sec (  0.284%)
 integral evaluation            ...        0 min,  0.004 sec ( 21.126%)
 iterations                     ...        0 min,  0.004 sec ( 18.190%)
 molecular gradient             ...        0 min,  0.012 sec ( 58.462%)
 printout                       ...        0 min,  0.000 sec (  0.555%)

         :::::::::::::::::::::::::::::::::::::::::::::::::::::
         ::                     SUMMARY                     ::
         :::::::::::::::::::::::::::::::::::::::::::::::::::::
         :: total energy             -46.979274284081 Eh    ::
         :: gradient norm              0.000963454098 Eh/a0 ::
         :: HOMO-LUMO gap              3.046325500098 eV    ::
         ::.................................................::
         :: SCC energy               -47.467565324978 Eh    ::
         :: -> isotropic ES            0.105318663084 Eh    ::
         :: -> anisotropic ES          0.001369725766 Eh    ::
         :: -> anisotropic XC          0.013238594972 Eh    ::
         :: -> dispersion             -0.026857947779 Eh    ::
         :: repulsion energy           0.488291040897 Eh    ::
         :: add. restraining           0.000000000000 Eh    ::
         :: total charge               0.000000000000 e     ::
         :::::::::::::::::::::::::::::::::::::::::::::::::::::

           -------------------------------------------------
          |                Property Printout                |
           -------------------------------------------------

    * Orbital Energies and Occupations

         #    Occupation            Energy/Eh            Energy/eV
      -------------------------------------------------------------
         1        2.0000           -0.7360626             -20.0293
       ...           ...                  ...                  ...
        29        2.0000           -0.4949036             -13.4670
        30        2.0000           -0.4870469             -13.2532
        31        2.0000           -0.4837981             -13.1648
        32        2.0000           -0.4820310             -13.1167
        33        2.0000           -0.4735018             -12.8846
        34        2.0000           -0.4650142             -12.6537
        35        2.0000           -0.4405845             -11.9889
        36        2.0000           -0.4282451             -11.6531
        37        2.0000           -0.4060045             -11.0479
        38        2.0000           -0.3993582             -10.8671
        39        2.0000           -0.3900305             -10.6133
        40        2.0000           -0.3757285             -10.2241
        41        2.0000           -0.3716770             -10.1138 (HOMO)
        42                         -0.2597266              -7.0675 (LUMO)
        43                         -0.2302385              -6.2651
        44                         -0.2110455              -5.7428
        45                         -0.1398409              -3.8053
        46                         -0.1144374              -3.1140
        47                         -0.0402035              -1.0940
        48                         -0.0206879              -0.5629
        49                         -0.0172219              -0.4686
        50                         -0.0028595              -0.0778
        51                          0.0054277               0.1477
        52                          0.0152247               0.4143
       ...                                ...                  ...
        76                          0.6832003              18.5908
      -------------------------------------------------------------
                  HL-Gap            0.1119504 Eh            3.0463 eV
             Fermi-level           -0.3157018 Eh           -8.5907 eV

     #   Z          covCN         q      C6AA      α(0)
     1   7 N        2.654    -0.240    26.264     7.611
     2   6 C        2.868     0.185    24.043     8.038
     3   7 N        1.851    -0.313    28.955     7.975
     4   6 C        2.734     0.336    21.295     7.555
     5   7 N        2.747    -0.099    23.173     7.150
     6   6 C        3.810     0.190    17.591     5.970
     7   6 C        3.799    -0.018    20.899     6.509
     8  16 S        2.096    -0.172   148.320    20.498
     9   6 C        3.744     0.157    18.127     6.074
    10   8 O        1.719    -0.313    19.211     5.918
    11   6 C        3.699     0.079    19.415     6.301
    12   8 O        1.656    -0.430    21.443     6.251
    13   6 C        2.864     0.049    26.903     8.502
    14   6 C        2.911    -0.100    30.510     9.057
    15   8 O        0.859    -0.445    22.591     6.373
    16   1 H        0.861     0.183     1.197     1.714
    17   1 H        0.860     0.202     1.098     1.641
    18   1 H        0.923     0.076     2.024     2.225
    19   1 H        0.925     0.067     2.119     2.277
    20   1 H        0.925     0.070     2.091     2.261
    21   1 H        0.924     0.047     2.352     2.399
    22   1 H        0.923     0.035     2.519     2.482
    23   1 H        0.924     0.034     2.533     2.489
    24   1 H        0.805     0.296     0.734     1.346
    25   1 H        0.926     0.080     1.977     2.199
    26   1 H        0.926     0.044     2.399     2.422

 Mol. C6AA /au·bohr⁶  :       8766.625465
 Mol. C8AA /au·bohr⁸  :     222990.379870
 Mol. α(0) /au        :        143.236236


Wiberg/Mayer (AO) data.
largest (>0.10) Wiberg bond orders for each atom

 ---------------------------------------------------------------------------
     #   Z sym  total        # sym  WBO       # sym  WBO       # sym  WBO
 ---------------------------------------------------------------------------
     1   7 N    3.378 --     2 C    1.262    16 H    0.949    17 H    0.940
                             3 N    0.104
     2   6 C    3.966 --     3 N    1.423     1 N    1.262    14 C    1.176
     3   7 N    3.049 --     2 C    1.423     4 C    1.237    15 O    0.119
                             1 N    0.104
     4   6 C    3.950 --    15 O    1.654     3 N    1.237     5 N    0.971
     5   7 N    3.579 --    13 C    1.266     6 C    0.976     4 C    0.971
                            15 O    0.123
     6   6 C    3.931 --     5 N    0.976     7 C    0.975    10 O    0.962
                            18 H    0.944
     7   6 C    3.977 --     8 S    1.001     6 C    0.975    20 H    0.973
                            19 H    0.971
     8  16 S    2.077 --     7 C    1.001     9 C    0.952
     9   6 C    3.945 --    10 O    0.998    11 C    0.984    21 H    0.958
                             8 S    0.952
    10   8 O    2.111 --     9 C    0.998     6 C    0.962
    11   6 C    3.961 --    12 O    1.001     9 C    0.984    23 H    0.971
                            22 H    0.963
    12   8 O    1.967 --    11 C    1.001    24 H    0.898
    13   6 C    3.963 --    14 C    1.597     5 N    1.266    25 H    0.950
    14   6 C    3.972 --    13 C    1.597     2 C    1.176    26 H    0.967
    15   8 O    2.008 --     4 C    1.654     5 N    0.123     3 N    0.119
    16   1 H    0.966 --     1 N    0.949
    17   1 H    0.959 --     1 N    0.940
    18   1 H    0.994 --     6 C    0.944
    19   1 H    0.995 --     7 C    0.971
    20   1 H    0.995 --     7 C    0.973
    21   1 H    0.997 --     9 C    0.958
    22   1 H    0.999 --    11 C    0.963
    23   1 H    0.999 --    11 C    0.971
    24   1 H    0.913 --    12 O    0.898
    25   1 H    0.993 --    13 C    0.950
    26   1 H    0.998 --    14 C    0.967
 ---------------------------------------------------------------------------

Topologies differ in total number of bonds
Writing topology from bond orders to xtbtopo.mol

molecular dipole:
                 x           y           z       tot (Debye)
 q only:        0.078       2.627      -0.278
   full:        0.224       3.377      -0.526       8.705
molecular quadrupole (traceless):
                xx          xy          yy          xz          yz          zz
 q only:       15.343     -11.222      -9.197       0.094       1.706      -6.146
  q+dip:       12.442     -10.474      -6.195      -2.633       3.563      -6.246
   full:       12.411     -10.813      -8.195      -3.231       3.650      -4.216

           -------------------------------------------------
          |                Geometry Summary                 |
           -------------------------------------------------

      molecular mass/u    :      229.2563472
   center of mass at/Å    :        0.0371227      -0.3995897       0.3059408
  moments of inertia/u·Å² :        0.4398395E+03   0.1493539E+04   0.1776478E+04
rotational constants/cm⁻¹ :        0.3832678E-01   0.1128704E-01   0.9489358E-02

 * 24 selected distances

     #   Z          #   Z                                           value/Å
     1   7 N        2   6 C                                       1.3461503
     2   6 C        3   7 N                                       1.3119621
     3   7 N        4   6 C                                       1.3391902
     5   7 N        6   6 C                                       1.4430200
     6   6 C        7   6 C                                       1.5305268
     6   6 C       10   8 O                                       1.4124538
     9   6 C       10   8 O                                       1.3960279
     9   6 C       11   6 C                                       1.5335749 (max)
    11   6 C       12   8 O                                       1.4091150
     5   7 N       13   6 C                                       1.3461427
     2   6 C       14   6 C                                       1.4263892
    13   6 C       14   6 C                                       1.3552488
     4   6 C       15   8 O                                       1.2086377
     1   7 N       16   1 H                                       1.0027052
     1   7 N       17   1 H                                       1.0044621
     6   6 C       18   1 H                                       1.1020459
     7   6 C       19   1 H                                       1.0911144
     7   6 C       20   1 H                                       1.0857885
     9   6 C       21   1 H                                       1.0967426
    11   6 C       22   1 H                                       1.1000509
    11   6 C       23   1 H                                       1.0965219
    12   8 O       24   1 H                                       0.9624078 (min)
    13   6 C       25   1 H                                       1.0807701
    14   6 C       26   1 H                                       1.0760878

 * 6 distinct bonds (by element types)

   Z      Z             #   av. dist./Å        max./Å        min./Å
   1 H    6 C           8     1.0911402     1.1020459     1.0760878
   6 C    6 C           4     1.4614349     1.5335749     1.3552488
   1 H    7 N           2     1.0035837     1.0044621     1.0027052
   6 C    7 N           5     1.3572931     1.4430200     1.3119621
   1 H    8 O           1     0.9624078     0.9624078     0.9624078
   6 C    8 O           4     1.3565586     1.4124538     1.2086377


optimized geometry written to: xtbopt.xyz


           -------------------------------------------------
          | TOTAL ENERGY              -46.979274284081 Eh   |
          | GRADIENT NORM               0.000963454098 Eh/α |
          | HOMO-LUMO GAP               3.046325500098 eV   |
           -------------------------------------------------

------------------------------------------------------------------------
 * finished run on 2025/05/15 at 16:11:53.580     
------------------------------------------------------------------------
 total:
 * wall-time:     0 d,  0 h,  0 min,  0.852 sec
 *  cpu-time:     0 d,  0 h,  0 min,  0.564 sec
 * ratio c/w:     0.662 speedup
 SCF:
 * wall-time:     0 d,  0 h,  0 min,  0.054 sec
 *  cpu-time:     0 d,  0 h,  0 min,  0.030 sec
 * ratio c/w:     0.551 speedup
 ANC optimizer:
 * wall-time:     0 d,  0 h,  0 min,  0.757 sec
 *  cpu-time:     0 d,  0 h,  0 min,  0.525 sec
 * ratio c/w:     0.694 speedup



----- Single-point -----
      -----------------------------------------------------------      
     |                   =====================                   |     
     |                           x T B                           |     
     |                   =====================                   |     
     |                         S. Grimme                         |     
     |          Mulliken Center for Theoretical Chemistry        |     
     |                    University of Bonn                     |     
      -----------------------------------------------------------      

   * xtb version 6.7.1 (edcfbbe) compiled by 'conda@3ef47c1a292c' on 2024-11-25

   xtb is free software: you can redistribute it and/or modify it under
   the terms of the GNU Lesser General Public License as published by
   the Free Software Foundation, either version 3 of the License, or
   (at your option) any later version.
   
   xtb is distributed in the hope that it will be useful,
   but WITHOUT ANY WARRANTY; without even the implied warranty of
   MERCHANTABILITY or FITNESS FOR A PARTICULAR PURPOSE.  See the
   GNU Lesser General Public License for more details.
   
   Cite this work as:
   * C. Bannwarth, E. Caldeweyher, S. Ehlert, A. Hansen, P. Pracht,
     J. Seibert, S. Spicher, S. Grimme, WIREs Comput. Mol. Sci., 2020, 11,
     e01493. DOI: 10.1002/wcms.1493
   
   for GFN2-xTB:
   * C. Bannwarth, S. Ehlert and S. Grimme., J. Chem. Theory Comput., 2019,
     15, 1652-1671. DOI: 10.1021/acs.jctc.8b01176
   for GFN1-xTB:
   * S. Grimme, C. Bannwarth, P. Shushkov, J. Chem. Theory Comput., 2017,
     13, 1989-2009. DOI: 10.1021/acs.jctc.7b00118
   for GFN0-xTB:
   * P. Pracht, E. Caldeweyher, S. Ehlert, S. Grimme, ChemRxiv, 2019, preprint.
     DOI: 10.26434/chemrxiv.8326202.v1
   for GFN-FF:
   * S. Spicher and S. Grimme, Angew. Chem. Int. Ed., 2020, 59, 15665-15673.
     DOI: 10.1002/anie.202004239
   
   for ALPB and GBSA implicit solvation:
   * S. Ehlert, M. Stahn, S. Spicher, S. Grimme, J. Chem. Theory Comput.,
     2021, 17, 4250-4261. DOI: 10.1021/acs.jctc.1c00471
   
   for ddCOSMO and CPCM-X implicit solvation:
   * M. Stahn, S. Ehlert, S. Grimme, J. Phys. Chem. A,
     2023, XX, XXXX-XXXX. DOI: 10.1021/acs.jpca.3c04382
   
   for DFT-D4:
   * E. Caldeweyher, C. Bannwarth and S. Grimme, J. Chem. Phys., 2017,
     147, 034112. DOI: 10.1063/1.4993215
   * E. Caldeweyher, S. Ehlert, A. Hansen, H. Neugebauer, S. Spicher,
     C. Bannwarth and S. Grimme, J. Chem. Phys., 2019, 150, 154122.
     DOI: 10.1063/1.5090222
   * E. Caldeweyher, J.-M. Mewes, S. Ehlert and S. Grimme, Phys. Chem. Chem. Phys.
     2020, 22, 8499-8512. DOI: 10.1039/D0CP00502A
   
   for sTDA-xTB:
   * S. Grimme and C. Bannwarth, J. Chem. Phys., 2016, 145, 054103.
     DOI: 10.1063/1.4959605
   
   in the mass-spec context:
   * V. Asgeirsson, C. Bauer and S. Grimme, Chem. Sci., 2017, 8, 4879.
     DOI: 10.1039/c7sc00601b
   * J. Koopman and S. Grimme, ACS Omega 2019, 4, 12, 15120-15133.
     DOI: 10.1021/acsomega.9b02011
   
   for metadynamics refer to:
   * S. Grimme, J. Chem. Theory Comput., 2019, 155, 2847-2862
     DOI: 10.1021/acs.jctc.9b00143
   
   for SPH calculations refer to:
   * S. Spicher and S. Grimme, J. Chem. Theory Comput., 2021, 17, 1701-1714
     DOI: 10.1021/acs.jctc.0c01306
   
   for ONIOM refer to:
   * C. Plett, A. Katbashev, S. Ehlert, S. Grimme, M. Bursch,
     Phys. Chem. Chem. Phys., 2023, 25, 17860-17868. DOI: 10.1039/D3CP02178E
   
   for DIPRO refer to:
   * J. Kohn, N. Gildemeister, S. Grimme, D. Fazzi, A. Hansen,
     J. Chem. Phys., 2023, just accepted.
   
   for PTB refer to:
   * S. Grimme, M. Mueller, A. Hansen, J. Chem. Phys., 2023, 158, 124111.
     DOI: 10.1063/5.0137838
   
   with help from (in alphabetical order)
   P. Atkinson, C. Bannwarth, F. Bohle, G. Brandenburg, E. Caldeweyher
   M. Checinski, S. Dohm, S. Ehlert, S. Ehrlich, I. Gerasimov, C. Hölzer
   A. Katbashev, J. Kohn, J. Koopman, C. Lavigne, S. Lehtola, F. März, M. Müller,
   F. Musil, H. Neugebauer, J. Pisarek, C. Plett, P. Pracht, F. Pultar,
   J. Seibert, P. Shushkov, S. Spicher, M. Stahn, M. Steiner, T. Strunk,
   J. Stückrath, T. Rose, and J. Unsleber
   
 * started run on 2025/05/15 at 16:11:53.595     
   ID    Z sym.   atoms
    1    7 N      1, 3, 5
    2    6 C      2, 4, 6, 7, 9, 11, 13, 14
    3   16 S      8
    4    8 O      10, 12, 15
    5    1 H      16-26

           -------------------------------------------------
          |                Calculation Setup                |
           -------------------------------------------------

          program call               : xtb /rds/general/user/hgt20/home/callum/QDESCP/Lamivudine_rdkit_conf_5/Lamivudine_rdkit_conf_5.xyz --acc 1 --gfn 2 --chrg 0 --uhf 0 --etemp 300 --input /rds/general/user/hgt20/home/callum/QDESCP/Lamivudine_rdkit_conf_5/Lamivudine_rdkit_conf_5_xtb.inp -P 1
          hostname                   : login-c
          coordinate file            : /rds/general/user/hgt20/home/callum/QDESCP/Lamivudine_rdkit_conf_5/Lamivudine_rdkit_conf_5.xyz
          omp threads                :                     1


           -------------------------------------------------
          |                 G F N 2 - x T B                 |
           -------------------------------------------------

        Reference                      10.1021/acs.jctc.8b01176
      * Hamiltonian:
        H0-scaling (s, p, d)           1.850000    2.230000    2.230000
        zeta-weighting                 0.500000
      * Dispersion:
        s8                             2.700000
        a1                             0.520000
        a2                             5.000000
        s9                             5.000000
      * Repulsion:
        kExp                           1.500000    1.000000
        rExp                           1.000000
      * Coulomb:
        alpha                          2.000000
        third order                    shell-resolved
        anisotropic                    true
        a3                             3.000000
        a5                             4.000000
        cn-shift                       1.200000
        cn-exp                         4.000000
        max-rad                        5.000000

q/qsh data taken from xtbrestart
CAMM data taken from xtbrestart

          ...................................................
          :                      SETUP                      :
          :.................................................:
          :  # basis functions                  77          :
          :  # atomic orbitals                  76          :
          :  # shells                           42          :
          :  # electrons                        82          :
          :  max. iterations                   250          :
          :  Hamiltonian                  GFN2-xTB          :
          :  restarted?                       true          :
          :  GBSA solvation                  false          :
          :  PC potential                    false          :
          :  electronic temp.          300.0000000     K    :
          :  accuracy                    1.0000000          :
          :  -> integral cutoff          0.2500000E+02      :
          :  -> integral neglect         0.1000000E-07      :
          :  -> SCF convergence          0.1000000E-05 Eh   :
          :  -> wf. convergence          0.1000000E-03 e    :
          :  Broyden damping             0.4000000          :
          :  net charge                          0          :
          :  unpaired electrons                  0          :
          ...................................................

 iter      E             dE          RMSdq      gap      omega  full diag
   1    -47.4676721 -0.474677E+02  0.665E-06    3.05       0.0  T
   2    -47.4676721 -0.241585E-12  0.457E-06    3.05    4293.2  T
   3    -47.4676721 -0.326850E-12  0.231E-06    3.05    8486.3  T

   *** convergence criteria satisfied after 3 iterations ***

         #    Occupation            Energy/Eh            Energy/eV
      -------------------------------------------------------------
         1        2.0000           -0.7360626             -20.0293
       ...           ...                  ...                  ...
        35        2.0000           -0.4405846             -11.9889
        36        2.0000           -0.4282451             -11.6531
        37        2.0000           -0.4060045             -11.0479
        38        2.0000           -0.3993581             -10.8671
        39        2.0000           -0.3900304             -10.6133
        40        2.0000           -0.3757284             -10.2241
        41        2.0000           -0.3716770             -10.1138 (HOMO)
        42                         -0.2597267              -7.0675 (LUMO)
        43                         -0.2302385              -6.2651
        44                         -0.2110455              -5.7428
        45                         -0.1398410              -3.8053
        46                         -0.1144373              -3.1140
       ...                                ...                  ...
        76                          0.6832004              18.5908
      -------------------------------------------------------------
                  HL-Gap            0.1119504 Eh            3.0463 eV
             Fermi-level           -0.3157019 Eh           -8.5907 eV

 SCC (total)                   0 d,  0 h,  0 min,  0.021 sec
 SCC setup                      ...        0 min,  0.000 sec (  1.067%)
 Dispersion                     ...        0 min,  0.000 sec (  0.906%)
 classical contributions        ...        0 min,  0.000 sec (  0.306%)
 integral evaluation            ...        0 min,  0.004 sec ( 20.995%)
 iterations                     ...        0 min,  0.004 sec ( 20.989%)
 molecular gradient             ...        0 min,  0.011 sec ( 55.081%)
 printout                       ...        0 min,  0.000 sec (  0.626%)

         :::::::::::::::::::::::::::::::::::::::::::::::::::::
         ::                     SUMMARY                     ::
         :::::::::::::::::::::::::::::::::::::::::::::::::::::
         :: total energy             -46.979274284084 Eh    ::
         :: gradient norm              0.000963465759 Eh/a0 ::
         :: HOMO-LUMO gap              3.046324348153 eV    ::
         ::.................................................::
         :: SCC energy               -47.467565324981 Eh    ::
         :: -> isotropic ES            0.105318525204 Eh    ::
         :: -> anisotropic ES          0.001369725829 Eh    ::
         :: -> anisotropic XC          0.013238595130 Eh    ::
         :: -> dispersion             -0.026857947829 Eh    ::
         :: repulsion energy           0.488291040897 Eh    ::
         :: add. restraining           0.000000000000 Eh    ::
         :: total charge              -0.000000000000 e     ::
         :::::::::::::::::::::::::::::::::::::::::::::::::::::

           -------------------------------------------------
          |                Property Printout                |
           -------------------------------------------------

    * Orbital Energies and Occupations

         #    Occupation            Energy/Eh            Energy/eV
      -------------------------------------------------------------
         1        2.0000           -0.7360626             -20.0293
       ...           ...                  ...                  ...
        29        2.0000           -0.4949036             -13.4670
        30        2.0000           -0.4870469             -13.2532
        31        2.0000           -0.4837981             -13.1648
        32        2.0000           -0.4820310             -13.1167
        33        2.0000           -0.4735018             -12.8846
        34        2.0000           -0.4650142             -12.6537
        35        2.0000           -0.4405846             -11.9889
        36        2.0000           -0.4282451             -11.6531
        37        2.0000           -0.4060045             -11.0479
        38        2.0000           -0.3993581             -10.8671
        39        2.0000           -0.3900304             -10.6133
        40        2.0000           -0.3757284             -10.2241
        41        2.0000           -0.3716770             -10.1138 (HOMO)
        42                         -0.2597267              -7.0675 (LUMO)
        43                         -0.2302385              -6.2651
        44                         -0.2110455              -5.7428
        45                         -0.1398410              -3.8053
        46                         -0.1144373              -3.1140
        47                         -0.0402035              -1.0940
        48                         -0.0206879              -0.5629
        49                         -0.0172219              -0.4686
        50                         -0.0028596              -0.0778
        51                          0.0054277               0.1477
        52                          0.0152246               0.4143
       ...                                ...                  ...
        76                          0.6832004              18.5908
      -------------------------------------------------------------
                  HL-Gap            0.1119504 Eh            3.0463 eV
             Fermi-level           -0.3157019 Eh           -8.5907 eV

     #   Z          covCN         q      C6AA      α(0)
     1   7 N        2.654    -0.240    26.264     7.611
     2   6 C        2.868     0.185    24.043     8.038
     3   7 N        1.851    -0.313    28.955     7.975
     4   6 C        2.734     0.336    21.295     7.555
     5   7 N        2.747    -0.099    23.173     7.150
     6   6 C        3.810     0.190    17.591     5.970
     7   6 C        3.799    -0.018    20.899     6.509
     8  16 S        2.096    -0.172   148.320    20.498
     9   6 C        3.744     0.157    18.127     6.074
    10   8 O        1.719    -0.313    19.211     5.918
    11   6 C        3.699     0.079    19.415     6.301
    12   8 O        1.656    -0.430    21.443     6.251
    13   6 C        2.864     0.049    26.903     8.502
    14   6 C        2.911    -0.100    30.510     9.057
    15   8 O        0.859    -0.445    22.591     6.373
    16   1 H        0.861     0.183     1.197     1.714
    17   1 H        0.860     0.202     1.098     1.641
    18   1 H        0.923     0.076     2.024     2.225
    19   1 H        0.925     0.067     2.119     2.277
    20   1 H        0.925     0.070     2.091     2.261
    21   1 H        0.924     0.047     2.352     2.399
    22   1 H        0.923     0.035     2.519     2.482
    23   1 H        0.924     0.034     2.533     2.489
    24   1 H        0.805     0.296     0.734     1.346
    25   1 H        0.926     0.080     1.977     2.199
    26   1 H        0.926     0.044     2.399     2.422

 Mol. C6AA /au·bohr⁶  :       8766.625500
 Mol. C8AA /au·bohr⁸  :     222990.379438
 Mol. α(0) /au        :        143.236236


Wiberg/Mayer (AO) data.
largest (>0.10) Wiberg bond orders for each atom

 ---------------------------------------------------------------------------
     #   Z sym  total        # sym  WBO       # sym  WBO       # sym  WBO
 ---------------------------------------------------------------------------
     1   7 N    3.378 --     2 C    1.262    16 H    0.949    17 H    0.940
                             3 N    0.104
     2   6 C    3.966 --     3 N    1.423     1 N    1.262    14 C    1.176
     3   7 N    3.049 --     2 C    1.423     4 C    1.237    15 O    0.119
                             1 N    0.104
     4   6 C    3.950 --    15 O    1.654     3 N    1.237     5 N    0.971
     5   7 N    3.579 --    13 C    1.266     6 C    0.976     4 C    0.971
                            15 O    0.123
     6   6 C    3.931 --     5 N    0.976     7 C    0.975    10 O    0.962
                            18 H    0.944
     7   6 C    3.977 --     8 S    1.001     6 C    0.975    20 H    0.973
                            19 H    0.971
     8  16 S    2.077 --     7 C    1.001     9 C    0.952
     9   6 C    3.945 --    10 O    0.998    11 C    0.984    21 H    0.958
                             8 S    0.952
    10   8 O    2.111 --     9 C    0.998     6 C    0.962
    11   6 C    3.961 --    12 O    1.001     9 C    0.984    23 H    0.971
                            22 H    0.963
    12   8 O    1.967 --    11 C    1.001    24 H    0.898
    13   6 C    3.963 --    14 C    1.597     5 N    1.266    25 H    0.950
    14   6 C    3.972 --    13 C    1.597     2 C    1.176    26 H    0.967
    15   8 O    2.008 --     4 C    1.654     5 N    0.123     3 N    0.119
    16   1 H    0.966 --     1 N    0.949
    17   1 H    0.959 --     1 N    0.940
    18   1 H    0.994 --     6 C    0.944
    19   1 H    0.995 --     7 C    0.971
    20   1 H    0.995 --     7 C    0.973
    21   1 H    0.997 --     9 C    0.958
    22   1 H    0.999 --    11 C    0.963
    23   1 H    0.999 --    11 C    0.971
    24   1 H    0.913 --    12 O    0.898
    25   1 H    0.993 --    13 C    0.950
    26   1 H    0.998 --    14 C    0.967
 ---------------------------------------------------------------------------

Topologies differ in total number of bonds
Writing topology from bond orders to xtbtopo.mol

molecular dipole:
                 x           y           z       tot (Debye)
 q only:        0.078       2.627      -0.278
   full:        0.224       3.377      -0.526       8.705
molecular quadrupole (traceless):
                xx          xy          yy          xz          yz          zz
 q only:       15.343     -11.222      -9.197       0.094       1.706      -6.146
  q+dip:       12.442     -10.474      -6.195      -2.633       3.563      -6.246
   full:       12.411     -10.813      -8.195      -3.231       3.650      -4.216


           -------------------------------------------------
          | TOTAL ENERGY              -46.979274284084 Eh   |
          | GRADIENT NORM               0.000963465759 Eh/α |
          | HOMO-LUMO GAP               3.046324348153 eV   |
           -------------------------------------------------

[...]
     |          Mulliken Center for Theoretical Chemistry        |     
     |                    University of Bonn                     |     
      -----------------------------------------------------------      

   * xtb version 6.7.1 (edcfbbe) compiled by 'conda@3ef47c1a292c' on 2024-11-25

   xtb is free software: you can redistribute it and/or modify it under
   the terms of the GNU Lesser General Public License as published by
   the Free Software Foundation, either version 3 of the License, or
   (at your option) any later version.
   
   xtb is distributed in the hope that it will be useful,
   but WITHOUT ANY WARRANTY; without even the implied warranty of
   MERCHANTABILITY or FITNESS FOR A PARTICULAR PURPOSE.  See the
   GNU Lesser General Public License for more details.
   
   Cite this work as:
   * C. Bannwarth, E. Caldeweyher, S. Ehlert, A. Hansen, P. Pracht,
     J. Seibert, S. Spicher, S. Grimme, WIREs Comput. Mol. Sci., 2020, 11,
     e01493. DOI: 10.1002/wcms.1493
   
   for GFN2-xTB:
   * C. Bannwarth, S. Ehlert and S. Grimme., J. Chem. Theory Comput., 2019,
     15, 1652-1671. DOI: 10.1021/acs.jctc.8b01176
   for GFN1-xTB:
   * S. Grimme, C. Bannwarth, P. Shushkov, J. Chem. Theory Comput., 2017,
     13, 1989-2009. DOI: 10.1021/acs.jctc.7b00118
   for GFN0-xTB:
   * P. Pracht, E. Caldeweyher, S. Ehlert, S. Grimme, ChemRxiv, 2019, preprint.
     DOI: 10.26434/chemrxiv.8326202.v1
   for GFN-FF:
   * S. Spicher and S. Grimme, Angew. Chem. Int. Ed., 2020, 59, 15665-15673.
     DOI: 10.1002/anie.202004239
   
   for ALPB and GBSA implicit solvation:
   * S. Ehlert, M. Stahn, S. Spicher, S. Grimme, J. Chem. Theory Comput.,
     2021, 17, 4250-4261. DOI: 10.1021/acs.jctc.1c00471
   
   for ddCOSMO and CPCM-X implicit solvation:
   * M. Stahn, S. Ehlert, S. Grimme, J. Phys. Chem. A,
     2023, XX, XXXX-XXXX. DOI: 10.1021/acs.jpca.3c04382
   
   for DFT-D4:
   * E. Caldeweyher, C. Bannwarth and S. Grimme, J. Chem. Phys., 2017,
     147, 034112. DOI: 10.1063/1.4993215
   * E. Caldeweyher, S. Ehlert, A. Hansen, H. Neugebauer, S. Spicher,
     C. Bannwarth and S. Grimme, J. Chem. Phys., 2019, 150, 154122.
     DOI: 10.1063/1.5090222
   * E. Caldeweyher, J.-M. Mewes, S. Ehlert and S. Grimme, Phys. Chem. Chem. Phys.
     2020, 22, 8499-8512. DOI: 10.1039/D0CP00502A
   
   for sTDA-xTB:
   * S. Grimme and C. Bannwarth, J. Chem. Phys., 2016, 145, 054103.
     DOI: 10.1063/1.4959605
   
   in the mass-spec context:
   * V. Asgeirsson, C. Bauer and S. Grimme, Chem. Sci., 2017, 8, 4879.
     DOI: 10.1039/c7sc00601b
   * J. Koopman and S. Grimme, ACS Omega 2019, 4, 12, 15120-15133.
     DOI: 10.1021/acsomega.9b02011
   
   for metadynamics refer to:
   * S. Grimme, J. Chem. Theory Comput., 2019, 155, 2847-2862
     DOI: 10.1021/acs.jctc.9b00143
   
   for SPH calculations refer to:
   * S. Spicher and S. Grimme, J. Chem. Theory Comput., 2021, 17, 1701-1714
     DOI: 10.1021/acs.jctc.0c01306
   
   for ONIOM refer to:
   * C. Plett, A. Katbashev, S. Ehlert, S. Grimme, M. Bursch,
     Phys. Chem. Chem. Phys., 2023, 25, 17860-17868. DOI: 10.1039/D3CP02178E
   
   for DIPRO refer to:
   * J. Kohn, N. Gildemeister, S. Grimme, D. Fazzi, A. Hansen,
     J. Chem. Phys., 2023, just accepted.
   
   for PTB refer to:
   * S. Grimme, M. Mueller, A. Hansen, J. Chem. Phys., 2023, 158, 124111.
     DOI: 10.1063/5.0137838
   
   with help from (in alphabetical order)
   P. Atkinson, C. Bannwarth, F. Bohle, G. Brandenburg, E. Caldeweyher
   M. Checinski, S. Dohm, S. Ehlert, S. Ehrlich, I. Gerasimov, C. Hölzer
   A. Katbashev, J. Kohn, J. Koopman, C. Lavigne, S. Lehtola, F. März, M. Müller,
   F. Musil, H. Neugebauer, J. Pisarek, C. Plett, P. Pracht, F. Pultar,
   J. Seibert, P. Shushkov, S. Spicher, M. Stahn, M. Steiner, T. Strunk,
   J. Stückrath, T. Rose, and J. Unsleber
   
 * started run on 2025/05/15 at 16:11:54.811     
   ID    Z sym.   atoms
    1    7 N      1, 3, 5
    2    6 C      2, 4, 6, 7, 9, 11, 13, 14
    3   16 S      8
    4    8 O      10, 12, 15
    5    1 H      16-26

           -------------------------------------------------
          |                Calculation Setup                |
           -------------------------------------------------

          program call               : xtb /rds/general/user/hgt20/home/callum/QDESCP/Lamivudine_rdkit_conf_5/Lamivudine_rdkit_conf_5.xyz --acc 1 --gfn 2 --chrg 0 --uhf 2 --etemp 300 --input /rds/general/user/hgt20/home/callum/QDESCP/Lamivudine_rdkit_conf_5/Lamivudine_rdkit_conf_5_xtb.inp -P 1
          hostname                   : login-c
          coordinate file            : /rds/general/user/hgt20/home/callum/QDESCP/Lamivudine_rdkit_conf_5/Lamivudine_rdkit_conf_5.xyz
          omp threads                :                     1


           -------------------------------------------------
          |                 G F N 2 - x T B                 |
           -------------------------------------------------

        Reference                      10.1021/acs.jctc.8b01176
      * Hamiltonian:
        H0-scaling (s, p, d)           1.850000    2.230000    2.230000
        zeta-weighting                 0.500000
      * Dispersion:
        s8                             2.700000
        a1                             0.520000
        a2                             5.000000
        s9                             5.000000
      * Repulsion:
        kExp                           1.500000    1.000000
        rExp                           1.000000
      * Coulomb:
        alpha                          2.000000
        third order                    shell-resolved
        anisotropic                    true
        a3                             3.000000
        a5                             4.000000
        cn-shift                       1.200000
        cn-exp                         4.000000
        max-rad                        5.000000


          ...................................................
          :                      SETUP                      :
          :.................................................:
          :  # basis functions                  77          :
          :  # atomic orbitals                  76          :
          :  # shells                           42          :
          :  # electrons                        82          :
          :  max. iterations                   250          :
          :  Hamiltonian                  GFN2-xTB          :
          :  restarted?                      false          :
          :  GBSA solvation                  false          :
          :  PC potential                    false          :
          :  electronic temp.          300.0000000     K    :
          :  accuracy                    1.0000000          :
          :  -> integral cutoff          0.2500000E+02      :
          :  -> integral neglect         0.1000000E-07      :
          :  -> SCF convergence          0.1000000E-05 Eh   :
          :  -> wf. convergence          0.1000000E-03 e    :
          :  Broyden damping             0.4000000          :
          :  net charge                          0          :
          :  unpaired electrons                  2          :
          ...................................................

 iter      E             dE          RMSdq      gap      omega  full diag
   1    -47.0975687 -0.470976E+02  0.520E+00    0.34       0.0  T
   2    -47.1314360 -0.338673E-01  0.375E+00    1.35       1.0  T
   3    -47.0002454  0.131191E+00  0.364E+00    1.31       1.0  T
   4    -47.2961258 -0.295880E+00  0.215E+00    0.71       1.0  T
   5    -47.2493172  0.468086E-01  0.185E+00    0.32       1.0  T
   6    -47.2179553  0.313619E-01  0.196E+00    0.31       1.0  T
   7    -47.1835848  0.343705E-01  0.263E+00    0.75       1.0  T
   8    -47.2643204 -0.807356E-01  0.175E+00    0.46       1.0  T
   9    -47.2547563  0.956411E-02  0.143E+00    0.33       1.0  T
  10    -47.3163988 -0.616425E-01  0.110E+00    0.34       1.0  T
  11    -47.3278481 -0.114493E-01  0.918E-01    0.36       1.0  T
  12    -47.3365053 -0.865721E-02  0.421E-01    0.38       1.0  T
  13    -47.3218696  0.146357E-01  0.793E-01    0.41       1.0  T
  14    -47.3354426 -0.135730E-01  0.476E-01    0.37       1.0  T
  15    -47.3374035 -0.196091E-02  0.105E-01    0.38       1.0  T
  16    -47.3366686  0.734882E-03  0.304E-01    0.37       1.0  T
  17    -47.3378228 -0.115419E-02  0.516E-02    0.37       1.0  T
  18    -47.3378243 -0.144719E-05  0.614E-02    0.37       1.0  T
  19    -47.3377222  0.102059E-03  0.921E-02    0.37       1.0  T
  20    -47.3378443 -0.122077E-03  0.102E-02    0.37       1.9  T
  21    -47.3378441  0.231753E-06  0.118E-02    0.37       1.7  T
  22    -47.3378472 -0.314545E-05  0.447E-03    0.37       4.4  T
  23    -47.3378474 -0.151726E-06  0.226E-03    0.37       8.7  T
  24    -47.3378474 -0.567583E-07  0.105E-03    0.37      18.7  T
  25    -47.3378474 -0.242324E-07  0.483E-05    0.37     406.3  T
  26    -47.3378474  0.254147E-09  0.132E-04    0.37     148.7  T

   *** convergence criteria satisfied after 26 iterations ***

         #    Occupation            Energy/Eh            Energy/eV
      -------------------------------------------------------------
         1        2.0000           -0.7378409             -20.0777
       ...           ...                  ...                  ...
        36        2.0000           -0.4279823             -11.6460
        37        2.0000           -0.4098066             -11.1514
        38        2.0000           -0.4010996             -10.9145
        39        1.9795           -0.3895257             -10.5995
        40        1.7199           -0.3867497             -10.5240
        41        1.3007           -0.3850511             -10.4778
        42        0.9992           -0.2450460              -6.6680 (HOMO)
        43        0.0008           -0.2314787              -6.2989 (LUMO)
        44                         -0.2088470              -5.6830
        45                         -0.1509047              -4.1063
        46                         -0.1081004              -2.9416
        47                         -0.0405465              -1.1033
       ...                                ...                  ...
        76                          0.6801165              18.5069
      -------------------------------------------------------------
                  HL-Gap            0.0135673 Eh            0.3692 eV
             Fermi-level           -0.3120577 Eh           -8.4915 eV

 transition dipole moment (au) for excitation:          41          42
     X       Y       Z   
  -0.9492   0.1892  -0.1362  total (au/Debye):    0.977   2.485
 dE (eV)             :    3.810
 oscillator strength :  0.12611E+00

 SCC (total)                   0 d,  0 h,  0 min,  0.091 sec
 SCC setup                      ...        0 min,  0.000 sec (  0.221%)
 Dispersion                     ...        0 min,  0.000 sec (  0.217%)
 classical contributions        ...        0 min,  0.000 sec (  0.069%)
 integral evaluation            ...        0 min,  0.004 sec (  4.815%)
 iterations                     ...        0 min,  0.070 sec ( 76.696%)
 molecular gradient             ...        0 min,  0.012 sec ( 12.912%)
 printout                       ...        0 min,  0.005 sec (  5.064%)

         :::::::::::::::::::::::::::::::::::::::::::::::::::::
         ::                     SUMMARY                     ::
         :::::::::::::::::::::::::::::::::::::::::::::::::::::
         :: total energy             -46.849449590147 Eh    ::
         :: gradient norm              0.100264624455 Eh/a0 ::
         :: HOMO-LUMO gap              0.369183902576 eV    ::
         ::.................................................::
         :: SCC energy               -47.337740631044 Eh    ::
         :: -> isotropic ES            0.095688169270 Eh    ::
         :: -> anisotropic ES          0.000917733785 Eh    ::
         :: -> anisotropic XC          0.006657252438 Eh    ::
         :: -> dispersion             -0.026884550604 Eh    ::
         :: repulsion energy           0.488291040897 Eh    ::
         :: add. restraining           0.000000000000 Eh    ::
         :: total charge               0.000000000046 e     ::
         :::::::::::::::::::::::::::::::::::::::::::::::::::::

           -------------------------------------------------
          |                Property Printout                |
           -------------------------------------------------

    * Orbital Energies and Occupations

         #    Occupation            Energy/Eh            Energy/eV
      -------------------------------------------------------------
         1        2.0000           -0.7378409             -20.0777
       ...           ...                  ...                  ...
        30        2.0000           -0.4861554             -13.2290
        31        2.0000           -0.4796695             -13.0525
        32        2.0000           -0.4770098             -12.9801
        33        2.0000           -0.4682354             -12.7413
        34        2.0000           -0.4660472             -12.6818
        35        2.0000           -0.4412433             -12.0068
        36        2.0000           -0.4279823             -11.6460
        37        2.0000           -0.4098066             -11.1514
        38        2.0000           -0.4010996             -10.9145
        39        1.9795           -0.3895257             -10.5995
        40        1.7199           -0.3867497             -10.5240
        41        1.3007           -0.3850511             -10.4778
        42        0.9992           -0.2450460              -6.6680 (HOMO)
        43        0.0008           -0.2314787              -6.2989 (LUMO)
        44                         -0.2088470              -5.6830
        45                         -0.1509047              -4.1063
        46                         -0.1081004              -2.9416
        47                         -0.0405465              -1.1033
        48                         -0.0274272              -0.7463
        49                         -0.0220178              -0.5991
        50                         -0.0088685              -0.2413
        51                          0.0130364               0.3547
        52                          0.0158101               0.4302
        53                          0.0376302               1.0240
       ...                                ...                  ...
        76                          0.6801165              18.5069
      -------------------------------------------------------------
                  HL-Gap            0.0135673 Eh            0.3692 eV
             Fermi-level           -0.3120577 Eh           -8.4915 eV

     #   Z          covCN         q      C6AA      α(0)
     1   7 N        2.654    -0.250    26.505     7.646
     2   6 C        2.868     0.138    24.977     8.192
     3   7 N        1.851    -0.261    27.637     7.792
     4   6 C        2.734     0.331    21.373     7.569
     5   7 N        2.747    -0.093    23.058     7.132
     6   6 C        3.810     0.191    17.573     5.967
     7   6 C        3.799    -0.031    21.131     6.545
     8  16 S        2.096    -0.116   145.906    20.330
     9   6 C        3.744     0.144    18.318     6.106
    10   8 O        1.719    -0.312    19.194     5.915
    11   6 C        3.699     0.080    19.393     6.298
    12   8 O        1.656    -0.429    21.417     6.247
    13   6 C        2.864    -0.010    28.256     8.713
    14   6 C        2.911    -0.075    29.880     8.963
    15   8 O        0.859    -0.422    22.130     6.307
    16   1 H        0.861     0.175     1.244     1.747
    17   1 H        0.860     0.190     1.158     1.686
    18   1 H        0.923     0.070     2.082     2.257
    19   1 H        0.925     0.076     2.026     2.226
    20   1 H        0.925     0.070     2.086     2.259
    21   1 H        0.924     0.048     2.339     2.392
    22   1 H        0.923     0.038     2.475     2.460
    23   1 H        0.924     0.033     2.551     2.498
    24   1 H        0.805     0.296     0.733     1.345
    25   1 H        0.926     0.071     2.069     2.250
    26   1 H        0.926     0.046     2.368     2.406

 Mol. C6AA /au·bohr⁶  :       8766.145386
 Mol. C8AA /au·bohr⁸  :     222862.233602
 Mol. α(0) /au        :        143.247519


Wiberg/Mayer (AO) data.
largest (>0.10) Wiberg bond orders for each atom

 ---------------------------------------------------------------------------
     #   Z sym  total        # sym  WBO       # sym  WBO       # sym  WBO
 ---------------------------------------------------------------------------
     1   7 N    3.258 --     2 C    1.194    16 H    0.952    17 H    0.945
     2   6 C    3.833 --     3 N    1.273    14 C    1.215     1 N    1.194
     3   7 N    2.923 --     4 C    1.282     2 C    1.273    15 O    0.159
     4   6 C    3.943 --    15 O    1.616     3 N    1.282     5 N    0.943
     5   7 N    3.430 --    13 C    1.181     6 C    0.992     4 C    0.943
     6   6 C    3.926 --     5 N    0.992     7 C    0.958    10 O    0.955
                            18 H    0.943
     7   6 C    3.962 --    20 H    0.972     8 S    0.963    19 H    0.962
                             6 C    0.958
     8  16 S    2.147 --     7 C    0.963     9 C    0.892
     9   6 C    3.918 --    10 O    1.003    11 C    0.980    21 H    0.956
                             8 S    0.892
    10   8 O    2.110 --     9 C    1.003     6 C    0.955
    11   6 C    3.954 --    12 O    1.002     9 C    0.980    23 H    0.971
                            22 H    0.962
    12   8 O    1.968 --    11 C    1.002    24 H    0.898
    13   6 C    3.838 --    14 C    1.415     5 N    1.181    25 H    0.937
    14   6 C    3.774 --    13 C    1.415     2 C    1.215    26 H    0.963
    15   8 O    1.970 --     4 C    1.616     3 N    0.159
    16   1 H    0.968 --     1 N    0.952
    17   1 H    0.962 --     1 N    0.945
    18   1 H    0.992 --     6 C    0.943
    19   1 H    0.988 --     7 C    0.962
    20   1 H    0.994 --     7 C    0.972
    21   1 H    0.993 --     9 C    0.956
    22   1 H    0.997 --    11 C    0.962
    23   1 H    0.999 --    11 C    0.971
    24   1 H    0.912 --    12 O    0.898
    25   1 H    0.981 --    13 C    0.937
    26   1 H    0.992 --    14 C    0.963
 ---------------------------------------------------------------------------

Topologies differ in total number of bonds
Writing topology from bond orders to xtbtopo.mol

molecular dipole:
                 x           y           z       tot (Debye)
 q only:        0.497       2.243      -0.085
   full:        0.449       2.921      -0.359       7.567
molecular quadrupole (traceless):
                xx          xy          yy          xz          yz          zz
 q only:       14.415     -10.026      -8.499       0.784       1.074      -5.916
  q+dip:       11.982      -7.644      -5.524      -3.085       3.312      -6.458
   full:       12.096      -7.897      -7.019      -3.483       3.440      -5.077


           -------------------------------------------------
          | TOTAL ENERGY              -46.849449590147 Eh   |
          | GRADIENT NORM               0.100264624455 Eh/α |
          | HOMO-LUMO GAP               0.369183902576 eV   |
           -------------------------------------------------

------------------------------------------------------------------------
 * finished run on 2025/05/15 at 16:11:54.912     
------------------------------------------------------------------------
 total:
 * wall-time:     0 d,  0 h,  0 min,  0.101 sec
 *  cpu-time:     0 d,  0 h,  0 min,  0.058 sec
 * ratio c/w:     0.569 speedup
 SCF:
 * wall-time:     0 d,  0 h,  0 min,  0.091 sec
 *  cpu-time:     0 d,  0 h,  0 min,  0.049 sec
 * ratio c/w:     0.536 speedup


