26
 energy: -46.979274284081 gnorm: 0.000963454098 xtb: 6.7.1 (edcfbbe)
N           -4.37481762236330        1.02015350212514       -0.29128242907733
C           -3.15194684182813        0.48739927264207       -0.10995351935811
N           -3.09351487446837       -0.80248384069967        0.12249343795967
C           -1.93150282848837       -1.44665170727911        0.29043919679203
N           -0.73394900683486       -0.65542196098238        0.15983499226478
C            0.53378681672540       -1.33449548060972        0.27820493760862
C            1.14778894496927       -1.13064655188032        1.66527342885705
S            2.91327780206955       -1.38346223074244        1.39051142135364
C            2.73214593455374       -0.64472106846309       -0.27442508932323
O            1.42694094667939       -0.87307119205781       -0.71395863745704
C            3.10775406890473        0.84213571477511       -0.26923409153360
O            2.28517551725490        1.54744846048379        0.63160054802596
C           -0.79274177588226        0.67291406216114       -0.05032355016492
C           -1.98454520430828        1.30329466734272       -0.18788790815602
O           -1.81867086694378       -2.62149063522241        0.55087608380715
H           -4.50384383721075        2.01141294092682       -0.36986036687925
H           -5.16862452165449        0.41526595734319       -0.17759151888449
H            0.32152579067833       -2.40249808269253        0.10843822621657
H            0.98524182038817       -0.11157291068522        2.01967103746156
H            0.77562717265926       -1.85572565624175        2.38269403709980
H            3.42649671239583       -1.16821379136303       -0.94276364065386
H            2.98313918231008        1.22993589838048       -1.29109210736918
H            4.16354542142684        0.91618555221682        0.01743855236549
H            2.64560108643535        2.43040872550105        0.76084165289580
H            0.15486923965424        1.19002575094815       -0.10221360488866
H           -2.04855907712144        2.36367460407370       -0.35953108896340
