42
 energy: -62.292945887096 gnorm: 0.000352232324 xtb: 6.7.1 (edcfbbe)
C           -2.64268555137835        2.85764960765712       -0.05971541195967
C           -3.03033222083973        1.60989380962311       -0.85633092772310
C           -2.83609368815752        0.36136709684221       -0.04336705388282
C           -3.88934070476460       -0.30167060030836        0.55547622503932
C           -3.70171067681847       -1.44964472343322        1.33115472628185
C           -2.44928728047167       -1.97757990635509        1.53946494114896
C           -1.35757407622923       -1.33467663512369        0.95510341967818
C           -1.56444303872303       -0.17142020027934        0.17212379312623
N           -0.35095788477348        0.25299174717063       -0.28889974289394
C            0.61809769948078       -0.58911001065294        0.18869212406867
C            0.04620347744745       -1.56978022366471        0.95341337711342
C            0.89020331072499       -2.55333130608260        1.69007409723306
C            2.23042010647732       -1.84935570404418        1.92410548145687
O            2.81188475944309       -1.41089292056772        0.71458045099762
C            2.08740557273730       -0.45441323769708       -0.06031592318913
C            2.49861407476840       -0.77937691231554       -1.51707835686175
C            1.53662477737335       -0.33603524201221       -2.61170468574140
C            2.59462302319578        0.96355408092813        0.37042191026821
C            2.32795220587813        2.05309172671462       -0.62293882305808
O            3.44126683902823        2.44779717569906       -1.24187954041419
O            1.25415118471508        2.55078384984150       -0.86524455280130
H           -2.83119734631525        3.75436616603279       -0.64596295277975
H           -1.58827763922815        2.83685012035976        0.20487238413353
H           -3.22559110984417        2.91320302186249        0.85711038315817
H           -2.42290133465531        1.55847913656522       -1.76374696764889
H           -4.07762274209779        1.68603046410220       -1.15571383449664
H           -4.89257251236447        0.07637724180399        0.41786478011447
H           -4.56540528754535       -1.92667974636939        1.77144645377559
H           -2.30843229342606       -2.86647826675278        2.13614388110142
H           -0.16961911048511        1.12510776794997       -0.76024071587862
H            1.04833765876561       -3.46147195419867        1.10161160890353
H            0.43523620635589       -2.83154104716090        2.64132910960510
H            2.08199641194880       -1.00315659966820        2.61098538096800
H            2.97230497918950       -2.52681177907769        2.35264620477235
H            2.60158808599943       -1.86496211541151       -1.56380603357679
H            3.48779592950355       -0.35185682915124       -1.68980138249956
H            1.38894505981530        0.73979383131634       -2.61679325595580
H            0.56925800313495       -0.81791755120315       -2.49577556831499
H            1.94488113108284       -0.62159393183600       -3.57885796174510
H            2.11109182068994        1.22521856790962        1.31377201053583
H            3.67178465164943        0.88479810195880        0.51896036631122
H            3.25367752871239        3.15240392902591       -1.88307941837415
