48
 energy: -69.041993222457 gnorm: 0.000386480291 xtb: 6.7.1 (edcfbbe)
O           -0.45178837035624       -0.45758669945624       -2.36003192296072
C            0.14870919566279       -0.89295888676983       -1.16474253389919
C            0.74213454531006        0.30939271807873       -0.39630874976667
N            1.49251022134991        1.15977580409748       -1.32328390010254
C            1.68743687188245        2.46010315964587       -0.69600664745738
C            2.32070794745630        2.29622801538441        0.70172584660114
C            2.79161567926649        0.58445964154795       -1.63648721235129
C            3.72299624035649        0.56956177356774       -0.39430244239432
C            4.51170328227859       -0.70495623984659       -0.34702394508533
C            4.65840308012275       -1.52640640247997        0.67590661347461
C            2.82902028394335        0.85371365111128        0.82033696191440
C            1.62652281712679       -0.09760177618444        0.79282580084955
C           -0.82751980701808       -1.62395869580395       -0.27670323838433
C           -0.45009265742241       -2.81514962292693        0.29282255999315
C           -1.31183600449245       -3.46845203473541        1.18833973733835
N           -2.48046926114398       -3.00920008117340        1.53077028600158
C           -2.89570647465769       -1.85203854274469        0.97963985289902
C           -2.11041421120536       -1.10475023492879        0.05180194804461
C           -2.64462865477615        0.08178153678839       -0.47313623770049
C           -3.89220623319800        0.53387554984267       -0.09769627404563
O           -4.30028956483268        1.70137199512479       -0.67111343766428
C           -5.57398658557809        2.20687816399573       -0.35496054880292
C           -4.65722913563868       -0.20177474985933        0.82799973679417
C           -4.16579575641321       -1.36700557519023        1.34584696349776
H            0.06552314804535        0.30325450188042       -2.66441249814092
H            0.96430147803195       -1.59652397831738       -1.40996734973655
H           -0.10192755637560        0.91219127807112       -0.04602143926953
H            2.32860126358992        3.05182968404456       -1.35300894544811
H            0.71759279785359        2.95985154200911       -0.63451792070659
H            3.14425430101639        2.99860156712170        0.83776316234294
H            1.58542288547465        2.48594372001889        1.48536245590845
H            2.64043490317613       -0.43034493231398       -2.00772391034201
H            3.23022948239012        1.17222828537874       -2.44747110281792
H            4.44708668531751        1.39012178712660       -0.48330097499901
H            5.00801386055020       -0.93311876064996       -1.28376435931509
H            5.25813778014636       -2.41740603850518        0.59411071541069
H            4.20393729638804       -1.35583475144577        1.63670241759724
H            3.39316486536098        0.73516255523362        1.74796313013588
H            1.97414402566390       -1.12485634718047        0.67751127134838
H            1.06449230477041       -0.03583017948206        1.72562315364422
H            0.50877450141946       -3.25674682356657        0.06357488812659
H           -1.01647951142124       -4.40528248027768        1.64413177964889
H           -2.10032474429077        0.64375606353845       -1.21285700792918
H           -5.67815893481446        3.12167063369338       -0.93665240912658
H           -6.36824906638518        1.50880105124448       -0.63809715829442
H           -5.66166866915993        2.44637897198413        0.71009092011277
H           -5.63545538570477        0.14112286313836        1.12749315784224
H           -4.74174515905989       -1.95027267982436        2.04714880721278
