----- Optimization -----
      -----------------------------------------------------------      
     |                   =====================                   |     
     |                           x T B                           |     
     |                   =====================                   |     
     |                         S. Grimme                         |     
     |          Mulliken Center for Theoretical Chemistry        |     
     |                    University of Bonn                     |     
      -----------------------------------------------------------      

   * xtb version 6.7.1 (edcfbbe) compiled by 'conda@3ef47c1a292c' on 2024-11-25

   xtb is free software: you can redistribute it and/or modify it under
   the terms of the GNU Lesser General Public License as published by
   the Free Software Foundation, either version 3 of the License, or
   (at your option) any later version.
   
   xtb is distributed in the hope that it will be useful,
   but WITHOUT ANY WARRANTY; without even the implied warranty of
   MERCHANTABILITY or FITNESS FOR A PARTICULAR PURPOSE.  See the
   GNU Lesser General Public License for more details.
   
   Cite this work as:
   * C. Bannwarth, E. Caldeweyher, S. Ehlert, A. Hansen, P. Pracht,
     J. Seibert, S. Spicher, S. Grimme, WIREs Comput. Mol. Sci., 2020, 11,
     e01493. DOI: 10.1002/wcms.1493
   
   for GFN2-xTB:
   * C. Bannwarth, S. Ehlert and S. Grimme., J. Chem. Theory Comput., 2019,
     15, 1652-1671. DOI: 10.1021/acs.jctc.8b01176
   for GFN1-xTB:
   * S. Grimme, C. Bannwarth, P. Shushkov, J. Chem. Theory Comput., 2017,
     13, 1989-2009. DOI: 10.1021/acs.jctc.7b00118
   for GFN0-xTB:
   * P. Pracht, E. Caldeweyher, S. Ehlert, S. Grimme, ChemRxiv, 2019, preprint.
     DOI: 10.26434/chemrxiv.8326202.v1
   for GFN-FF:
   * S. Spicher and S. Grimme, Angew. Chem. Int. Ed., 2020, 59, 15665-15673.
     DOI: 10.1002/anie.202004239
   
   for ALPB and GBSA implicit solvation:
   * S. Ehlert, M. Stahn, S. Spicher, S. Grimme, J. Chem. Theory Comput.,
     2021, 17, 4250-4261. DOI: 10.1021/acs.jctc.1c00471
   
   for ddCOSMO and CPCM-X implicit solvation:
   * M. Stahn, S. Ehlert, S. Grimme, J. Phys. Chem. A,
     2023, XX, XXXX-XXXX. DOI: 10.1021/acs.jpca.3c04382
   
   for DFT-D4:
   * E. Caldeweyher, C. Bannwarth and S. Grimme, J. Chem. Phys., 2017,
     147, 034112. DOI: 10.1063/1.4993215
   * E. Caldeweyher, S. Ehlert, A. Hansen, H. Neugebauer, S. Spicher,
     C. Bannwarth and S. Grimme, J. Chem. Phys., 2019, 150, 154122.
     DOI: 10.1063/1.5090222
   * E. Caldeweyher, J.-M. Mewes, S. Ehlert and S. Grimme, Phys. Chem. Chem. Phys.
     2020, 22, 8499-8512. DOI: 10.1039/D0CP00502A
   
   for sTDA-xTB:
   * S. Grimme and C. Bannwarth, J. Chem. Phys., 2016, 145, 054103.
     DOI: 10.1063/1.4959605
   
   in the mass-spec context:
   * V. Asgeirsson, C. Bauer and S. Grimme, Chem. Sci., 2017, 8, 4879.
     DOI: 10.1039/c7sc00601b
   * J. Koopman and S. Grimme, ACS Omega 2019, 4, 12, 15120-15133.
     DOI: 10.1021/acsomega.9b02011
   
   for metadynamics refer to:
   * S. Grimme, J. Chem. Theory Comput., 2019, 155, 2847-2862
     DOI: 10.1021/acs.jctc.9b00143
   
   for SPH calculations refer to:
   * S. Spicher and S. Grimme, J. Chem. Theory Comput., 2021, 17, 1701-1714
     DOI: 10.1021/acs.jctc.0c01306
   
   for ONIOM refer to:
   * C. Plett, A. Katbashev, S. Ehlert, S. Grimme, M. Bursch,
     Phys. Chem. Chem. Phys., 2023, 25, 17860-17868. DOI: 10.1039/D3CP02178E
   
   for DIPRO refer to:
   * J. Kohn, N. Gildemeister, S. Grimme, D. Fazzi, A. Hansen,
     J. Chem. Phys., 2023, just accepted.
   
   for PTB refer to:
   * S. Grimme, M. Mueller, A. Hansen, J. Chem. Phys., 2023, 158, 124111.
     DOI: 10.1063/5.0137838
   
   with help from (in alphabetical order)
   P. Atkinson, C. Bannwarth, F. Bohle, G. Brandenburg, E. Caldeweyher
   M. Checinski, S. Dohm, S. Ehlert, S. Ehrlich, I. Gerasimov, C. Hölzer
   A. Katbashev, J. Kohn, J. Koopman, C. Lavigne, S. Lehtola, F. März, M. Müller,
   F. Musil, H. Neugebauer, J. Pisarek, C. Plett, P. Pracht, F. Pultar,
   J. Seibert, P. Shushkov, S. Spicher, M. Stahn, M. Steiner, T. Strunk,
   J. Stückrath, T. Rose, and J. Unsleber
   
 * started run on 2025/05/15 at 16:31:08.155     
   ID    Z sym.   atoms
    1    8 O      1, 21
    2    6 C      2, 3, 5-15, 17-20, 22-24
    3    7 N      4, 16
    4    1 H      25-48

           -------------------------------------------------
          |                Calculation Setup                |
           -------------------------------------------------

          program call               : xtb /rds/general/user/hgt20/home/callum/QDESCP/Quinine_rdkit_conf_10/Quinine_rdkit_conf_10.xyz --opt normal --acc 1 --gfn 2 --chrg 0 --uhf 0 -P 1
          hostname                   : login-c
          coordinate file            : /rds/general/user/hgt20/home/callum/QDESCP/Quinine_rdkit_conf_10/Quinine_rdkit_conf_10.xyz
          omp threads                :                     1


           -------------------------------------------------
          |                 G F N 2 - x T B                 |
           -------------------------------------------------

        Reference                      10.1021/acs.jctc.8b01176
      * Hamiltonian:
        H0-scaling (s, p, d)           1.850000    2.230000    2.230000
        zeta-weighting                 0.500000
      * Dispersion:
        s8                             2.700000
        a1                             0.520000
        a2                             5.000000
        s9                             5.000000
      * Repulsion:
        kExp                           1.500000    1.000000
        rExp                           1.000000
      * Coulomb:
        alpha                          2.000000
        third order                    shell-resolved
        anisotropic                    true
        a3                             3.000000
        a5                             4.000000
        cn-shift                       1.200000
        cn-exp                         4.000000
        max-rad                        5.000000


          ...................................................
          :                      SETUP                      :
          :.................................................:
          :  # basis functions                 120          :
          :  # atomic orbitals                 120          :
          :  # shells                           72          :
          :  # electrons                       126          :
          :  max. iterations                   250          :
          :  Hamiltonian                  GFN2-xTB          :
          :  restarted?                      false          :
          :  GBSA solvation                  false          :
          :  PC potential                    false          :
          :  electronic temp.          300.0000000     K    :
          :  accuracy                    1.0000000          :
          :  -> integral cutoff          0.2500000E+02      :
          :  -> integral neglect         0.1000000E-07      :
          :  -> SCF convergence          0.1000000E-05 Eh   :
          :  -> wf. convergence          0.1000000E-03 e    :
          :  Broyden damping             0.4000000          :
          :  net charge                          0          :
          :  unpaired electrons                  0          :
          ...................................................

 iter      E             dE          RMSdq      gap      omega  full diag
   1    -69.8831375 -0.698831E+02  0.368E+00    2.47       0.0  T
   2    -69.9493938 -0.662563E-01  0.218E+00    2.48       1.0  T
   3    -69.9297387  0.196552E-01  0.102E+00    2.29       1.0  T
   4    -69.9532844 -0.235457E-01  0.430E-01    2.30       1.0  T
   5    -69.9596562 -0.637180E-02  0.120E-01    2.20       1.0  T
   6    -69.9602334 -0.577227E-03  0.551E-02    2.25       1.0  T
   7    -69.9602913 -0.578891E-04  0.257E-02    2.23       1.0  T
   8    -69.9602975 -0.621063E-05  0.102E-02    2.24       1.4  T
   9    -69.9602991 -0.151543E-05  0.420E-03    2.24       3.4  T
  10    -69.9602995 -0.429793E-06  0.190E-03    2.24       7.6  T
  11    -69.9602996 -0.996904E-07  0.697E-04    2.24      20.7  T
  12    -69.9602996 -0.277363E-08  0.333E-04    2.24      43.4  T

   *** convergence criteria satisfied after 12 iterations ***

         #    Occupation            Energy/Eh            Energy/eV
      -------------------------------------------------------------
         1        2.0000           -0.7145351             -19.4435
       ...           ...                  ...                  ...
        57        2.0000           -0.4195154             -11.4156
        58        2.0000           -0.4050113             -11.0209
        59        2.0000           -0.3997389             -10.8774
        60        2.0000           -0.3977421             -10.8231
        61        2.0000           -0.3717055             -10.1146
        62        2.0000           -0.3675519             -10.0016
        63        2.0000           -0.3593883              -9.7795 (HOMO)
        64                         -0.2771654              -7.5421 (LUMO)
        65                         -0.2246859              -6.1140
        66                         -0.2126863              -5.7875
        67                         -0.1996635              -5.4331
        68                         -0.1514882              -4.1222
       ...                                ...                  ...
       120                          0.6746564              18.3583
      -------------------------------------------------------------
                  HL-Gap            0.0822229 Eh            2.2374 eV
             Fermi-level           -0.3182768 Eh           -8.6608 eV

 SCC (total)                   0 d,  0 h,  0 min,  0.098 sec
 SCC setup                      ...        0 min,  0.000 sec (  0.449%)
 Dispersion                     ...        0 min,  0.001 sec (  0.600%)
 classical contributions        ...        0 min,  0.000 sec (  0.188%)
 integral evaluation            ...        0 min,  0.009 sec (  9.275%)
 iterations                     ...        0 min,  0.030 sec ( 30.398%)
 molecular gradient             ...        0 min,  0.031 sec ( 31.291%)
 printout                       ...        0 min,  0.027 sec ( 27.792%)

         :::::::::::::::::::::::::::::::::::::::::::::::::::::
         ::                     SUMMARY                     ::
         :::::::::::::::::::::::::::::::::::::::::::::::::::::
         :: total energy             -69.028121193877 Eh    ::
         :: gradient norm              0.103811626403 Eh/a0 ::
         :: HOMO-LUMO gap              2.237398694620 eV    ::
         ::.................................................::
         :: SCC energy               -69.959467370683 Eh    ::
         :: -> isotropic ES            0.056536785378 Eh    ::
         :: -> anisotropic ES          0.008419661997 Eh    ::
         :: -> anisotropic XC          0.037686821892 Eh    ::
         :: -> dispersion             -0.053515624335 Eh    ::
         :: repulsion energy           0.931346176806 Eh    ::
         :: add. restraining           0.000000000000 Eh    ::
         :: total charge              -0.000000000000 e     ::
         :::::::::::::::::::::::::::::::::::::::::::::::::::::

      ----------------------------------------------------------- 
     |                   =====================                   |
     |                        A N C O P T                        |
     |                   =====================                   |
     |               Approximate Normal Coordinate               |
     |                Rational Function Optimizer                |
      ----------------------------------------------------------- 
      ----------------------------------------------------------- 
     |                   =====================                   |
     |                        A N C O P T                        |
     |                   =====================                   |
     |               Approximate Normal Coordinate               |
     |                Rational Function Optimizer                |
      ----------------------------------------------------------- 

          ...................................................
          :                      SETUP                      :
          :.................................................:
          :   optimization level            normal          :
          :   max. optcycles                   200          :
          :   ANC micro-cycles                  20          :
          :   degrees of freedom               138          :
          :.................................................:
          :   RF solver                   davidson          :
          :   write xtbopt.log                true          :
          :   linear?                        false          :
          :   energy convergence         0.5000000E-05 Eh   :
          :   grad. convergence          0.1000000E-02 Eh/α :
          :   maxmium RF displ.          1.0000000          :
          :   Hlow (freq-cutoff)         0.1000000E-01      :
          :   Hmax (freq-cutoff)         5.0000000          :
          :   S6 in model hess.         20.0000000          :
          ...................................................

generating ANC from exact Hessian ...
Using Lindh-Hessian (1995)
 Shifting diagonal of input Hessian by    9.7932419954383787E-003
 Lowest  eigenvalues of input Hessian
    0.000000    0.000000    0.000000    0.000000    0.000000    0.000000
    0.010000    0.010099    0.010510    0.010839    0.011647    0.012578
    0.013117    0.013990    0.014501    0.015293    0.015948    0.016836
 Highest eigenvalues
    1.831907    1.856567    1.957032    1.972418    2.066414    2.165381


........................................................................
.............................. CYCLE    1 ..............................
........................................................................

 iter      E             dE          RMSdq      gap      omega  full diag
   1    -69.9602996 -0.699603E+02  0.116E-04    2.24       0.0  T
   2    -69.9602996 -0.184130E-09  0.842E-05    2.24     171.4  T
   3    -69.9602996 -0.193410E-09  0.464E-05    2.24     311.4  T
     SCC iter.                  ...        0 min,  0.008 sec
     gradient                   ...        0 min,  0.059 sec
 * total energy  :   -69.0281212 Eh     change       -0.1973632E-08 Eh
   gradient norm :     0.1038148 Eh/α   predicted     0.0000000E+00 (-100.00%)
   displ. norm   :     0.3329953 α      lambda       -0.1560113E-01
   maximum displ.:     0.0943689 α      in ANC's #12, #44, #32, ...

........................................................................
.............................. CYCLE    2 ..............................
........................................................................

 iter      E             dE          RMSdq      gap      omega  full diag
   1    -70.0011365 -0.700011E+02  0.179E-01    2.34       0.0  T
   2    -70.0012225 -0.860232E-04  0.110E-01    2.37       1.0  T
   3    -70.0011812  0.413479E-04  0.434E-02    2.36       1.0  T
   4    -70.0012383 -0.570684E-04  0.116E-02    2.37       1.2  T
   5    -70.0012440 -0.572958E-05  0.404E-03    2.37       3.6  T
   6    -70.0012443 -0.268979E-06  0.177E-03    2.37       8.2  T
   7    -70.0012443 -0.176708E-07  0.784E-04    2.37      18.4  T
   8    -70.0012443 -0.133406E-07  0.279E-04    2.37      51.7  T
     SCC iter.                  ...        0 min,  0.019 sec
     gradient                   ...        0 min,  0.061 sec
 * total energy  :   -69.0387234 Eh     change       -0.1060224E-01 Eh
   gradient norm :     0.0426353 Eh/α   predicted    -0.8674383E-02 ( -18.18%)
   displ. norm   :     0.2764725 α      lambda       -0.4201587E-02
   maximum displ.:     0.1179147 α      in ANC's #12, #7, #14, ...

........................................................................
.............................. CYCLE    3 ..............................
........................................................................

 iter      E             dE          RMSdq      gap      omega  full diag
   1    -70.0235410 -0.700235E+02  0.106E-01    2.44       0.0  T
   2    -70.0235884 -0.473910E-04  0.662E-02    2.45       1.0  T
   3    -70.0235777  0.106718E-04  0.285E-02    2.45       1.0  T
   4    -70.0235948 -0.171538E-04  0.806E-03    2.45       1.8  T
   5    -70.0235974 -0.258287E-05  0.267E-03    2.45       5.4  T
   6    -70.0235976 -0.175837E-06  0.109E-03    2.45      13.3  T
   7    -70.0235976 -0.624041E-08  0.487E-04    2.45      29.6  T
   8    -70.0235976 -0.539626E-08  0.179E-04    2.45      80.7  T
     SCC iter.                  ...        0 min,  0.019 sec
     gradient                   ...        0 min,  0.031 sec
 * total energy  :   -69.0410907 Eh     change       -0.2367301E-02 Eh
   gradient norm :     0.0097695 Eh/α   predicted    -0.2262663E-02 (  -4.42%)
   displ. norm   :     0.1708254 α      lambda       -0.5219364E-03
   maximum displ.:     0.0830743 α      in ANC's #7, #12, #3, ...

........................................................................
.............................. CYCLE    4 ..............................
........................................................................

 iter      E             dE          RMSdq      gap      omega  full diag
   1    -70.0246620 -0.700247E+02  0.440E-02    2.46       0.0  T
   2    -70.0246645 -0.256824E-05  0.266E-02    2.45       1.0  T
   3    -70.0246609  0.366130E-05  0.873E-03    2.46       1.7  T
   4    -70.0246650 -0.415418E-05  0.234E-03    2.45       6.2  T
   5    -70.0246653 -0.228722E-06  0.751E-04    2.46      19.2  T
   6    -70.0246653 -0.874920E-08  0.356E-04    2.46      40.5  T
     SCC iter.                  ...        0 min,  0.014 sec
     gradient                   ...        0 min,  0.030 sec
 * total energy  :   -69.0414707 Eh     change       -0.3799160E-03 Eh
   gradient norm :     0.0053029 Eh/α   predicted    -0.2685953E-03 ( -29.30%)
   displ. norm   :     0.2272903 α      lambda       -0.3787781E-03
   maximum displ.:     0.1179976 α      in ANC's #7, #3, #12, ...

........................................................................
.............................. CYCLE    5 ..............................
........................................................................

 iter      E             dE          RMSdq      gap      omega  full diag
   1    -70.0242288 -0.700242E+02  0.581E-02    2.46       0.0  T
   2    -70.0242310 -0.215176E-05  0.348E-02    2.45       1.0  T
   3    -70.0242257  0.530144E-05  0.103E-02    2.46       1.4  T
   4    -70.0242317 -0.596514E-05  0.219E-03    2.45       6.6  T
   5    -70.0242318 -0.166176E-06  0.813E-04    2.45      17.8  T
   6    -70.0242318 -0.594764E-08  0.384E-04    2.45      37.6  T
     SCC iter.                  ...        0 min,  0.047 sec
     gradient                   ...        0 min,  0.031 sec
 * total energy  :   -69.0416955 Eh     change       -0.2248593E-03 Eh
   gradient norm :     0.0037034 Eh/α   predicted    -0.1992410E-03 ( -11.39%)
   displ. norm   :     0.1196870 α      lambda       -0.1014372E-03
   maximum displ.:     0.0692729 α      in ANC's #3, #7, #8, ...

........................................................................
.............................. CYCLE    6 ..............................
........................................................................

 iter      E             dE          RMSdq      gap      omega  full diag
   1    -70.0242834 -0.700243E+02  0.314E-02    2.45       0.0  T
   2    -70.0242837 -0.294510E-06  0.185E-02    2.45       1.0  T
   3    -70.0242830  0.669936E-06  0.412E-03    2.45       3.5  T
   4    -70.0242838 -0.785542E-06  0.937E-04    2.45      15.4  T
   5    -70.0242838 -0.196166E-07  0.385E-04    2.45      37.4  T
     SCC iter.                  ...        0 min,  0.012 sec
     gradient                   ...        0 min,  0.067 sec
 * total energy  :   -69.0417565 Eh     change       -0.6095331E-04 Eh
   gradient norm :     0.0031265 Eh/α   predicted    -0.5144633E-04 ( -15.60%)
   displ. norm   :     0.1101754 α      lambda       -0.7388658E-04
   maximum displ.:     0.0722732 α      in ANC's #3, #7, #8, ...

........................................................................
.............................. CYCLE    7 ..............................
........................................................................

 iter      E             dE          RMSdq      gap      omega  full diag
   1    -70.0245220 -0.700245E+02  0.307E-02    2.45       0.0  T
   2    -70.0245223 -0.296894E-06  0.181E-02    2.45       1.0  T
   3    -70.0245222  0.165142E-06  0.271E-03    2.45       5.3  T
   4    -70.0245224 -0.241318E-06  0.964E-04    2.45      15.0  T
   5    -70.0245224 -0.152448E-07  0.395E-04    2.45      36.5  T
     SCC iter.                  ...        0 min,  0.012 sec
     gradient                   ...        0 min,  0.070 sec
 * total energy  :   -69.0418092 Eh     change       -0.5277432E-04 Eh
   gradient norm :     0.0019762 Eh/α   predicted    -0.3739852E-04 ( -29.14%)
   displ. norm   :     0.1584959 α      lambda       -0.5452986E-04
   maximum displ.:     0.1103809 α      in ANC's #3, #7, #5, ...

........................................................................
.............................. CYCLE    8 ..............................
........................................................................

 iter      E             dE          RMSdq      gap      omega  full diag
   1    -70.0250757 -0.700251E+02  0.432E-02    2.45       0.0  T
   2    -70.0250763 -0.636556E-06  0.252E-02    2.45       1.0  T
   3    -70.0250762  0.111550E-06  0.279E-03    2.45       5.2  T
   4    -70.0250765 -0.269045E-06  0.123E-03    2.45      11.8  T
   5    -70.0250765 -0.239297E-07  0.550E-04    2.45      26.2  T
   6    -70.0250765 -0.473051E-08  0.196E-04    2.45      73.7  T
     SCC iter.                  ...        0 min,  0.014 sec
     gradient                   ...        0 min,  0.063 sec
 * total energy  :   -69.0418597 Eh     change       -0.5048742E-04 Eh
   gradient norm :     0.0023014 Eh/α   predicted    -0.2757234E-04 ( -45.39%)
   displ. norm   :     0.0609788 α      lambda       -0.2341852E-04
   maximum displ.:     0.0448146 α      in ANC's #3, #5, #2, ...

........................................................................
.............................. CYCLE    9 ..............................
........................................................................

 iter      E             dE          RMSdq      gap      omega  full diag
   1    -70.0250855 -0.700251E+02  0.160E-02    2.45       0.0  T
   2    -70.0250856 -0.753170E-07  0.934E-03    2.45       1.5  T
   3    -70.0250856  0.279431E-07  0.114E-03    2.45      12.6  T
   4    -70.0250856 -0.493851E-07  0.460E-04    2.45      31.4  T
   5    -70.0250856 -0.257354E-08  0.214E-04    2.45      67.5  T
     SCC iter.                  ...        0 min,  0.012 sec
     gradient                   ...        0 min,  0.030 sec
 * total energy  :   -69.0418798 Eh     change       -0.2009956E-04 Eh
   gradient norm :     0.0016424 Eh/α   predicted    -0.1176146E-04 ( -41.48%)
   displ. norm   :     0.1381955 α      lambda       -0.3199573E-04
   maximum displ.:     0.0979911 α      in ANC's #3, #5, #2, ...

........................................................................
.............................. CYCLE   10 ..............................
........................................................................

 iter      E             dE          RMSdq      gap      omega  full diag
   1    -70.0249853 -0.700250E+02  0.365E-02    2.45       0.0  T
   2    -70.0249857 -0.436696E-06  0.214E-02    2.45       1.0  T
   3    -70.0249856  0.116868E-06  0.252E-03    2.45       5.7  T
   4    -70.0249858 -0.228600E-06  0.104E-03    2.45      13.9  T
   5    -70.0249859 -0.134833E-07  0.511E-04    2.45      28.2  T
   6    -70.0249859 -0.553828E-08  0.151E-04    2.45      95.3  T
     SCC iter.                  ...        0 min,  0.041 sec
     gradient                   ...        0 min,  0.031 sec
 * total energy  :   -69.0419105 Eh     change       -0.3063330E-04 Eh
   gradient norm :     0.0011878 Eh/α   predicted    -0.1613651E-04 ( -47.32%)
   displ. norm   :     0.0795638 α      lambda       -0.1168842E-04
   maximum displ.:     0.0606006 α      in ANC's #3, #2, #5, ...

........................................................................
.............................. CYCLE   11 ..............................
........................................................................

 iter      E             dE          RMSdq      gap      omega  full diag
   1    -70.0248915 -0.700249E+02  0.220E-02    2.45       0.0  T
   2    -70.0248916 -0.119434E-06  0.129E-02    2.45       1.1  T
   3    -70.0248916  0.451553E-07  0.149E-03    2.45       9.7  T
   4    -70.0248917 -0.824452E-07  0.660E-04    2.45      21.9  T
   5    -70.0248917 -0.672451E-08  0.242E-04    2.45      59.7  T
     SCC iter.                  ...        0 min,  0.057 sec
     gradient                   ...        0 min,  0.031 sec
 * total energy  :   -69.0419249 Eh     change       -0.1442663E-04 Eh
   gradient norm :     0.0011159 Eh/α   predicted    -0.5862928E-05 ( -59.36%)
   displ. norm   :     0.0804255 α      lambda       -0.1269625E-04
   maximum displ.:     0.0588719 α      in ANC's #3, #2, #5, ...

........................................................................
.............................. CYCLE   12 ..............................
........................................................................

 iter      E             dE          RMSdq      gap      omega  full diag
   1    -70.0249716 -0.700250E+02  0.237E-02    2.45       0.0  T
   2    -70.0249717 -0.131587E-06  0.139E-02    2.45       1.0  T
   3    -70.0249717  0.907563E-07  0.185E-03    2.45       7.8  T
   4    -70.0249718 -0.137596E-06  0.711E-04    2.45      20.3  T
   5    -70.0249718 -0.604096E-08  0.272E-04    2.45      53.0  T
     SCC iter.                  ...        0 min,  0.012 sec
     gradient                   ...        0 min,  0.051 sec
 * total energy  :   -69.0419403 Eh     change       -0.1543930E-04 Eh
   gradient norm :     0.0006909 Eh/α   predicted    -0.6367001E-05 ( -58.76%)
   displ. norm   :     0.0990561 α      lambda       -0.1229552E-04
   maximum displ.:     0.0702505 α      in ANC's #3, #2, #6, ...

........................................................................
.............................. CYCLE   13 ..............................
........................................................................

 iter      E             dE          RMSdq      gap      omega  full diag
   1    -70.0249715 -0.700250E+02  0.295E-02    2.45       0.0  T
   2    -70.0249717 -0.190119E-06  0.173E-02    2.45       1.0  T
   3    -70.0249716  0.847376E-07  0.205E-03    2.45       7.1  T
   4    -70.0249718 -0.152180E-06  0.891E-04    2.45      16.2  T
   5    -70.0249718 -0.103220E-07  0.309E-04    2.45      46.8  T
     SCC iter.                  ...        0 min,  0.012 sec
     gradient                   ...        0 min,  0.031 sec
 * total energy  :   -69.0419547 Eh     change       -0.1433836E-04 Eh
   gradient norm :     0.0006584 Eh/α   predicted    -0.6179565E-05 ( -56.90%)
   displ. norm   :     0.0900930 α      lambda       -0.8487904E-05
   maximum displ.:     0.0645363 α      in ANC's #3, #2, #6, ...

........................................................................
.............................. CYCLE   14 ..............................
........................................................................

 iter      E             dE          RMSdq      gap      omega  full diag
   1    -70.0249245 -0.700249E+02  0.267E-02    2.45       0.0  T
   2    -70.0249246 -0.157071E-06  0.157E-02    2.45       1.0  T
   3    -70.0249246  0.603232E-07  0.174E-03    2.45       8.3  T
   4    -70.0249247 -0.114390E-06  0.803E-04    2.45      18.0  T
   5    -70.0249247 -0.934801E-08  0.271E-04    2.45      53.3  T
     SCC iter.                  ...        0 min,  0.033 sec
     gradient                   ...        0 min,  0.031 sec
 * total energy  :   -69.0419649 Eh     change       -0.1019353E-04 Eh
   gradient norm :     0.0006766 Eh/α   predicted    -0.4260304E-05 ( -58.21%)
   displ. norm   :     0.0848917 α      lambda       -0.7094585E-05
   maximum displ.:     0.0608668 α      in ANC's #3, #2, #7, ...

........................................................................
.............................. CYCLE   15 ..............................
........................................................................

 iter      E             dE          RMSdq      gap      omega  full diag
   1    -70.0250504 -0.700251E+02  0.244E-02    2.45       0.0  T
   2    -70.0250505 -0.118586E-06  0.143E-02    2.45       1.0  T
   3    -70.0250505  0.100877E-07  0.123E-03    2.45      11.7  T
   4    -70.0250505 -0.498842E-07  0.632E-04    2.45      22.8  T
   5    -70.0250505 -0.550766E-08  0.232E-04    2.45      62.1  T
     SCC iter.                  ...        0 min,  0.056 sec
     gradient                   ...        0 min,  0.031 sec
 * total energy  :   -69.0419735 Eh     change       -0.8653529E-05 Eh
   gradient norm :     0.0005280 Eh/α   predicted    -0.3559673E-05 ( -58.86%)
   displ. norm   :     0.0893387 α      lambda       -0.6763263E-05
   maximum displ.:     0.0637041 α      in ANC's #3, #2, #7, ...

........................................................................
.............................. CYCLE   16 ..............................
........................................................................

 iter      E             dE          RMSdq      gap      omega  full diag
   1    -70.0251259 -0.700251E+02  0.245E-02    2.45       0.0  T
   2    -70.0251260 -0.116640E-06  0.143E-02    2.45       1.0  T
   3    -70.0251260  0.206401E-07  0.128E-03    2.45      11.3  T
   4    -70.0251260 -0.637646E-07  0.578E-04    2.45      25.0  T
   5    -70.0251260 -0.288352E-08  0.219E-04    2.45      65.8  T
     SCC iter.                  ...        0 min,  0.012 sec
     gradient                   ...        0 min,  0.052 sec
 * total energy  :   -69.0419817 Eh     change       -0.8177539E-05 Eh
   gradient norm :     0.0003704 Eh/α   predicted    -0.3394603E-05 ( -58.49%)
   displ. norm   :     0.0925112 α      lambda       -0.5793799E-05
   maximum displ.:     0.0654081 α      in ANC's #3, #2, #7, ...

........................................................................
.............................. CYCLE   17 ..............................
........................................................................

 iter      E             dE          RMSdq      gap      omega  full diag
   1    -70.0250487 -0.700250E+02  0.238E-02    2.45       0.0  T
   2    -70.0250488 -0.923281E-07  0.139E-02    2.45       1.0  T
   3    -70.0250488  0.301432E-07  0.120E-03    2.45      12.0  T
   4    -70.0250489 -0.641770E-07  0.505E-04    2.45      28.6  T
   5    -70.0250489 -0.234246E-08  0.211E-04    2.45      68.3  T
     SCC iter.                  ...        0 min,  0.012 sec
     gradient                   ...        0 min,  0.032 sec
 * total energy  :   -69.0419885 Eh     change       -0.6846093E-05 Eh
   gradient norm :     0.0003617 Eh/α   predicted    -0.2909241E-05 ( -57.51%)
   displ. norm   :     0.0848569 α      lambda       -0.4247276E-05
   maximum displ.:     0.0592238 α      in ANC's #3, #2, #7, ...

........................................................................
.............................. CYCLE   18 ..............................
........................................................................

 iter      E             dE          RMSdq      gap      omega  full diag
   1    -70.0251769 -0.700252E+02  0.208E-02    2.45       0.0  T
   2    -70.0251770 -0.693304E-07  0.122E-02    2.45       1.2  T
   3    -70.0251769  0.442419E-07  0.117E-03    2.45      12.3  T
   4    -70.0251770 -0.704423E-07  0.421E-04    2.45      34.3  T
   5    -70.0251770 -0.156463E-08  0.204E-04    2.45      70.7  T
     SCC iter.                  ...        0 min,  0.012 sec
     gradient                   ...        0 min,  0.031 sec
 * total energy  :   -69.0419932 Eh     change       -0.4681913E-05 Eh
   gradient norm :     0.0003862 Eh/α   predicted    -0.2130894E-05 ( -54.49%)
   displ. norm   :     0.0673724 α      lambda       -0.2565947E-05
   maximum displ.:     0.0461782 α      in ANC's #3, #2, #5, ...

   *** GEOMETRY OPTIMIZATION CONVERGED AFTER 18 ITERATIONS ***

------------------------------------------------------------------------
 total energy gain   :        -0.0138720 Eh       -8.7048 kcal/mol
 total RMSD          :         0.2274257 a0        0.1203 Å
 total power (kW/mol):        -2.0233891 (step)  -25.1119 (real)
------------------------------------------------------------------------

 ANCopt (total)                0 d,  0 h,  0 min,  1.450 sec
 optimizer setup                ...        0 min,  0.000 sec (  0.006%)
 model hessian                  ...        0 min,  0.032 sec (  2.208%)
 ANC generation                 ...        0 min,  0.002 sec (  0.133%)
 coordinate transformation      ...        0 min,  0.000 sec (  0.010%)
 single point calculation       ...        0 min,  1.408 sec ( 97.095%)
 optimization log               ...        0 min,  0.004 sec (  0.276%)
 hessian update                 ...        0 min,  0.000 sec (  0.019%)
 rational function              ...        0 min,  0.003 sec (  0.210%)

================
 final structure:
================
48
 xtb: 6.7.1 (edcfbbe)
O           -0.45178837035624       -0.45758669945624       -2.36003192296072
C            0.14870919566279       -0.89295888676983       -1.16474253389919
C            0.74213454531006        0.30939271807873       -0.39630874976667
N            1.49251022134991        1.15977580409748       -1.32328390010254
C            1.68743687188245        2.46010315964587       -0.69600664745738
C            2.32070794745630        2.29622801538441        0.70172584660114
C            2.79161567926649        0.58445964154795       -1.63648721235129
C            3.72299624035649        0.56956177356774       -0.39430244239432
C            4.51170328227859       -0.70495623984659       -0.34702394508533
C            4.65840308012275       -1.52640640247997        0.67590661347461
C            2.82902028394335        0.85371365111128        0.82033696191440
C            1.62652281712679       -0.09760177618444        0.79282580084955
C           -0.82751980701808       -1.62395869580395       -0.27670323838433
C           -0.45009265742241       -2.81514962292693        0.29282255999315
C           -1.31183600449245       -3.46845203473541        1.18833973733835
N           -2.48046926114398       -3.00920008117340        1.53077028600158
C           -2.89570647465769       -1.85203854274469        0.97963985289902
C           -2.11041421120536       -1.10475023492879        0.05180194804461
C           -2.64462865477615        0.08178153678839       -0.47313623770049
C           -3.89220623319800        0.53387554984267       -0.09769627404563
O           -4.30028956483268        1.70137199512479       -0.67111343766428
C           -5.57398658557809        2.20687816399573       -0.35496054880292
C           -4.65722913563868       -0.20177474985933        0.82799973679417
C           -4.16579575641321       -1.36700557519023        1.34584696349776
H            0.06552314804535        0.30325450188042       -2.66441249814092
H            0.96430147803195       -1.59652397831738       -1.40996734973655
H           -0.10192755637560        0.91219127807112       -0.04602143926953
H            2.32860126358992        3.05182968404456       -1.35300894544811
H            0.71759279785359        2.95985154200911       -0.63451792070659
H            3.14425430101639        2.99860156712170        0.83776316234294
H            1.58542288547465        2.48594372001889        1.48536245590845
H            2.64043490317613       -0.43034493231398       -2.00772391034201
H            3.23022948239012        1.17222828537874       -2.44747110281792
H            4.44708668531751        1.39012178712660       -0.48330097499901
H            5.00801386055020       -0.93311876064996       -1.28376435931509
H            5.25813778014636       -2.41740603850518        0.59411071541069
H            4.20393729638804       -1.35583475144577        1.63670241759724
H            3.39316486536098        0.73516255523362        1.74796313013588
H            1.97414402566390       -1.12485634718047        0.67751127134838
H            1.06449230477041       -0.03583017948206        1.72562315364422
H            0.50877450141946       -3.25674682356657        0.06357488812659
H           -1.01647951142124       -4.40528248027768        1.64413177964889
H           -2.10032474429077        0.64375606353845       -1.21285700792918
H           -5.67815893481446        3.12167063369338       -0.93665240912658
H           -6.36824906638518        1.50880105124448       -0.63809715829442
H           -5.66166866915993        2.44637897198413        0.71009092011277
H           -5.63545538570477        0.14112286313836        1.12749315784224
H           -4.74174515905989       -1.95027267982436        2.04714880721278

 Bond Distances (Angstroems)
 ---------------------------
O1-C2=1.4067         O1-H25=0.9691        C2-O1=1.4067         C2-C3=1.5454         C2-C13=1.5086        C2-H26=1.1047        
C3-C2=1.5454         C3-N4=1.4648         C3-C12=1.5368        C3-H27=1.0948        N4-C3=1.4648         N4-C5=1.4568         
N4-C7=1.4549         C5-N4=1.4568         C5-C6=1.5432         C5-H28=1.0922        C5-H29=1.0928        C6-C5=1.5432         
C6-C11=1.5340        C6-H30=1.0909        C6-H31=1.0912        C7-N4=1.4549         C7-C8=1.5526         C7-H32=1.0911        
C7-H33=1.0934        C8-C7=1.5526         C8-C9=1.4996         C8-C11=1.5347        C8-H34=1.0980        C9-C8=1.4996         
C9-C10=1.3201        C9-H35=1.0844        C10-C9=1.3201        C10-H36=1.0772       C10-H37=1.0765       C11-C6=1.5340        
C11-C8=1.5347        C11-C12=1.5335       C11-H38=1.0922       C12-C3=1.5368        C12-C11=1.5335       C12-H39=1.0906       
C12-H40=1.0908       C13-C2=1.5086        C13-C14=1.3732       C13-C18=1.4224       C14-C13=1.3732       C14-C15=1.4041       
C14-H41=1.0803       C15-C14=1.4041       C15-N16=1.3015       C15-H42=1.0829       N16-C15=1.3015       N16-C17=1.3473       
C17-N16=1.3473       C17-C18=1.4269       C17-C24=1.4080       C18-C13=1.4224       C18-C17=1.4269       C18-C19=1.4031       
C19-C18=1.4031       C19-C20=1.3791       C19-H43=1.0767       C20-C19=1.3791       C20-O21=1.3632       C20-C23=1.4083       
O21-C20=1.3632       O21-C22=1.4063       C22-O21=1.4063       C22-H44=1.0891       C22-H45=1.0947       C22-H46=1.0952       
C23-C20=1.4083       C23-C24=1.3665       C23-H47=1.0790       C24-C17=1.4080       C24-C23=1.3665       C24-H48=1.0788       
H25-O1=0.9691        H26-C2=1.1047        H27-C3=1.0948        H28-C5=1.0922        H29-C5=1.0928        H30-C6=1.0909        
H31-C6=1.0912        H32-C7=1.0911        H33-C7=1.0934        H34-C8=1.0980        H35-C9=1.0844        H36-C10=1.0772       
H37-C10=1.0765       H38-C11=1.0922       H39-C12=1.0906       H40-C12=1.0908       H41-C14=1.0803       H42-C15=1.0829       
H43-C19=1.0767       H44-C22=1.0891       H45-C22=1.0947       H46-C22=1.0952       H47-C23=1.0790       H48-C24=1.0788       
 C  H  Rav=1.0886 sigma=0.0075  Rmin=1.0765  Rmax=1.1047    23
 C  C  Rav=1.4579 sigma=0.0746  Rmin=1.3201  Rmax=1.5526    19
 N  C  Rav=1.4051 sigma=0.0675  Rmin=1.3015  Rmax=1.4648     5
 O  H  Rav=0.9691 sigma=0.0000  Rmin=0.9691  Rmax=0.9691     1
 O  C  Rav=1.3921 sigma=0.0204  Rmin=1.3632  Rmax=1.4067     3

 selected bond angles (degree)
 --------------------
H25-O1-C2=106.38               C3-C2-O1=110.22                C13-C2-O1=111.96               C13-C2-C3=109.44               
H26-C2-O1=108.88               H26-C2-C3=108.81               H26-C2-C13=107.45              N4-C3-C2=109.49                
C12-C3-C2=113.56               C12-C3-N4=110.40               H27-C3-C2=106.94               H27-C3-N4=106.13               
H27-C3-C12=109.99              C5-N4-C3=108.32                C7-N4-C3=111.35                C7-N4-C5=109.04                
C6-C5-N4=110.49                H28-C5-N4=107.64               H28-C5-C6=111.19               H29-C5-N4=108.28               
H29-C5-C6=111.21               H29-C5-H28=107.88              C11-C6-C5=107.81               H30-C6-C5=110.75               
H30-C6-C11=110.22              H31-C6-C5=110.82               H31-C6-C11=109.34              H31-C6-H30=107.89              
C8-C7-N4=111.54                H32-C7-N4=108.50               H32-C7-C8=110.27               H33-C7-N4=107.78               
H33-C7-C8=110.97               H33-C7-H32=107.65              C9-C8-C7=110.42                C11-C8-C7=106.38               
C11-C8-C9=116.03               H34-C8-C7=108.88               H34-C8-C9=106.91               H34-C8-C11=108.06              
C10-C9-C8=127.72               H35-C9-C8=113.10               H35-C9-C10=119.18              H36-C10-C9=121.18              
H37-C10-C9=123.10              H37-C10-H36=115.72             

 selected dihedral angles (degree)
 ---------------------------------
C3-C2-O1-H25= 32.76           C13-C2-O1-H25=154.82          H26-C2-O1-H25=273.48          N4-C3-C2-O1=313.96            
N4-C3-C2-C13=190.42           N4-C3-C2-H26= 73.29           C12-C3-C2-O1=190.06           C12-C3-C2-C13= 66.52          
C12-C3-C2-H26=309.39          H27-C3-C2-O1= 68.54           H27-C3-C2-C13=305.00          H27-C3-C2-H26=187.87          
C5-N4-C3-C2=162.83            C5-N4-C3-C12=288.57           C5-N4-C3-H27= 47.73           C7-N4-C3-C2=282.72            
C7-N4-C3-C12= 48.46           C7-N4-C3-H27=167.62           C6-C5-N4-C3= 53.04            C6-C5-N4-C7=291.72            
H28-C5-N4-C3=174.63           H28-C5-N4-C7= 53.30           H29-C5-N4-C3=291.02           H29-C5-N4-C7=169.69           
C11-C6-C5-N4= 13.05           C11-C6-C5-H28=253.58          C11-C6-C5-H29=133.33          H30-C6-C5-N4=133.71           
H30-C6-C5-H28= 14.25          H30-C6-C5-H29=254.00          H31-C6-C5-N4=253.42           H31-C6-C5-H28=133.95          
H31-C6-C5-H29= 13.71          C8-C7-N4-C3=292.98            C8-C7-N4-C5= 52.44            H32-C7-N4-C3= 54.64           
H32-C7-N4-C5=174.10           H33-C7-N4-C3=170.93           H33-C7-N4-C5=290.39           C9-C8-C7-N4=140.31            
C9-C8-C7-H32= 19.69           C9-C8-C7-H33=260.50           C11-C8-C7-N4= 13.63           C11-C8-C7-H32=253.00          
C11-C8-C7-H33=133.82          H34-C8-C7-N4=257.40           H34-C8-C7-H32=136.78          H34-C8-C7-H33= 17.59          
C10-C9-C8-C7=229.74           C10-C9-C8-C11=350.84          C10-C9-C8-H34=111.44          H35-C9-C8-C7= 50.23           
H35-C9-C8-C11=171.34          H35-C9-C8-H34=291.93          H36-C10-C9-C8=180.33          H36-C10-C9-H35=359.80         
H37-C10-C9-C8=359.82          H37-C10-C9-H35=179.30         
           -------------------------------------------------
          |                Final Singlepoint                |
           -------------------------------------------------

          ...................................................
          :                      SETUP                      :
          :.................................................:
          :  # basis functions                 120          :
          :  # atomic orbitals                 120          :
          :  # shells                           72          :
          :  # electrons                       126          :
          :  max. iterations                   250          :
          :  Hamiltonian                  GFN2-xTB          :
          :  restarted?                      false          :
          :  GBSA solvation                  false          :
          :  PC potential                    false          :
          :  electronic temp.          300.0000000     K    :
          :  accuracy                    1.0000000          :
          :  -> integral cutoff          0.2500000E+02      :
          :  -> integral neglect         0.1000000E-07      :
          :  -> SCF convergence          0.1000000E-05 Eh   :
          :  -> wf. convergence          0.1000000E-03 e    :
          :  Broyden damping             0.4000000          :
          :  net charge                          0          :
          :  unpaired electrons                  0          :
          ...................................................

 iter      E             dE          RMSdq      gap      omega  full diag
   1    -70.0251770 -0.700252E+02  0.701E-05    2.45       0.0  T
   2    -70.0251770 -0.493685E-10  0.523E-05    2.45     275.8  T
   3    -70.0251770 -0.103725E-09  0.236E-05    2.45     612.3  T

   *** convergence criteria satisfied after 3 iterations ***

         #    Occupation            Energy/Eh            Energy/eV
      -------------------------------------------------------------
         1        2.0000           -0.7159909             -19.4831
       ...           ...                  ...                  ...
        57        2.0000           -0.4185537             -11.3894
        58        2.0000           -0.4070068             -11.0752
        59        2.0000           -0.4004482             -10.8967
        60        2.0000           -0.3960605             -10.7774
        61        2.0000           -0.3721477             -10.1267
        62        2.0000           -0.3627145              -9.8700
        63        2.0000           -0.3578940              -9.7388 (HOMO)
        64                         -0.2679055              -7.2901 (LUMO)
        65                         -0.2266294              -6.1669
        66                         -0.2071206              -5.6360
        67                         -0.1951364              -5.3099
        68                         -0.1470345              -4.0010
       ...                                ...                  ...
       120                          0.6859249              18.6650
      -------------------------------------------------------------
                  HL-Gap            0.0899884 Eh            2.4487 eV
             Fermi-level           -0.3128997 Eh           -8.5144 eV

 SCC (total)                   0 d,  0 h,  0 min,  0.056 sec
 SCC setup                      ...        0 min,  0.000 sec (  0.634%)
 Dispersion                     ...        0 min,  0.000 sec (  0.697%)
 classical contributions        ...        0 min,  0.000 sec (  0.320%)
 integral evaluation            ...        0 min,  0.009 sec ( 15.950%)
 iterations                     ...        0 min,  0.007 sec ( 12.890%)
 molecular gradient             ...        0 min,  0.039 sec ( 69.204%)
 printout                       ...        0 min,  0.000 sec (  0.293%)

         :::::::::::::::::::::::::::::::::::::::::::::::::::::
         ::                     SUMMARY                     ::
         :::::::::::::::::::::::::::::::::::::::::::::::::::::
         :: total energy             -69.041993222457 Eh    ::
         :: gradient norm              0.000386480291 Eh/a0 ::
         :: HOMO-LUMO gap              2.448710275349 eV    ::
         ::.................................................::
         :: SCC energy               -70.024272248312 Eh    ::
         :: -> isotropic ES            0.054746605520 Eh    ::
         :: -> anisotropic ES          0.007301897451 Eh    ::
         :: -> anisotropic XC          0.036179875493 Eh    ::
         :: -> dispersion             -0.054690722015 Eh    ::
         :: repulsion energy           0.982279025855 Eh    ::
         :: add. restraining           0.000000000000 Eh    ::
         :: total charge               0.000000000000 e     ::
         :::::::::::::::::::::::::::::::::::::::::::::::::::::

           -------------------------------------------------
          |                Property Printout                |
           -------------------------------------------------

    * Orbital Energies and Occupations

         #    Occupation            Energy/Eh            Energy/eV
      -------------------------------------------------------------
         1        2.0000           -0.7159909             -19.4831
       ...           ...                  ...                  ...
        51        2.0000           -0.4394708             -11.9586
        52        2.0000           -0.4374540             -11.9037
        53        2.0000           -0.4360813             -11.8664
        54        2.0000           -0.4350299             -11.8378
        55        2.0000           -0.4266855             -11.6107
        56        2.0000           -0.4208647             -11.4523
        57        2.0000           -0.4185537             -11.3894
        58        2.0000           -0.4070068             -11.0752
        59        2.0000           -0.4004482             -10.8967
        60        2.0000           -0.3960605             -10.7774
        61        2.0000           -0.3721477             -10.1267
        62        2.0000           -0.3627145              -9.8700
        63        2.0000           -0.3578940              -9.7388 (HOMO)
        64                         -0.2679055              -7.2901 (LUMO)
        65                         -0.2266294              -6.1669
        66                         -0.2071206              -5.6360
        67                         -0.1951364              -5.3099
        68                         -0.1470345              -4.0010
        69                         -0.0628939              -1.7114
        70                          0.0130750               0.3558
        71                          0.0262023               0.7130
        72                          0.0301967               0.8217
        73                          0.0380557               1.0355
        74                          0.0556752               1.5150
       ...                                ...                  ...
       120                          0.6859249              18.6650
      -------------------------------------------------------------
                  HL-Gap            0.0899884 Eh            2.4487 eV
             Fermi-level           -0.3128997 Eh           -8.5144 eV

     #   Z          covCN         q      C6AA      α(0)
     1   8 O        1.655    -0.444    21.721     6.291
     2   6 C        3.732     0.111    18.849     6.197
     3   6 C        3.827     0.031    20.026     6.368
     4   7 N        2.729    -0.197    25.283     7.468
     5   6 C        3.783     0.009    20.439     6.440
     6   6 C        3.808    -0.065    21.739     6.637
     7   6 C        3.776     0.009    20.455     6.444
     8   6 C        3.860    -0.027    21.012     6.519
     9   6 C        2.888    -0.032    28.802     8.799
    10   6 C        2.835    -0.095    30.373     9.031
    11   6 C        3.865    -0.008    20.686     6.468
    12   6 C        3.809    -0.065    21.745     6.638
    13   6 C        2.972     0.013    27.709     8.634
    14   6 C        2.916    -0.051    29.274     8.872
    15   6 C        2.904     0.060    26.647     8.464
    16   7 N        1.842    -0.233    26.939     7.692
    17   6 C        2.977     0.080    26.212     8.398
    18   6 C        2.983     0.004    27.920     8.667
    19   6 C        2.917    -0.065    29.610     8.923
    20   6 C        2.861     0.142    24.903     8.180
    21   8 O        1.706    -0.269    18.454     5.800
    22   6 C        3.643     0.038    20.275     6.473
    23   6 C        2.913    -0.060    29.493     8.905
    24   6 C        2.923    -0.040    29.005     8.832
    25   1 H        0.804     0.304     0.709     1.323
    26   1 H        0.922     0.015     2.817     2.625
    27   1 H        0.924     0.040     2.446     2.446
    28   1 H        0.924     0.034     2.536     2.490
    29   1 H        0.924     0.033     2.544     2.494
    30   1 H        0.924     0.028     2.611     2.527
    31   1 H        0.924     0.030     2.584     2.514
    32   1 H        0.924     0.037     2.487     2.466
    33   1 H        0.924     0.031     2.576     2.510
    34   1 H        0.923     0.036     2.507     2.476
    35   1 H        0.925     0.029     2.594     2.519
    36   1 H        0.926     0.035     2.515     2.480
    37   1 H        0.926     0.037     2.483     2.464
    38   1 H        0.924     0.028     2.621     2.532
    39   1 H        0.924     0.035     2.512     2.479
    40   1 H        0.924     0.026     2.646     2.544
    41   1 H        0.926     0.029     2.606     2.525
    42   1 H        0.925     0.036     2.500     2.473
    43   1 H        0.926     0.071     2.072     2.251
    44   1 H        0.925     0.062     2.177     2.308
    45   1 H        0.924     0.041     2.435     2.440
    46   1 H        0.924     0.039     2.460     2.453
    47   1 H        0.926     0.040     2.448     2.447
    48   1 H        0.926     0.056     2.241     2.341

 Mol. C6AA /au·bohr⁶  :      24098.379196
 Mol. C8AA /au·bohr⁸  :     561768.106425
 Mol. α(0) /au        :        239.266260


Wiberg/Mayer (AO) data.
largest (>0.10) Wiberg bond orders for each atom

 ---------------------------------------------------------------------------
     #   Z sym  total        # sym  WBO       # sym  WBO       # sym  WBO
 ---------------------------------------------------------------------------
     1   8 O    1.963 --     2 C    0.995    25 H    0.875
     2   6 C    3.962 --     1 O    0.995    13 C    0.992     3 C    0.952
                            26 H    0.949
     3   6 C    3.982 --     4 N    0.987    12 C    0.985    27 H    0.962
                             2 C    0.952
     4   7 N    3.137 --     7 C    1.006     5 C    0.999     3 C    0.987
     5   6 C    3.985 --     4 N    0.999     6 C    0.990    28 H    0.976
                            29 H    0.975
     6   6 C    3.998 --    11 C    0.997     5 C    0.990    31 H    0.980
                            30 H    0.980
     7   6 C    3.986 --     4 N    1.006    33 H    0.975    32 H    0.970
                             8 C    0.962
     8   6 C    3.996 --     9 C    1.017    11 C    0.986     7 C    0.962
                            34 H    0.952
     9   6 C    3.991 --    10 C    1.973     8 C    1.017    35 H    0.965
    10   6 C    3.992 --     9 C    1.973    36 H    0.976    37 H    0.973
    11   6 C    3.996 --     6 C    0.997    12 C    0.997     8 C    0.986
                            38 H    0.966
    12   6 C    3.997 --    11 C    0.997     3 C    0.985    40 H    0.979
                            39 H    0.972
    13   6 C    3.985 --    14 C    1.528    18 C    1.247     2 C    0.992
                            16 N    0.103
    14   6 C    3.990 --    13 C    1.528    15 C    1.308    41 H    0.967
    15   6 C    3.974 --    16 N    1.549    14 C    1.308    42 H    0.963
    16   7 N    3.063 --    15 C    1.549    17 C    1.286    13 C    0.103
    17   6 C    3.983 --    16 N    1.286    24 C    1.274    18 C    1.225
    18   6 C    3.989 --    19 C    1.313    13 C    1.247    17 C    1.225
    19   6 C    3.985 --    20 C    1.444    18 C    1.313    43 H    0.957
                            24 C    0.115
    20   6 C    3.934 --    19 C    1.444    23 C    1.275    21 O    1.061
    21   8 O    2.225 --    20 C    1.061    22 C    0.986
    22   6 C    3.947 --    21 O    0.986    44 H    0.979    45 H    0.977
                            46 H    0.977
    23   6 C    3.989 --    24 C    1.554    20 C    1.275    47 H    0.965
    24   6 C    3.989 --    23 C    1.554    17 C    1.274    48 H    0.967
                            19 C    0.115
    25   1 H    0.907 --     1 O    0.875
    26   1 H    0.999 --     2 C    0.949
    27   1 H    0.998 --     3 C    0.962
    28   1 H    0.998 --     5 C    0.976
    29   1 H    0.999 --     5 C    0.975
    30   1 H    0.999 --     6 C    0.980
    31   1 H    0.999 --     6 C    0.980
    32   1 H    0.999 --     7 C    0.970
    33   1 H    0.999 --     7 C    0.975
    34   1 H    0.999 --     8 C    0.952
    35   1 H    0.999 --     9 C    0.965
    36   1 H    0.998 --    10 C    0.976
    37   1 H    0.999 --    10 C    0.973
    38   1 H    0.999 --    11 C    0.966
    39   1 H    0.999 --    12 C    0.972
    40   1 H    0.999 --    12 C    0.979
    41   1 H    0.999 --    14 C    0.967
    42   1 H    0.998 --    15 C    0.963
    43   1 H    0.995 --    19 C    0.957
    44   1 H    0.996 --    22 C    0.979
    45   1 H    0.998 --    22 C    0.977
    46   1 H    0.998 --    22 C    0.977
    47   1 H    0.998 --    23 C    0.965
    48   1 H    0.996 --    24 C    0.967
 ---------------------------------------------------------------------------

Topologies differ in total number of bonds
Writing topology from bond orders to xtbtopo.mol

molecular dipole:
                 x           y           z       tot (Debye)
 q only:        0.192       1.005       0.184
   full:        0.665       1.260       0.274       3.689
molecular quadrupole (traceless):
                xx          xy          yy          xz          yz          zz
 q only:       11.255      -8.189      -3.802      -4.014      -0.623      -7.454
  q+dip:       15.234     -12.928      -4.365      -6.726       0.384     -10.868
   full:       14.882     -11.673      -4.742      -4.151       2.737     -10.140

           -------------------------------------------------
          |                Geometry Summary                 |
           -------------------------------------------------

      molecular mass/u    :      324.4175123
   center of mass at/Å    :       -0.3775522      -0.2119485      -0.0749616
  moments of inertia/u·Å² :        0.1225753E+04   0.3254765E+04   0.3955689E+04
rotational constants/cm⁻¹ :        0.1375288E-01   0.5179370E-02   0.4261617E-02

 * 47 selected distances

     #   Z          #   Z                                           value/Å
     1   8 O        2   6 C                                       1.4067208
     3   6 C        4   7 N                                       1.4647520
     4   7 N        5   6 C                                       1.4568201
     5   6 C        6   6 C                                       1.5432252 (max)
     4   7 N        7   6 C                                       1.4549091
     9   6 C       10   6 C                                       1.3201093
     6   6 C       11   6 C                                       1.5340463
     8   6 C       11   6 C                                       1.5346937
     3   6 C       12   6 C                                       1.5368242
    11   6 C       12   6 C                                       1.5335444
    13   6 C       14   6 C                                       1.3732251
    14   6 C       15   6 C                                       1.4040502
    15   6 C       16   7 N                                       1.3014895
    16   7 N       17   6 C                                       1.3472898
    13   6 C       18   6 C                                       1.4224315
    17   6 C       18   6 C                                       1.4268873
    18   6 C       19   6 C                                       1.4031405
    19   6 C       20   6 C                                       1.3790556
    20   6 C       21   8 O                                       1.3632269
    21   8 O       22   6 C                                       1.4063405
    20   6 C       23   6 C                                       1.4083163
    17   6 C       24   6 C                                       1.4080099
    23   6 C       24   6 C                                       1.3665415
     1   8 O       25   1 H                                       0.9690915 (min)
     2   6 C       26   1 H                                       1.1046855
     3   6 C       27   1 H                                       1.0947641
     5   6 C       28   1 H                                       1.0921924
     5   6 C       29   1 H                                       1.0927612
     6   6 C       30   1 H                                       1.0909004
     6   6 C       31   1 H                                       1.0912024
     7   6 C       32   1 H                                       1.0911008
     7   6 C       33   1 H                                       1.0934117
     8   6 C       34   1 H                                       1.0979739
     9   6 C       35   1 H                                       1.0843732
    10   6 C       36   1 H                                       1.0771503
    10   6 C       37   1 H                                       1.0764584
    11   6 C       38   1 H                                       1.0921557
    12   6 C       39   1 H                                       1.0905916
    12   6 C       40   1 H                                       1.0907819
    14   6 C       41   1 H                                       1.0802727
    15   6 C       42   1 H                                       1.0828820
    19   6 C       43   1 H                                       1.0766936
    22   6 C       44   1 H                                       1.0890651
    22   6 C       45   1 H                                       1.0946831
    22   6 C       46   1 H                                       1.0951637
    23   6 C       47   1 H                                       1.0789819
    24   6 C       48   1 H                                       1.0787691

 * 5 distinct bonds (by element types)

   Z      Z             #   av. dist./Å        max./Å        min./Å
   1 H    6 C          23     1.0885658     1.1046855     1.0764584
   6 C    6 C          15     1.4396067     1.5432252     1.3201093
   6 C    7 N           5     1.4050521     1.4647520     1.3014895
   1 H    8 O           1     0.9690915     0.9690915     0.9690915
   6 C    8 O           3     1.3920961     1.4067208     1.3632269


optimized geometry written to: xtbopt.xyz


           -------------------------------------------------
          | TOTAL ENERGY              -69.041993222457 Eh   |
          | GRADIENT NORM               0.000386480291 Eh/α |
          | HOMO-LUMO GAP               2.448710275349 eV   |
           -------------------------------------------------

------------------------------------------------------------------------
 * finished run on 2025/05/15 at 16:31:09.798     
------------------------------------------------------------------------
 total:
 * wall-time:     0 d,  0 h,  0 min,  1.643 sec
 *  cpu-time:     0 d,  0 h,  0 min,  1.133 sec
 * ratio c/w:     0.690 speedup
 SCF:
 * wall-time:     0 d,  0 h,  0 min,  0.098 sec
 *  cpu-time:     0 d,  0 h,  0 min,  0.071 sec
 * ratio c/w:     0.722 speedup
 ANC optimizer:
 * wall-time:     0 d,  0 h,  0 min,  1.508 sec
 *  cpu-time:     0 d,  0 h,  0 min,  1.048 sec
 * ratio c/w:     0.695 speedup



----- Single-point -----
      -----------------------------------------------------------      
     |                   =====================                   |     
     |                           x T B                           |     
     |                   =====================                   |     
     |                         S. Grimme                         |     
     |          Mulliken Center for Theoretical Chemistry        |     
     |                    University of Bonn                     |     
      -----------------------------------------------------------      

   * xtb version 6.7.1 (edcfbbe) compiled by 'conda@3ef47c1a292c' on 2024-11-25

   xtb is free software: you can redistribute it and/or modify it under
   the terms of the GNU Lesser General Public License as published by
   the Free Software Foundation, either version 3 of the License, or
   (at your option) any later version.
   
   xtb is distributed in the hope that it will be useful,
   but WITHOUT ANY WARRANTY; without even the implied warranty of
   MERCHANTABILITY or FITNESS FOR A PARTICULAR PURPOSE.  See the
   GNU Lesser General Public License for more details.
   
   Cite this work as:
   * C. Bannwarth, E. Caldeweyher, S. Ehlert, A. Hansen, P. Pracht,
     J. Seibert, S. Spicher, S. Grimme, WIREs Comput. Mol. Sci., 2020, 11,
     e01493. DOI: 10.1002/wcms.1493
   
   for GFN2-xTB:
   * C. Bannwarth, S. Ehlert and S. Grimme., J. Chem. Theory Comput., 2019,
     15, 1652-1671. DOI: 10.1021/acs.jctc.8b01176
   for GFN1-xTB:
   * S. Grimme, C. Bannwarth, P. Shushkov, J. Chem. Theory Comput., 2017,
     13, 1989-2009. DOI: 10.1021/acs.jctc.7b00118
   for GFN0-xTB:
   * P. Pracht, E. Caldeweyher, S. Ehlert, S. Grimme, ChemRxiv, 2019, preprint.
     DOI: 10.26434/chemrxiv.8326202.v1
   for GFN-FF:
   * S. Spicher and S. Grimme, Angew. Chem. Int. Ed., 2020, 59, 15665-15673.
     DOI: 10.1002/anie.202004239
   
   for ALPB and GBSA implicit solvation:
   * S. Ehlert, M. Stahn, S. Spicher, S. Grimme, J. Chem. Theory Comput.,
     2021, 17, 4250-4261. DOI: 10.1021/acs.jctc.1c00471
   
   for ddCOSMO and CPCM-X implicit solvation:
   * M. Stahn, S. Ehlert, S. Grimme, J. Phys. Chem. A,
     2023, XX, XXXX-XXXX. DOI: 10.1021/acs.jpca.3c04382
   
   for DFT-D4:
   * E. Caldeweyher, C. Bannwarth and S. Grimme, J. Chem. Phys., 2017,
     147, 034112. DOI: 10.1063/1.4993215
   * E. Caldeweyher, S. Ehlert, A. Hansen, H. Neugebauer, S. Spicher,
     C. Bannwarth and S. Grimme, J. Chem. Phys., 2019, 150, 154122.
     DOI: 10.1063/1.5090222
   * E. Caldeweyher, J.-M. Mewes, S. Ehlert and S. Grimme, Phys. Chem. Chem. Phys.
     2020, 22, 8499-8512. DOI: 10.1039/D0CP00502A
   
   for sTDA-xTB:
   * S. Grimme and C. Bannwarth, J. Chem. Phys., 2016, 145, 054103.
     DOI: 10.1063/1.4959605
   
   in the mass-spec context:
   * V. Asgeirsson, C. Bauer and S. Grimme, Chem. Sci., 2017, 8, 4879.
     DOI: 10.1039/c7sc00601b
   * J. Koopman and S. Grimme, ACS Omega 2019, 4, 12, 15120-15133.
     DOI: 10.1021/acsomega.9b02011
   
   for metadynamics refer to:
   * S. Grimme, J. Chem. Theory Comput., 2019, 155, 2847-2862
     DOI: 10.1021/acs.jctc.9b00143
   
   for SPH calculations refer to:
   * S. Spicher and S. Grimme, J. Chem. Theory Comput., 2021, 17, 1701-1714
     DOI: 10.1021/acs.jctc.0c01306
   
   for ONIOM refer to:
   * C. Plett, A. Katbashev, S. Ehlert, S. Grimme, M. Bursch,
     Phys. Chem. Chem. Phys., 2023, 25, 17860-17868. DOI: 10.1039/D3CP02178E
   
   for DIPRO refer to:
   * J. Kohn, N. Gildemeister, S. Grimme, D. Fazzi, A. Hansen,
     J. Chem. Phys., 2023, just accepted.
   
   for PTB refer to:
   * S. Grimme, M. Mueller, A. Hansen, J. Chem. Phys., 2023, 158, 124111.
     DOI: 10.1063/5.0137838
   
   with help from (in alphabetical order)
   P. Atkinson, C. Bannwarth, F. Bohle, G. Brandenburg, E. Caldeweyher
   M. Checinski, S. Dohm, S. Ehlert, S. Ehrlich, I. Gerasimov, C. Hölzer
   A. Katbashev, J. Kohn, J. Koopman, C. Lavigne, S. Lehtola, F. März, M. Müller,
   F. Musil, H. Neugebauer, J. Pisarek, C. Plett, P. Pracht, F. Pultar,
   J. Seibert, P. Shushkov, S. Spicher, M. Stahn, M. Steiner, T. Strunk,
   J. Stückrath, T. Rose, and J. Unsleber
   
 * started run on 2025/05/15 at 16:31:09.828     
   ID    Z sym.   atoms
    1    8 O      1, 21
    2    6 C      2, 3, 5-15, 17-20, 22-24
    3    7 N      4, 16
    4    1 H      25-48

           -------------------------------------------------
          |                Calculation Setup                |
           -------------------------------------------------

          program call               : xtb /rds/general/user/hgt20/home/callum/QDESCP/Quinine_rdkit_conf_10/Quinine_rdkit_conf_10.xyz --acc 1 --gfn 2 --chrg 0 --uhf 0 --etemp 300 --input /rds/general/user/hgt20/home/callum/QDESCP/Quinine_rdkit_conf_10/Quinine_rdkit_conf_10_xtb.inp -P 1
          hostname                   : login-c
          coordinate file            : /rds/general/user/hgt20/home/callum/QDESCP/Quinine_rdkit_conf_10/Quinine_rdkit_conf_10.xyz
          omp threads                :                     1


           -------------------------------------------------
          |                 G F N 2 - x T B                 |
           -------------------------------------------------

        Reference                      10.1021/acs.jctc.8b01176
      * Hamiltonian:
        H0-scaling (s, p, d)           1.850000    2.230000    2.230000
        zeta-weighting                 0.500000
      * Dispersion:
        s8                             2.700000
        a1                             0.520000
        a2                             5.000000
        s9                             5.000000
      * Repulsion:
        kExp                           1.500000    1.000000
        rExp                           1.000000
      * Coulomb:
        alpha                          2.000000
        third order                    shell-resolved
        anisotropic                    true
        a3                             3.000000
        a5                             4.000000
        cn-shift                       1.200000
        cn-exp                         4.000000
        max-rad                        5.000000

q/qsh data taken from xtbrestart
CAMM data taken from xtbrestart

          ...................................................
          :                      SETUP                      :
          :.................................................:
          :  # basis functions                 120          :
          :  # atomic orbitals                 120          :
          :  # shells                           72          :
          :  # electrons                       126          :
          :  max. iterations                   250          :
          :  Hamiltonian                  GFN2-xTB          :
          :  restarted?                       true          :
          :  GBSA solvation                  false          :
          :  PC potential                    false          :
          :  electronic temp.          300.0000000     K    :
          :  accuracy                    1.0000000          :
          :  -> integral cutoff          0.2500000E+02      :
          :  -> integral neglect         0.1000000E-07      :
          :  -> SCF convergence          0.1000000E-05 Eh   :
          :  -> wf. convergence          0.1000000E-03 e    :
          :  Broyden damping             0.4000000          :
          :  net charge                          0          :
          :  unpaired electrons                  0          :
          ...................................................

 iter      E             dE          RMSdq      gap      omega  full diag
   1    -70.0251770 -0.700252E+02  0.916E-06    2.45       0.0  T
   2    -70.0251770 -0.144951E-11  0.681E-06    2.45    2121.0  T
   3    -70.0251770 -0.198952E-11  0.300E-06    2.45    4806.7  T

   *** convergence criteria satisfied after 3 iterations ***

         #    Occupation            Energy/Eh            Energy/eV
      -------------------------------------------------------------
         1        2.0000           -0.7159908             -19.4831
       ...           ...                  ...                  ...
        57        2.0000           -0.4185537             -11.3894
        58        2.0000           -0.4070068             -11.0752
        59        2.0000           -0.4004482             -10.8968
        60        2.0000           -0.3960605             -10.7774
        61        2.0000           -0.3721477             -10.1267
        62        2.0000           -0.3627146              -9.8700
        63        2.0000           -0.3578939              -9.7388 (HOMO)
        64                         -0.2679055              -7.2901 (LUMO)
        65                         -0.2266294              -6.1669
        66                         -0.2071207              -5.6360
        67                         -0.1951364              -5.3099
        68                         -0.1470345              -4.0010
       ...                                ...                  ...
       120                          0.6859249              18.6650
      -------------------------------------------------------------
                  HL-Gap            0.0899884 Eh            2.4487 eV
             Fermi-level           -0.3128997 Eh           -8.5144 eV

 SCC (total)                   0 d,  0 h,  0 min,  0.058 sec
 SCC setup                      ...        0 min,  0.000 sec (  0.756%)
 Dispersion                     ...        0 min,  0.001 sec (  1.018%)
 classical contributions        ...        0 min,  0.000 sec (  0.321%)
 integral evaluation            ...        0 min,  0.009 sec ( 16.048%)
 iterations                     ...        0 min,  0.009 sec ( 14.781%)
 molecular gradient             ...        0 min,  0.039 sec ( 66.658%)
 printout                       ...        0 min,  0.000 sec (  0.406%)

         :::::::::::::::::::::::::::::::::::::::::::::::::::::
         ::                     SUMMARY                     ::
         :::::::::::::::::::::::::::::::::::::::::::::::::::::
         :: total energy             -69.041993222461 Eh    ::
         :: gradient norm              0.000386387982 Eh/a0 ::
         :: HOMO-LUMO gap              2.448708351931 eV    ::
         ::.................................................::
         :: SCC energy               -70.024272248316 Eh    ::
         :: -> isotropic ES            0.054746554279 Eh    ::
         :: -> anisotropic ES          0.007301887202 Eh    ::
         :: -> anisotropic XC          0.036179874484 Eh    ::
         :: -> dispersion             -0.054690723429 Eh    ::
         :: repulsion energy           0.982279025855 Eh    ::
         :: add. restraining           0.000000000000 Eh    ::
         :: total charge              -0.000000000000 e     ::
         :::::::::::::::::::::::::::::::::::::::::::::::::::::

           -------------------------------------------------
          |                Property Printout                |
           -------------------------------------------------

    * Orbital Energies and Occupations

         #    Occupation            Energy/Eh            Energy/eV
      -------------------------------------------------------------
         1        2.0000           -0.7159908             -19.4831
       ...           ...                  ...                  ...
        51        2.0000           -0.4394708             -11.9586
        52        2.0000           -0.4374540             -11.9037
        53        2.0000           -0.4360813             -11.8664
        54        2.0000           -0.4350299             -11.8378
        55        2.0000           -0.4266855             -11.6107
        56        2.0000           -0.4208647             -11.4523
        57        2.0000           -0.4185537             -11.3894
        58        2.0000           -0.4070068             -11.0752
        59        2.0000           -0.4004482             -10.8968
        60        2.0000           -0.3960605             -10.7774
        61        2.0000           -0.3721477             -10.1267
        62        2.0000           -0.3627146              -9.8700
        63        2.0000           -0.3578939              -9.7388 (HOMO)
        64                         -0.2679055              -7.2901 (LUMO)
        65                         -0.2266294              -6.1669
        66                         -0.2071207              -5.6360
        67                         -0.1951364              -5.3099
        68                         -0.1470345              -4.0010
        69                         -0.0628940              -1.7114
        70                          0.0130749               0.3558
        71                          0.0262023               0.7130
        72                          0.0301968               0.8217
        73                          0.0380557               1.0355
        74                          0.0556751               1.5150
       ...                                ...                  ...
       120                          0.6859249              18.6650
      -------------------------------------------------------------
                  HL-Gap            0.0899884 Eh            2.4487 eV
             Fermi-level           -0.3128997 Eh           -8.5144 eV

     #   Z          covCN         q      C6AA      α(0)
     1   8 O        1.655    -0.444    21.721     6.291
     2   6 C        3.732     0.111    18.849     6.197
     3   6 C        3.827     0.031    20.026     6.368
     4   7 N        2.729    -0.197    25.283     7.468
     5   6 C        3.783     0.009    20.439     6.440
     6   6 C        3.808    -0.065    21.739     6.637
     7   6 C        3.776     0.009    20.455     6.444
     8   6 C        3.860    -0.027    21.012     6.519
     9   6 C        2.888    -0.032    28.802     8.799
    10   6 C        2.835    -0.095    30.373     9.031
    11   6 C        3.865    -0.008    20.686     6.468
    12   6 C        3.809    -0.065    21.745     6.638
    13   6 C        2.972     0.013    27.709     8.634
    14   6 C        2.916    -0.051    29.274     8.872
    15   6 C        2.904     0.060    26.647     8.464
    16   7 N        1.842    -0.233    26.939     7.692
    17   6 C        2.977     0.080    26.212     8.398
    18   6 C        2.983     0.004    27.920     8.667
    19   6 C        2.917    -0.065    29.610     8.923
    20   6 C        2.861     0.142    24.903     8.180
    21   8 O        1.706    -0.269    18.454     5.800
    22   6 C        3.643     0.038    20.275     6.473
    23   6 C        2.913    -0.060    29.493     8.905
    24   6 C        2.923    -0.040    29.005     8.832
    25   1 H        0.804     0.304     0.709     1.323
    26   1 H        0.922     0.015     2.817     2.625
    27   1 H        0.924     0.040     2.446     2.446
    28   1 H        0.924     0.034     2.536     2.490
    29   1 H        0.924     0.033     2.544     2.494
    30   1 H        0.924     0.028     2.611     2.527
    31   1 H        0.924     0.030     2.584     2.514
    32   1 H        0.924     0.037     2.487     2.466
    33   1 H        0.924     0.031     2.576     2.510
    34   1 H        0.923     0.036     2.507     2.476
    35   1 H        0.925     0.029     2.594     2.519
    36   1 H        0.926     0.035     2.515     2.480
    37   1 H        0.926     0.037     2.483     2.464
    38   1 H        0.924     0.028     2.621     2.532
    39   1 H        0.924     0.035     2.512     2.479
    40   1 H        0.924     0.026     2.646     2.544
    41   1 H        0.926     0.029     2.606     2.525
    42   1 H        0.925     0.036     2.500     2.473
    43   1 H        0.926     0.071     2.072     2.251
    44   1 H        0.925     0.062     2.177     2.308
    45   1 H        0.924     0.041     2.435     2.440
[...]
   
   for sTDA-xTB:
   * S. Grimme and C. Bannwarth, J. Chem. Phys., 2016, 145, 054103.
     DOI: 10.1063/1.4959605
   
   in the mass-spec context:
   * V. Asgeirsson, C. Bauer and S. Grimme, Chem. Sci., 2017, 8, 4879.
     DOI: 10.1039/c7sc00601b
   * J. Koopman and S. Grimme, ACS Omega 2019, 4, 12, 15120-15133.
     DOI: 10.1021/acsomega.9b02011
   
   for metadynamics refer to:
   * S. Grimme, J. Chem. Theory Comput., 2019, 155, 2847-2862
     DOI: 10.1021/acs.jctc.9b00143
   
   for SPH calculations refer to:
   * S. Spicher and S. Grimme, J. Chem. Theory Comput., 2021, 17, 1701-1714
     DOI: 10.1021/acs.jctc.0c01306
   
   for ONIOM refer to:
   * C. Plett, A. Katbashev, S. Ehlert, S. Grimme, M. Bursch,
     Phys. Chem. Chem. Phys., 2023, 25, 17860-17868. DOI: 10.1039/D3CP02178E
   
   for DIPRO refer to:
   * J. Kohn, N. Gildemeister, S. Grimme, D. Fazzi, A. Hansen,
     J. Chem. Phys., 2023, just accepted.
   
   for PTB refer to:
   * S. Grimme, M. Mueller, A. Hansen, J. Chem. Phys., 2023, 158, 124111.
     DOI: 10.1063/5.0137838
   
   with help from (in alphabetical order)
   P. Atkinson, C. Bannwarth, F. Bohle, G. Brandenburg, E. Caldeweyher
   M. Checinski, S. Dohm, S. Ehlert, S. Ehrlich, I. Gerasimov, C. Hölzer
   A. Katbashev, J. Kohn, J. Koopman, C. Lavigne, S. Lehtola, F. März, M. Müller,
   F. Musil, H. Neugebauer, J. Pisarek, C. Plett, P. Pracht, F. Pultar,
   J. Seibert, P. Shushkov, S. Spicher, M. Stahn, M. Steiner, T. Strunk,
   J. Stückrath, T. Rose, and J. Unsleber
   
 * started run on 2025/05/15 at 16:31:11.815     
   ID    Z sym.   atoms
    1    8 O      1, 21
    2    6 C      2, 3, 5-15, 17-20, 22-24
    3    7 N      4, 16
    4    1 H      25-48

           -------------------------------------------------
          |                Calculation Setup                |
           -------------------------------------------------

          program call               : xtb /rds/general/user/hgt20/home/callum/QDESCP/Quinine_rdkit_conf_10/Quinine_rdkit_conf_10.xyz --acc 1 --gfn 2 --chrg 0 --uhf 2 --etemp 300 --input /rds/general/user/hgt20/home/callum/QDESCP/Quinine_rdkit_conf_10/Quinine_rdkit_conf_10_xtb.inp -P 1
          hostname                   : login-c
          coordinate file            : /rds/general/user/hgt20/home/callum/QDESCP/Quinine_rdkit_conf_10/Quinine_rdkit_conf_10.xyz
          omp threads                :                     1


           -------------------------------------------------
          |                 G F N 2 - x T B                 |
           -------------------------------------------------

        Reference                      10.1021/acs.jctc.8b01176
      * Hamiltonian:
        H0-scaling (s, p, d)           1.850000    2.230000    2.230000
        zeta-weighting                 0.500000
      * Dispersion:
        s8                             2.700000
        a1                             0.520000
        a2                             5.000000
        s9                             5.000000
      * Repulsion:
        kExp                           1.500000    1.000000
        rExp                           1.000000
      * Coulomb:
        alpha                          2.000000
        third order                    shell-resolved
        anisotropic                    true
        a3                             3.000000
        a5                             4.000000
        cn-shift                       1.200000
        cn-exp                         4.000000
        max-rad                        5.000000


          ...................................................
          :                      SETUP                      :
          :.................................................:
          :  # basis functions                 120          :
          :  # atomic orbitals                 120          :
          :  # shells                           72          :
          :  # electrons                       126          :
          :  max. iterations                   250          :
          :  Hamiltonian                  GFN2-xTB          :
          :  restarted?                      false          :
          :  GBSA solvation                  false          :
          :  PC potential                    false          :
          :  electronic temp.          300.0000000     K    :
          :  accuracy                    1.0000000          :
          :  -> integral cutoff          0.2500000E+02      :
          :  -> integral neglect         0.1000000E-07      :
          :  -> SCF convergence          0.1000000E-05 Eh   :
          :  -> wf. convergence          0.1000000E-03 e    :
          :  Broyden damping             0.4000000          :
          :  net charge                          0          :
          :  unpaired electrons                  2          :
          ...................................................

 iter      E             dE          RMSdq      gap      omega  full diag
   1    -69.6392416 -0.696392E+02  0.352E+00    1.02       0.0  T
   2    -69.4211163  0.218125E+00  0.295E+00    0.71       1.0  T
   3    -69.4581470 -0.370307E-01  0.282E+00    1.24       1.0  T
   4    -69.8665153 -0.408368E+00  0.141E+00    1.15       1.0  T
   5    -69.7950455  0.714697E-01  0.130E+00    0.99       1.0  T
   6    -69.8858747 -0.908292E-01  0.622E-01    1.04       1.0  T
   7    -69.8865485 -0.673765E-03  0.756E-01    1.07       1.0  T
   8    -69.9188287 -0.322802E-01  0.337E-01    1.05       1.0  T
   9    -69.9117517  0.707691E-02  0.432E-01    1.05       1.0  T
  10    -69.9209142 -0.916247E-02  0.159E-01    1.04       1.0  T
  11    -69.9226988 -0.178460E-02  0.133E-01    1.04       1.0  T
  12    -69.9226997 -0.885342E-06  0.129E-01    1.04       1.0  T
  13    -69.9230095 -0.309795E-03  0.107E-01    1.04       1.0  T
  14    -69.9234132 -0.403665E-03  0.728E-02    1.04       1.0  T
  15    -69.9235290 -0.115836E-03  0.472E-02    1.04       1.0  T
  16    -69.9236876 -0.158644E-03  0.119E-02    1.04       1.2  T
  17    -69.9236945 -0.682739E-05  0.623E-03    1.04       2.3  T
  18    -69.9236964 -0.194913E-05  0.260E-03    1.04       5.6  T
  19    -69.9236970 -0.603456E-06  0.113E-03    1.04      12.8  T
  20    -69.9236971 -0.670671E-07  0.640E-04    1.04      22.5  T
  21    -69.9236971 -0.249886E-07  0.194E-04    1.04      74.4  T

   *** convergence criteria satisfied after 21 iterations ***

         #    Occupation            Energy/Eh            Energy/eV
      -------------------------------------------------------------
         1        2.0000           -0.7170983             -19.5132
       ...           ...                  ...                  ...
        58        2.0000           -0.4096260             -11.1465
        59        2.0000           -0.3982911             -10.8381
        60        2.0000           -0.3856004             -10.4927
        61        1.9949           -0.3698274             -10.0635
        62        1.6765           -0.3655262              -9.9465
        63        1.3286           -0.3641464              -9.9089
        64        1.0000           -0.2559730              -6.9654 (HOMO)
        65                         -0.2178983              -5.9293 (LUMO)
        66                         -0.2096515              -5.7049
        67                         -0.1861151              -5.0644
        68                         -0.1357083              -3.6928
        69                         -0.0551786              -1.5015
       ...                                ...                  ...
       120                          0.6935007              18.8711
      -------------------------------------------------------------
                  HL-Gap            0.0380747 Eh            1.0361 eV
             Fermi-level           -0.3008804 Eh           -8.1874 eV

 transition dipole moment (au) for excitation:          63          64
     X       Y       Z   
   0.8532   0.0944  -0.5665  total (au/Debye):    1.028   2.614
 dE (eV)             :    2.944
 oscillator strength :  0.10787E+00

 SCC (total)                   0 d,  0 h,  0 min,  0.131 sec
 SCC setup                      ...        0 min,  0.000 sec (  0.315%)
 Dispersion                     ...        0 min,  0.001 sec (  0.469%)
 classical contributions        ...        0 min,  0.000 sec (  0.141%)
 integral evaluation            ...        0 min,  0.009 sec (  7.079%)
 iterations                     ...        0 min,  0.083 sec ( 63.455%)
 molecular gradient             ...        0 min,  0.029 sec ( 22.303%)
 printout                       ...        0 min,  0.008 sec (  6.231%)

         :::::::::::::::::::::::::::::::::::::::::::::::::::::
         ::                     SUMMARY                     ::
         :::::::::::::::::::::::::::::::::::::::::::::::::::::
         :: total energy             -68.940513327667 Eh    ::
         :: gradient norm              0.104189319325 Eh/a0 ::
         :: HOMO-LUMO gap              1.036066620395 eV    ::
         ::.................................................::
         :: SCC energy               -69.922792353521 Eh    ::
         :: -> isotropic ES            0.051928219512 Eh    ::
         :: -> anisotropic ES          0.008194827535 Eh    ::
         :: -> anisotropic XC          0.030251147646 Eh    ::
         :: -> dispersion             -0.054631272869 Eh    ::
         :: repulsion energy           0.982279025855 Eh    ::
         :: add. restraining           0.000000000000 Eh    ::
         :: total charge              -0.000000000001 e     ::
         :::::::::::::::::::::::::::::::::::::::::::::::::::::

           -------------------------------------------------
          |                Property Printout                |
           -------------------------------------------------

    * Orbital Energies and Occupations

         #    Occupation            Energy/Eh            Energy/eV
      -------------------------------------------------------------
         1        2.0000           -0.7170983             -19.5132
       ...           ...                  ...                  ...
        52        2.0000           -0.4318716             -11.7518
        53        2.0000           -0.4314027             -11.7391
        54        2.0000           -0.4290108             -11.6740
        55        2.0000           -0.4226652             -11.5013
        56        2.0000           -0.4201165             -11.4320
        57        2.0000           -0.4155921             -11.3088
        58        2.0000           -0.4096260             -11.1465
        59        2.0000           -0.3982911             -10.8381
        60        2.0000           -0.3856004             -10.4927
        61        1.9949           -0.3698274             -10.0635
        62        1.6765           -0.3655262              -9.9465
        63        1.3286           -0.3641464              -9.9089
        64        1.0000           -0.2559730              -6.9654 (HOMO)
        65                         -0.2178983              -5.9293 (LUMO)
        66                         -0.2096515              -5.7049
        67                         -0.1861151              -5.0644
        68                         -0.1357083              -3.6928
        69                         -0.0551786              -1.5015
        70                          0.0102474               0.2788
        71                          0.0240024               0.6531
        72                          0.0307550               0.8369
        73                          0.0348961               0.9496
        74                          0.0552644               1.5038
        75                          0.0642214               1.7476
       ...                                ...                  ...
       120                          0.6935007              18.8711
      -------------------------------------------------------------
                  HL-Gap            0.0380747 Eh            1.0361 eV
             Fermi-level           -0.3008804 Eh           -8.1874 eV

     #   Z          covCN         q      C6AA      α(0)
     1   8 O        1.655    -0.438    21.604     6.275
     2   6 C        3.732     0.115    18.783     6.186
     3   6 C        3.827     0.029    20.073     6.375
     4   7 N        2.729    -0.182    24.948     7.418
     5   6 C        3.783     0.008    20.459     6.443
     6   6 C        3.808    -0.065    21.740     6.637
     7   6 C        3.776     0.007    20.479     6.448
     8   6 C        3.860    -0.026    20.994     6.516
     9   6 C        2.888    -0.032    28.804     8.799
    10   6 C        2.835    -0.094    30.349     9.028
    11   6 C        3.865    -0.010    20.708     6.471
    12   6 C        3.809    -0.066    21.756     6.640
    13   6 C        2.972    -0.028    28.700     8.787
    14   6 C        2.916    -0.059    29.454     8.900
    15   6 C        2.904     0.038    27.137     8.542
    16   7 N        1.842    -0.192    25.978     7.554
    17   6 C        2.977     0.084    26.123     8.384
    18   6 C        2.983     0.013    27.723     8.637
    19   6 C        2.917    -0.069    29.707     8.938
    20   6 C        2.861     0.141    24.930     8.184
    21   8 O        1.706    -0.254    18.201     5.760
    22   6 C        3.643     0.036    20.317     6.480
    23   6 C        2.913    -0.080    30.006     8.982
    24   6 C        2.923    -0.058    29.439     8.898
    25   1 H        0.804     0.302     0.715     1.328
    26   1 H        0.922     0.018     2.769     2.602
    27   1 H        0.924     0.043     2.411     2.428
    28   1 H        0.924     0.035     2.512     2.479
    29   1 H        0.924     0.036     2.500     2.473
    30   1 H        0.924     0.030     2.582     2.513
    31   1 H        0.924     0.033     2.542     2.493
    32   1 H        0.924     0.041     2.436     2.441
    33   1 H        0.924     0.033     2.545     2.495
    34   1 H        0.923     0.037     2.488     2.466
    35   1 H        0.925     0.031     2.579     2.511
    36   1 H        0.926     0.037     2.489     2.467
    37   1 H        0.926     0.039     2.461     2.453
    38   1 H        0.924     0.031     2.575     2.509
    39   1 H        0.924     0.040     2.454     2.450
    40   1 H        0.924     0.031     2.567     2.506
    41   1 H        0.926     0.025     2.655     2.548
    42   1 H        0.925     0.036     2.501     2.473
    43   1 H        0.926     0.072     2.063     2.246
    44   1 H        0.925     0.063     2.166     2.302
    45   1 H        0.924     0.047     2.355     2.400
    46   1 H        0.924     0.045     2.377     2.411
    47   1 H        0.926     0.030     2.592     2.517
    48   1 H        0.926     0.045     2.384     2.415

 Mol. C6AA /au·bohr⁶  :      24079.506160
 Mol. C8AA /au·bohr⁸  :     561826.381522
 Mol. α(0) /au        :        239.205685


Wiberg/Mayer (AO) data.
largest (>0.10) Wiberg bond orders for each atom

 ---------------------------------------------------------------------------
     #   Z sym  total        # sym  WBO       # sym  WBO       # sym  WBO
 ---------------------------------------------------------------------------
     1   8 O    1.971 --     2 C    0.994    25 H    0.875
     2   6 C    3.940 --     1 O    0.994    13 C    0.978     3 C    0.949
                            26 H    0.944
     3   6 C    3.969 --     4 N    0.985    12 C    0.982    27 H    0.961
                             2 C    0.949
     4   7 N    3.136 --     7 C    1.006     5 C    0.999     3 C    0.985
     5   6 C    3.981 --     4 N    0.999     6 C    0.987    28 H    0.976
                            29 H    0.974
     6   6 C    3.991 --    11 C    0.997     5 C    0.987    31 H    0.979
                            30 H    0.979
     7   6 C    3.981 --     4 N    1.006    33 H    0.975    32 H    0.969
                             8 C    0.958
     8   6 C    3.988 --     9 C    1.017    11 C    0.986     7 C    0.958
                            34 H    0.952
     9   6 C    3.990 --    10 C    1.973     8 C    1.017    35 H    0.965
    10   6 C    3.989 --     9 C    1.973    36 H    0.976    37 H    0.972
    11   6 C    3.995 --     6 C    0.997    12 C    0.997     8 C    0.986
                            38 H    0.964
    12   6 C    3.991 --    11 C    0.997     3 C    0.982    40 H    0.978
                            39 H    0.971
    13   6 C    3.857 --    14 C    1.343    18 C    1.231     2 C    0.978
    14   6 C    3.925 --    15 C    1.417    13 C    1.343    41 H    0.962
    15   6 C    3.915 --    14 C    1.417    16 N    1.358    42 H    0.953
    16   7 N    2.957 --    15 C    1.358    17 C    1.284
    17   6 C    3.922 --    16 N    1.284    24 C    1.272    18 C    1.185
    18   6 C    3.946 --    19 C    1.330    13 C    1.231    17 C    1.185
    19   6 C    3.820 --    18 C    1.330    20 C    1.262    43 H    0.946
    20   6 C    3.857 --    23 C    1.355    19 C    1.262    21 O    1.073
    21   8 O    2.209 --    20 C    1.073    22 C    0.988
    22   6 C    3.943 --    21 O    0.988    44 H    0.979    45 H    0.973
                            46 H    0.972
    23   6 C    3.971 --    24 C    1.415    20 C    1.355    47 H    0.964
    24   6 C    3.879 --    23 C    1.415    17 C    1.272    48 H    0.964
    25   1 H    0.907 --     1 O    0.875
    26   1 H    0.995 --     2 C    0.944
    27   1 H    0.998 --     3 C    0.961
    28   1 H    0.998 --     5 C    0.976
    29   1 H    0.998 --     5 C    0.974
    30   1 H    0.998 --     6 C    0.979
    31   1 H    0.998 --     6 C    0.979
    32   1 H    0.998 --     7 C    0.969
    33   1 H    0.998 --     7 C    0.975
    34   1 H    0.998 --     8 C    0.952
    35   1 H    0.999 --     9 C    0.965
    36   1 H    0.998 --    10 C    0.976
    37   1 H    0.998 --    10 C    0.972
    38   1 H    0.996 --    11 C    0.964
    39   1 H    0.998 --    12 C    0.971
    40   1 H    0.998 --    12 C    0.978
    41   1 H    0.993 --    14 C    0.962
    42   1 H    0.986 --    15 C    0.953
    43   1 H    0.987 --    19 C    0.946
    44   1 H    0.996 --    22 C    0.979
    45   1 H    0.993 --    22 C    0.973
    46   1 H    0.992 --    22 C    0.972
    47   1 H    0.996 --    23 C    0.964
    48   1 H    0.993 --    24 C    0.964
 ---------------------------------------------------------------------------

Topologies differ in total number of bonds
Writing topology from bond orders to xtbtopo.mol

molecular dipole:
                 x           y           z       tot (Debye)
 q only:        0.577       1.296       0.070
   full:        0.956       1.516       0.228       4.591
molecular quadrupole (traceless):
                xx          xy          yy          xz          yz          zz
 q only:       10.558      -9.479      -3.503      -2.725      -0.939      -7.055
  q+dip:       14.002     -12.488      -3.916      -6.547      -1.445     -10.087
   full:       13.877     -11.546      -4.229      -4.228       0.597      -9.648


           -------------------------------------------------
          | TOTAL ENERGY              -68.940513327667 Eh   |
          | GRADIENT NORM               0.104189319325 Eh/α |
          | HOMO-LUMO GAP               1.036066620395 eV   |
           -------------------------------------------------

------------------------------------------------------------------------
 * finished run on 2025/05/15 at 16:31:11.961     
------------------------------------------------------------------------
 total:
 * wall-time:     0 d,  0 h,  0 min,  0.146 sec
 *  cpu-time:     0 d,  0 h,  0 min,  0.113 sec
 * ratio c/w:     0.775 speedup
 SCF:
 * wall-time:     0 d,  0 h,  0 min,  0.131 sec
 *  cpu-time:     0 d,  0 h,  0 min,  0.099 sec
 * ratio c/w:     0.759 speedup


