26
 energy: -46.983443344353 gnorm: 0.000476849919 xtb: 6.7.1 (edcfbbe)
N           -4.36126212013094        1.14058895253236        0.52475747700594
C           -3.13699092318434        0.72497996133260        0.15825415397435
N           -2.92253865233666        0.55821691143210       -1.12535317491356
C           -1.74631577913037        0.14015373899420       -1.60663831602162
N           -0.70364503121774       -0.10347798168999       -0.63855790938229
C            0.59051499240178       -0.51691900130351       -1.13495058773862
C            0.87699256895517       -1.99351044070739       -0.82689362557097
S            1.86072903832606       -1.97317681147555        0.69846654005167
C            2.60987158884525       -0.42185896633447        0.08337531429902
O            1.58885369487129        0.29249095945793       -0.55977092661718
C            3.18637698360342        0.43416869947822        1.20877876336807
O            3.84470641507374        1.55886738745155        0.70467804234666
C           -0.92492033387206        0.06455565909731        0.68017847151649
C           -2.13109986914354        0.47298232211048        1.13973350588940
O           -1.49897830452380       -0.05350971593689       -2.77364083344187
H           -5.03101799319548        1.32867958482103       -0.19984531314634
H           -4.58691246392901        1.32455888925021        1.48468810807160
H            0.54717039201152       -0.35318860962448       -2.22288236690274
H            1.46644089705150       -2.45517692553882       -1.61916915657882
H           -0.03747766002760       -2.55833955360178       -0.66824318832599
H            3.39997557853803       -0.69373028754540       -0.63239534992349
H            2.36994813651287        0.72014122645864        1.88754956164942
H            3.92686928934451       -0.14374494862317        1.76531393971561
H            3.22881826550743        2.04277362643391        0.14061385922017
H           -0.09542650194963       -0.14543714193692        1.34169943890019
H           -2.32078220840049        0.60901246546768        2.19005357255416
