----- Optimization -----
      -----------------------------------------------------------      
     |                   =====================                   |     
     |                           x T B                           |     
     |                   =====================                   |     
     |                         S. Grimme                         |     
     |          Mulliken Center for Theoretical Chemistry        |     
     |                    University of Bonn                     |     
      -----------------------------------------------------------      

   * xtb version 6.7.1 (edcfbbe) compiled by 'conda@3ef47c1a292c' on 2024-11-25

   xtb is free software: you can redistribute it and/or modify it under
   the terms of the GNU Lesser General Public License as published by
   the Free Software Foundation, either version 3 of the License, or
   (at your option) any later version.
   
   xtb is distributed in the hope that it will be useful,
   but WITHOUT ANY WARRANTY; without even the implied warranty of
   MERCHANTABILITY or FITNESS FOR A PARTICULAR PURPOSE.  See the
   GNU Lesser General Public License for more details.
   
   Cite this work as:
   * C. Bannwarth, E. Caldeweyher, S. Ehlert, A. Hansen, P. Pracht,
     J. Seibert, S. Spicher, S. Grimme, WIREs Comput. Mol. Sci., 2020, 11,
     e01493. DOI: 10.1002/wcms.1493
   
   for GFN2-xTB:
   * C. Bannwarth, S. Ehlert and S. Grimme., J. Chem. Theory Comput., 2019,
     15, 1652-1671. DOI: 10.1021/acs.jctc.8b01176
   for GFN1-xTB:
   * S. Grimme, C. Bannwarth, P. Shushkov, J. Chem. Theory Comput., 2017,
     13, 1989-2009. DOI: 10.1021/acs.jctc.7b00118
   for GFN0-xTB:
   * P. Pracht, E. Caldeweyher, S. Ehlert, S. Grimme, ChemRxiv, 2019, preprint.
     DOI: 10.26434/chemrxiv.8326202.v1
   for GFN-FF:
   * S. Spicher and S. Grimme, Angew. Chem. Int. Ed., 2020, 59, 15665-15673.
     DOI: 10.1002/anie.202004239
   
   for ALPB and GBSA implicit solvation:
   * S. Ehlert, M. Stahn, S. Spicher, S. Grimme, J. Chem. Theory Comput.,
     2021, 17, 4250-4261. DOI: 10.1021/acs.jctc.1c00471
   
   for ddCOSMO and CPCM-X implicit solvation:
   * M. Stahn, S. Ehlert, S. Grimme, J. Phys. Chem. A,
     2023, XX, XXXX-XXXX. DOI: 10.1021/acs.jpca.3c04382
   
   for DFT-D4:
   * E. Caldeweyher, C. Bannwarth and S. Grimme, J. Chem. Phys., 2017,
     147, 034112. DOI: 10.1063/1.4993215
   * E. Caldeweyher, S. Ehlert, A. Hansen, H. Neugebauer, S. Spicher,
     C. Bannwarth and S. Grimme, J. Chem. Phys., 2019, 150, 154122.
     DOI: 10.1063/1.5090222
   * E. Caldeweyher, J.-M. Mewes, S. Ehlert and S. Grimme, Phys. Chem. Chem. Phys.
     2020, 22, 8499-8512. DOI: 10.1039/D0CP00502A
   
   for sTDA-xTB:
   * S. Grimme and C. Bannwarth, J. Chem. Phys., 2016, 145, 054103.
     DOI: 10.1063/1.4959605
   
   in the mass-spec context:
   * V. Asgeirsson, C. Bauer and S. Grimme, Chem. Sci., 2017, 8, 4879.
     DOI: 10.1039/c7sc00601b
   * J. Koopman and S. Grimme, ACS Omega 2019, 4, 12, 15120-15133.
     DOI: 10.1021/acsomega.9b02011
   
   for metadynamics refer to:
   * S. Grimme, J. Chem. Theory Comput., 2019, 155, 2847-2862
     DOI: 10.1021/acs.jctc.9b00143
   
   for SPH calculations refer to:
   * S. Spicher and S. Grimme, J. Chem. Theory Comput., 2021, 17, 1701-1714
     DOI: 10.1021/acs.jctc.0c01306
   
   for ONIOM refer to:
   * C. Plett, A. Katbashev, S. Ehlert, S. Grimme, M. Bursch,
     Phys. Chem. Chem. Phys., 2023, 25, 17860-17868. DOI: 10.1039/D3CP02178E
   
   for DIPRO refer to:
   * J. Kohn, N. Gildemeister, S. Grimme, D. Fazzi, A. Hansen,
     J. Chem. Phys., 2023, just accepted.
   
   for PTB refer to:
   * S. Grimme, M. Mueller, A. Hansen, J. Chem. Phys., 2023, 158, 124111.
     DOI: 10.1063/5.0137838
   
   with help from (in alphabetical order)
   P. Atkinson, C. Bannwarth, F. Bohle, G. Brandenburg, E. Caldeweyher
   M. Checinski, S. Dohm, S. Ehlert, S. Ehrlich, I. Gerasimov, C. Hölzer
   A. Katbashev, J. Kohn, J. Koopman, C. Lavigne, S. Lehtola, F. März, M. Müller,
   F. Musil, H. Neugebauer, J. Pisarek, C. Plett, P. Pracht, F. Pultar,
   J. Seibert, P. Shushkov, S. Spicher, M. Stahn, M. Steiner, T. Strunk,
   J. Stückrath, T. Rose, and J. Unsleber
   
 * started run on 2025/05/15 at 16:13:16.356     
   ID    Z sym.   atoms
    1    7 N      1, 3, 5
    2    6 C      2, 4, 6, 7, 9, 11, 13, 14
    3   16 S      8
    4    8 O      10, 12, 15
    5    1 H      16-26

           -------------------------------------------------
          |                Calculation Setup                |
           -------------------------------------------------

          program call               : xtb /rds/general/user/hgt20/home/callum/QDESCP/Lamivudine_rdkit_conf_11/Lamivudine_rdkit_conf_11.xyz --opt normal --acc 1 --gfn 2 --chrg 0 --uhf 0 -P 1
          hostname                   : login-c
          coordinate file            : /rds/general/user/hgt20/home/callum/QDESCP/Lamivudine_rdkit_conf_11/Lamivudine_rdkit_conf_11.xyz
          omp threads                :                     1


           -------------------------------------------------
          |                 G F N 2 - x T B                 |
           -------------------------------------------------

        Reference                      10.1021/acs.jctc.8b01176
      * Hamiltonian:
        H0-scaling (s, p, d)           1.850000    2.230000    2.230000
        zeta-weighting                 0.500000
      * Dispersion:
        s8                             2.700000
        a1                             0.520000
        a2                             5.000000
        s9                             5.000000
      * Repulsion:
        kExp                           1.500000    1.000000
        rExp                           1.000000
      * Coulomb:
        alpha                          2.000000
        third order                    shell-resolved
        anisotropic                    true
        a3                             3.000000
        a5                             4.000000
        cn-shift                       1.200000
        cn-exp                         4.000000
        max-rad                        5.000000


          ...................................................
          :                      SETUP                      :
          :.................................................:
          :  # basis functions                  77          :
          :  # atomic orbitals                  76          :
          :  # shells                           42          :
          :  # electrons                        82          :
          :  max. iterations                   250          :
          :  Hamiltonian                  GFN2-xTB          :
          :  restarted?                      false          :
          :  GBSA solvation                  false          :
          :  PC potential                    false          :
          :  electronic temp.          300.0000000     K    :
          :  accuracy                    1.0000000          :
          :  -> integral cutoff          0.2500000E+02      :
          :  -> integral neglect         0.1000000E-07      :
          :  -> SCF convergence          0.1000000E-05 Eh   :
          :  -> wf. convergence          0.1000000E-03 e    :
          :  Broyden damping             0.4000000          :
          :  net charge                          0          :
          :  unpaired electrons                  0          :
          ...................................................

 iter      E             dE          RMSdq      gap      omega  full diag
   1    -47.3242616 -0.473243E+02  0.489E+00    3.48       0.0  T
   2    -47.4228560 -0.985944E-01  0.280E+00    3.24       1.0  T
   3    -47.4209128  0.194314E-02  0.137E+00    3.20       1.0  T
   4    -47.4304826 -0.956977E-02  0.550E-01    3.07       1.0  T
   5    -47.4352480 -0.476540E-02  0.150E-01    3.09       1.0  T
   6    -47.4353233 -0.752841E-04  0.632E-02    3.10       1.0  T
   7    -47.4353367 -0.134466E-04  0.215E-02    3.12       1.0  T
   8    -47.4353384 -0.164267E-05  0.102E-02    3.12       1.9  T
   9    -47.4353385 -0.989436E-07  0.341E-03    3.12       5.8  T
  10    -47.4353385 -0.361320E-07  0.140E-03    3.12      14.0  T
  11    -47.4353385 -0.106974E-07  0.599E-04    3.12      32.8  T
  12    -47.4353385 -0.945256E-09  0.288E-04    3.12      68.2  T

   *** convergence criteria satisfied after 12 iterations ***

         #    Occupation            Energy/Eh            Energy/eV
      -------------------------------------------------------------
         1        2.0000           -0.7505291             -20.4229
       ...           ...                  ...                  ...
        35        2.0000           -0.4534636             -12.3394
        36        2.0000           -0.4340751             -11.8118
        37        2.0000           -0.4216645             -11.4741
        38        2.0000           -0.4097385             -11.1496
        39        2.0000           -0.4063901             -11.0584
        40        2.0000           -0.3911503             -10.6437
        41        2.0000           -0.3877052             -10.5500 (HOMO)
        42                         -0.2731746              -7.4335 (LUMO)
        43                         -0.2397472              -6.5239
        44                         -0.2320871              -6.3154
        45                         -0.1529223              -4.1612
        46                         -0.1387811              -3.7764
       ...                                ...                  ...
        76                          0.6391526              17.3922
      -------------------------------------------------------------
                  HL-Gap            0.1145306 Eh            3.1165 eV
             Fermi-level           -0.3304399 Eh           -8.9917 eV

 SCC (total)                   0 d,  0 h,  0 min,  0.043 sec
 SCC setup                      ...        0 min,  0.000 sec (  0.525%)
 Dispersion                     ...        0 min,  0.000 sec (  0.446%)
 classical contributions        ...        0 min,  0.000 sec (  0.146%)
 integral evaluation            ...        0 min,  0.018 sec ( 42.762%)
 iterations                     ...        0 min,  0.013 sec ( 30.870%)
 molecular gradient             ...        0 min,  0.011 sec ( 25.007%)
 printout                       ...        0 min,  0.000 sec (  0.230%)

         :::::::::::::::::::::::::::::::::::::::::::::::::::::
         ::                     SUMMARY                     ::
         :::::::::::::::::::::::::::::::::::::::::::::::::::::
         :: total energy             -46.970310421400 Eh    ::
         :: gradient norm              0.094033364311 Eh/a0 ::
         :: HOMO-LUMO gap              3.116536355482 eV    ::
         ::.................................................::
         :: SCC energy               -47.435212321243 Eh    ::
         :: -> isotropic ES            0.106537530497 Eh    ::
         :: -> anisotropic ES          0.002565056583 Eh    ::
         :: -> anisotropic XC          0.015324611325 Eh    ::
         :: -> dispersion             -0.026192583109 Eh    ::
         :: repulsion energy           0.464901899844 Eh    ::
         :: add. restraining           0.000000000000 Eh    ::
         :: total charge              -0.000000000000 e     ::
         :::::::::::::::::::::::::::::::::::::::::::::::::::::

      ----------------------------------------------------------- 
     |                   =====================                   |
     |                        A N C O P T                        |
     |                   =====================                   |
     |               Approximate Normal Coordinate               |
     |                Rational Function Optimizer                |
      ----------------------------------------------------------- 
      ----------------------------------------------------------- 
     |                   =====================                   |
     |                        A N C O P T                        |
     |                   =====================                   |
     |               Approximate Normal Coordinate               |
     |                Rational Function Optimizer                |
      ----------------------------------------------------------- 

          ...................................................
          :                      SETUP                      :
          :.................................................:
          :   optimization level            normal          :
          :   max. optcycles                   200          :
          :   ANC micro-cycles                  20          :
          :   degrees of freedom                72          :
          :.................................................:
          :   RF solver                   davidson          :
          :   write xtbopt.log                true          :
          :   linear?                        false          :
          :   energy convergence         0.5000000E-05 Eh   :
          :   grad. convergence          0.1000000E-02 Eh/α :
          :   maxmium RF displ.          1.0000000          :
          :   Hlow (freq-cutoff)         0.1000000E-01      :
          :   Hmax (freq-cutoff)         5.0000000          :
          :   S6 in model hess.         20.0000000          :
          ...................................................

generating ANC from exact Hessian ...
Using Lindh-Hessian (1995)
 Shifting diagonal of input Hessian by    8.7514333912547104E-003
 Lowest  eigenvalues of input Hessian
    0.000000    0.000000    0.000000    0.000000    0.000000    0.000000
    0.010000    0.010187    0.010815    0.012871    0.016053    0.017647
    0.019150    0.023566    0.027208    0.029143    0.031417    0.033406
 Highest eigenvalues
    1.660009    1.830812    1.969431    2.047138    2.136774    2.389325


........................................................................
.............................. CYCLE    1 ..............................
........................................................................

 iter      E             dE          RMSdq      gap      omega  full diag
   1    -47.4353385 -0.474353E+02  0.819E-05    3.12       0.0  T
   2    -47.4353385 -0.164491E-10  0.506E-05    3.12     387.3  T
   3    -47.4353385  0.000000E+00  0.295E-05    3.12     664.0  T
     SCC iter.                  ...        0 min,  0.004 sec
     gradient                   ...        0 min,  0.011 sec
 * total energy  :   -46.9703104 Eh     change       -0.2274732E-09 Eh
   gradient norm :     0.0940335 Eh/α   predicted     0.0000000E+00 (-100.00%)
   displ. norm   :     0.2547005 α      lambda       -0.1187258E-01
   maximum displ.:     0.1287822 α      in ANC's #18, #20, #24, ...

........................................................................
.............................. CYCLE    2 ..............................
........................................................................

 iter      E             dE          RMSdq      gap      omega  full diag
   1    -47.4550613 -0.474551E+02  0.246E-01    3.14       0.0  T
   2    -47.4552084 -0.147122E-03  0.143E-01    3.14       1.0  T
   3    -47.4551909  0.174954E-04  0.831E-02    3.15       1.0  T
   4    -47.4552504 -0.594897E-04  0.215E-02    3.15       1.0  T
   5    -47.4552579 -0.751939E-05  0.730E-03    3.15       2.7  T
   6    -47.4552581 -0.133063E-06  0.322E-03    3.15       6.1  T
   7    -47.4552581 -0.404488E-07  0.127E-03    3.15      15.4  T
   8    -47.4552581 -0.357080E-08  0.495E-04    3.15      39.6  T
   9    -47.4552581 -0.786564E-09  0.168E-04    3.15     116.5  T
     SCC iter.                  ...        0 min,  0.010 sec
     gradient                   ...        0 min,  0.034 sec
 * total energy  :   -46.9783307 Eh     change       -0.8020232E-02 Eh
   gradient norm :     0.0502701 Eh/α   predicted    -0.6323476E-02 ( -21.16%)
   displ. norm   :     0.2049207 α      lambda       -0.4633989E-02
   maximum displ.:     0.0959614 α      in ANC's #10, #18, #11, ...

........................................................................
.............................. CYCLE    3 ..............................
........................................................................

 iter      E             dE          RMSdq      gap      omega  full diag
   1    -47.4677345 -0.474677E+02  0.189E-01    3.14       0.0  T
   2    -47.4678511 -0.116657E-03  0.100E-01    3.09       1.0  T
   3    -47.4678557 -0.454557E-05  0.640E-02    3.12       1.0  T
   4    -47.4678831 -0.274148E-04  0.177E-02    3.11       1.1  T
   5    -47.4678872 -0.414314E-05  0.619E-03    3.11       3.2  T
   6    -47.4678875 -0.258340E-06  0.214E-03    3.11       9.2  T
   7    -47.4678875 -0.252394E-07  0.879E-04    3.11      22.3  T
   8    -47.4678875 -0.350880E-08  0.347E-04    3.11      56.6  T
     SCC iter.                  ...        0 min,  0.009 sec
     gradient                   ...        0 min,  0.011 sec
 * total energy  :   -46.9810573 Eh     change       -0.2726625E-02 Eh
   gradient norm :     0.0209176 Eh/α   predicted    -0.2417326E-02 ( -11.34%)
   displ. norm   :     0.1250634 α      lambda       -0.9471514E-03
   maximum displ.:     0.0700347 α      in ANC's #10, #3, #6, ...

........................................................................
.............................. CYCLE    4 ..............................
........................................................................

 iter      E             dE          RMSdq      gap      omega  full diag
   1    -47.4684959 -0.474685E+02  0.958E-02    3.12       0.0  T
   2    -47.4685200 -0.240773E-04  0.506E-02    3.11       1.0  T
   3    -47.4685203 -0.313503E-06  0.232E-02    3.12       1.0  T
   4    -47.4685227 -0.234065E-05  0.620E-03    3.11       3.2  T
   5    -47.4685229 -0.271842E-06  0.287E-03    3.11       6.8  T
   6    -47.4685230 -0.603118E-07  0.113E-03    3.11      17.4  T
   7    -47.4685230 -0.164828E-07  0.373E-04    3.11      52.5  T
   8    -47.4685230 -0.930257E-09  0.156E-04    3.11     126.1  T
     SCC iter.                  ...        0 min,  0.009 sec
     gradient                   ...        0 min,  0.011 sec
 * total energy  :   -46.9816966 Eh     change       -0.6393098E-03 Eh
   gradient norm :     0.0132888 Eh/α   predicted    -0.4810461E-03 ( -24.76%)
   displ. norm   :     0.1328806 α      lambda       -0.5796530E-03
   maximum displ.:     0.0681044 α      in ANC's #3, #10, #6, ...

........................................................................
.............................. CYCLE    5 ..............................
........................................................................

 iter      E             dE          RMSdq      gap      omega  full diag
   1    -47.4679862 -0.474680E+02  0.961E-02    3.13       0.0  T
   2    -47.4680139 -0.276169E-04  0.521E-02    3.13       1.0  T
   3    -47.4680140 -0.106398E-06  0.212E-02    3.13       1.0  T
   4    -47.4680166 -0.260202E-05  0.808E-03    3.13       2.4  T
   5    -47.4680174 -0.870919E-06  0.333E-03    3.13       5.9  T
   6    -47.4680175 -0.478638E-07  0.129E-03    3.13      15.2  T
   7    -47.4680175 -0.159536E-07  0.363E-04    3.13      54.1  T
   8    -47.4680175 -0.276700E-09  0.163E-04    3.13     120.0  T
     SCC iter.                  ...        0 min,  0.009 sec
     gradient                   ...        0 min,  0.011 sec
 * total energy  :   -46.9820745 Eh     change       -0.3778697E-03 Eh
   gradient norm :     0.0103675 Eh/α   predicted    -0.2949474E-03 ( -21.94%)
   displ. norm   :     0.1124743 α      lambda       -0.2637018E-03
   maximum displ.:     0.0704162 α      in ANC's #3, #6, #10, ...

........................................................................
.............................. CYCLE    6 ..............................
........................................................................

 iter      E             dE          RMSdq      gap      omega  full diag
   1    -47.4679820 -0.474680E+02  0.742E-02    3.14       0.0  T
   2    -47.4679964 -0.143753E-04  0.402E-02    3.14       1.0  T
   3    -47.4679957  0.650310E-06  0.160E-02    3.14       1.2  T
   4    -47.4679979 -0.220580E-05  0.717E-03    3.14       2.7  T
   5    -47.4679987 -0.759195E-06  0.270E-03    3.14       7.3  T
   6    -47.4679987 -0.109865E-07  0.751E-04    3.14      26.1  T
   7    -47.4679987 -0.678637E-08  0.252E-04    3.14      77.7  T
     SCC iter.                  ...        0 min,  0.008 sec
     gradient                   ...        0 min,  0.011 sec
 * total energy  :   -46.9822680 Eh     change       -0.1935089E-03 Eh
   gradient norm :     0.0086481 Eh/α   predicted    -0.1335197E-03 ( -31.00%)
   displ. norm   :     0.1505417 α      lambda       -0.2380784E-03
   maximum displ.:     0.1079977 α      in ANC's #3, #6, #7, ...

........................................................................
.............................. CYCLE    7 ..............................
........................................................................

 iter      E             dE          RMSdq      gap      omega  full diag
   1    -47.4687230 -0.474687E+02  0.906E-02    3.15       0.0  T
   2    -47.4687369 -0.139391E-04  0.473E-02    3.15       1.0  T
   3    -47.4687361  0.875102E-06  0.161E-02    3.15       1.2  T
   4    -47.4687384 -0.236704E-05  0.727E-03    3.15       2.7  T
   5    -47.4687390 -0.598262E-06  0.314E-03    3.15       6.3  T
   6    -47.4687391 -0.486752E-07  0.772E-04    3.15      25.4  T
   7    -47.4687391 -0.618380E-08  0.276E-04    3.15      71.1  T
     SCC iter.                  ...        0 min,  0.007 sec
     gradient                   ...        0 min,  0.011 sec
 * total energy  :   -46.9824369 Eh     change       -0.1688989E-03 Eh
   gradient norm :     0.0076884 Eh/α   predicted    -0.1217395E-03 ( -27.92%)
   displ. norm   :     0.1439224 α      lambda       -0.1627261E-03
   maximum displ.:     0.1167928 α      in ANC's #3, #6, #2, ...

........................................................................
.............................. CYCLE    8 ..............................
........................................................................

 iter      E             dE          RMSdq      gap      omega  full diag
   1    -47.4699137 -0.474699E+02  0.813E-02    3.16       0.0  T
   2    -47.4699194 -0.573240E-05  0.420E-02    3.16       1.0  T
   3    -47.4699193  0.684546E-07  0.109E-02    3.16       1.8  T
   4    -47.4699202 -0.820687E-06  0.512E-03    3.16       3.8  T
   5    -47.4699203 -0.111319E-06  0.236E-03    3.16       8.3  T
   6    -47.4699204 -0.820817E-07  0.590E-04    3.16      33.3  T
   7    -47.4699204 -0.300478E-08  0.229E-04    3.16      85.7  T
     SCC iter.                  ...        0 min,  0.029 sec
     gradient                   ...        0 min,  0.011 sec
 * total energy  :   -46.9825575 Eh     change       -0.1206677E-03 Eh
   gradient norm :     0.0069727 Eh/α   predicted    -0.8305161E-04 ( -31.17%)
   displ. norm   :     0.1732522 α      lambda       -0.1461031E-03
   maximum displ.:     0.1496096 α      in ANC's #3, #1, #2, ...

........................................................................
.............................. CYCLE    9 ..............................
........................................................................

 iter      E             dE          RMSdq      gap      omega  full diag
   1    -47.4705706 -0.474706E+02  0.900E-02    3.17       0.0  T
   2    -47.4705751 -0.449112E-05  0.466E-02    3.16       1.0  T
   3    -47.4705753 -0.165287E-06  0.106E-02    3.17       1.8  T
   4    -47.4705759 -0.646158E-06  0.508E-03    3.16       3.9  T
   5    -47.4705760 -0.687960E-07  0.201E-03    3.16       9.7  T
   6    -47.4705761 -0.727006E-07  0.552E-04    3.16      35.5  T
   7    -47.4705761 -0.272741E-08  0.243E-04    3.16      80.7  T
     SCC iter.                  ...        0 min,  0.008 sec
     gradient                   ...        0 min,  0.011 sec
 * total energy  :   -46.9826676 Eh     change       -0.1101142E-03 Eh
   gradient norm :     0.0077424 Eh/α   predicted    -0.7525044E-04 ( -31.66%)
   displ. norm   :     0.2182990 α      lambda       -0.1958994E-03
   maximum displ.:     0.1997185 α      in ANC's #3, #1, #2, ...

........................................................................
.............................. CYCLE   10 ..............................
........................................................................

 iter      E             dE          RMSdq      gap      omega  full diag
   1    -47.4721761 -0.474722E+02  0.109E-01    3.17       0.0  T
   2    -47.4721822 -0.614472E-05  0.578E-02    3.16       1.0  T
   3    -47.4721825 -0.315102E-06  0.122E-02    3.16       1.6  T
   4    -47.4721831 -0.595857E-06  0.617E-03    3.16       3.2  T
   5    -47.4721833 -0.184882E-06  0.262E-03    3.16       7.5  T
   6    -47.4721834 -0.114319E-06  0.606E-04    3.16      32.3  T
   7    -47.4721834 -0.223064E-08  0.299E-04    3.16      65.6  T
     SCC iter.                  ...        0 min,  0.008 sec
     gradient                   ...        0 min,  0.011 sec
 * total energy  :   -46.9827803 Eh     change       -0.1126859E-03 Eh
   gradient norm :     0.0069847 Eh/α   predicted    -0.1026218E-03 (  -8.93%)
   displ. norm   :     0.3489029 α      lambda       -0.2050314E-03
   maximum displ.:     0.3151326 α      in ANC's #3, #1, #10, ...

........................................................................
.............................. CYCLE   11 ..............................
........................................................................

 iter      E             dE          RMSdq      gap      omega  full diag
   1    -47.4692411 -0.474692E+02  0.169E-01    3.17       0.0  T
   2    -47.4692537 -0.125181E-04  0.891E-02    3.16       1.0  T
   3    -47.4692505  0.317130E-05  0.227E-02    3.17       1.0  T
   4    -47.4692565 -0.596357E-05  0.108E-02    3.16       1.8  T
   5    -47.4692573 -0.811022E-06  0.396E-03    3.16       4.9  T
   6    -47.4692574 -0.151879E-06  0.862E-04    3.16      22.8  T
   7    -47.4692574 -0.455373E-08  0.438E-04    3.16      44.8  T
     SCC iter.                  ...        0 min,  0.007 sec
     gradient                   ...        0 min,  0.038 sec
 * total energy  :   -46.9828073 Eh     change       -0.2696338E-04 Eh
   gradient norm :     0.0126319 Eh/α   predicted    -0.1149959E-03 ( 326.49%)
   displ. norm   :     0.1155526 α      lambda       -0.1954467E-03
   maximum displ.:     0.0906976 α      in ANC's #3, #2, #10, ...

........................................................................
.............................. CYCLE   12 ..............................
........................................................................

 iter      E             dE          RMSdq      gap      omega  full diag
   1    -47.4718162 -0.474718E+02  0.640E-02    3.16       0.0  T
   2    -47.4718186 -0.234643E-05  0.330E-02    3.17       1.0  T
   3    -47.4718185  0.331475E-07  0.785E-03    3.16       2.5  T
   4    -47.4718189 -0.402094E-06  0.395E-03    3.17       5.0  T
   5    -47.4718190 -0.964823E-07  0.163E-03    3.17      12.1  T
   6    -47.4718191 -0.349498E-07  0.422E-04    3.17      46.5  T
   7    -47.4718191 -0.131914E-08  0.181E-04    3.17     108.4  T
     SCC iter.                  ...        0 min,  0.008 sec
     gradient                   ...        0 min,  0.011 sec
 * total energy  :   -46.9828995 Eh     change       -0.9220827E-04 Eh
   gradient norm :     0.0027508 Eh/α   predicted    -0.9903403E-04 (   7.40%)
   displ. norm   :     0.1052925 α      lambda       -0.3864452E-04
   maximum displ.:     0.0988308 α      in ANC's #3, #1, #7, ...

........................................................................
.............................. CYCLE   13 ..............................
........................................................................

 iter      E             dE          RMSdq      gap      omega  full diag
   1    -47.4715973 -0.474716E+02  0.462E-02    3.17       0.0  T
   2    -47.4715981 -0.811270E-06  0.255E-02    3.17       1.0  T
   3    -47.4715973  0.818561E-06  0.788E-03    3.17       2.5  T
   4    -47.4715984 -0.110897E-05  0.280E-03    3.17       7.0  T
   5    -47.4715984 -0.468519E-07  0.992E-04    3.17      19.8  T
   6    -47.4715984 -0.655997E-08  0.218E-04    3.17      89.9  T
     SCC iter.                  ...        0 min,  0.007 sec
     gradient                   ...        0 min,  0.011 sec
 * total energy  :   -46.9829312 Eh     change       -0.3168773E-04 Eh
   gradient norm :     0.0019176 Eh/α   predicted    -0.1953712E-04 ( -38.34%)
   displ. norm   :     0.3642434 α      lambda       -0.6233483E-04
   maximum displ.:     0.3390995 α      in ANC's #3, #1, #7, ...

........................................................................
.............................. CYCLE   14 ..............................
........................................................................

 iter      E             dE          RMSdq      gap      omega  full diag
   1    -47.4696676 -0.474697E+02  0.155E-01    3.16       0.0  T
   2    -47.4696756 -0.796263E-05  0.863E-02    3.17       1.0  T
   3    -47.4696687  0.691910E-05  0.239E-02    3.16       1.0  T
   4    -47.4696783 -0.960010E-05  0.917E-03    3.16       2.1  T
   5    -47.4696788 -0.567541E-06  0.319E-03    3.16       6.1  T
   6    -47.4696789 -0.642455E-07  0.711E-04    3.16      27.6  T
   7    -47.4696789 -0.155647E-08  0.378E-04    3.16      51.9  T
     SCC iter.                  ...        0 min,  0.008 sec
     gradient                   ...        0 min,  0.011 sec
 * total energy  :   -46.9829546 Eh     change       -0.2339211E-04 Eh
   gradient norm :     0.0073560 Eh/α   predicted    -0.3301655E-04 (  41.14%)
   displ. norm   :     0.0589694 α      lambda       -0.4355968E-04
   maximum displ.:     0.0525103 α      in ANC's #3, #1, #2, ...

........................................................................
.............................. CYCLE   15 ..............................
........................................................................

 iter      E             dE          RMSdq      gap      omega  full diag
   1    -47.4712695 -0.474713E+02  0.318E-02    3.16       0.0  T
   2    -47.4712702 -0.645162E-06  0.167E-02    3.16       1.2  T
   3    -47.4712697  0.490441E-06  0.637E-03    3.16       3.1  T
   4    -47.4712704 -0.703924E-06  0.215E-03    3.16       9.1  T
   5    -47.4712704 -0.219817E-07  0.825E-04    3.16      23.8  T
   6    -47.4712704 -0.321032E-08  0.177E-04    3.16     111.1  T
     SCC iter.                  ...        0 min,  0.006 sec
     gradient                   ...        0 min,  0.011 sec
 * total energy  :   -46.9829817 Eh     change       -0.2710223E-04 Eh
   gradient norm :     0.0033932 Eh/α   predicted    -0.2185890E-04 ( -19.35%)
   displ. norm   :     0.0361962 α      lambda       -0.2016806E-04
   maximum displ.:     0.0227960 α      in ANC's #3, #2, #7, ...

........................................................................
.............................. CYCLE   16 ..............................
........................................................................

 iter      E             dE          RMSdq      gap      omega  full diag
   1    -47.4719101 -0.474719E+02  0.142E-02    3.16       0.0  T
   2    -47.4719104 -0.302956E-06  0.800E-03    3.16       2.5  T
   3    -47.4719103  0.154577E-06  0.386E-03    3.16       5.1  T
   4    -47.4719105 -0.215776E-06  0.899E-04    3.16      21.8  T
   5    -47.4719105 -0.111375E-07  0.305E-04    3.16      64.3  T
     SCC iter.                  ...        0 min,  0.006 sec
     gradient                   ...        0 min,  0.046 sec
 * total energy  :   -46.9829978 Eh     change       -0.1611808E-04 Eh
   gradient norm :     0.0017100 Eh/α   predicted    -0.1009867E-04 ( -37.35%)
   displ. norm   :     0.2091899 α      lambda       -0.3501978E-04
   maximum displ.:     0.1613977 α      in ANC's #3, #2, #7, ...

........................................................................
.............................. CYCLE   17 ..............................
........................................................................

 iter      E             dE          RMSdq      gap      omega  full diag
   1    -47.4726202 -0.474726E+02  0.752E-02    3.15       0.0  T
   2    -47.4726233 -0.310172E-05  0.435E-02    3.16       1.0  T
   3    -47.4726230  0.375791E-06  0.828E-03    3.16       2.4  T
   4    -47.4726237 -0.768639E-06  0.316E-03    3.16       6.2  T
   5    -47.4726239 -0.148125E-06  0.139E-03    3.16      14.1  T
   6    -47.4726239 -0.947101E-08  0.515E-04    3.16      38.1  T
   7    -47.4726239 -0.112852E-08  0.197E-04    3.16      99.6  T
     SCC iter.                  ...        0 min,  0.010 sec
     gradient                   ...        0 min,  0.011 sec
 * total energy  :   -46.9830304 Eh     change       -0.3261075E-04 Eh
   gradient norm :     0.0026323 Eh/α   predicted    -0.1784954E-04 ( -45.26%)
   displ. norm   :     0.1681654 α      lambda       -0.2342057E-04
   maximum displ.:     0.1395816 α      in ANC's #3, #2, #1, ...

........................................................................
.............................. CYCLE   18 ..............................
........................................................................

 iter      E             dE          RMSdq      gap      omega  full diag
   1    -47.4718279 -0.474718E+02  0.620E-02    3.15       0.0  T
   2    -47.4718293 -0.140938E-05  0.360E-02    3.15       1.0  T
   3    -47.4718288  0.479204E-06  0.731E-03    3.15       2.7  T
   4    -47.4718296 -0.801247E-06  0.266E-03    3.15       7.4  T
   5    -47.4718297 -0.682401E-07  0.122E-03    3.15      16.1  T
   6    -47.4718297 -0.862163E-08  0.325E-04    3.15      60.4  T
   7    -47.4718297 -0.363777E-09  0.157E-04    3.15     124.7  T
     SCC iter.                  ...        0 min,  0.008 sec
     gradient                   ...        0 min,  0.011 sec
 * total energy  :   -46.9830487 Eh     change       -0.1829308E-04 Eh
   gradient norm :     0.0024618 Eh/α   predicted    -0.1203953E-04 ( -34.19%)
   displ. norm   :     0.1723578 α      lambda       -0.2322241E-04
   maximum displ.:     0.1315603 α      in ANC's #3, #2, #1, ...

........................................................................
.............................. CYCLE   19 ..............................
........................................................................

 iter      E             dE          RMSdq      gap      omega  full diag
   1    -47.4712541 -0.474713E+02  0.607E-02    3.15       0.0  T
   2    -47.4712555 -0.137493E-05  0.357E-02    3.15       1.0  T
   3    -47.4712546  0.841400E-06  0.826E-03    3.15       2.4  T
   4    -47.4712559 -0.121394E-05  0.233E-03    3.15       8.4  T
   5    -47.4712559 -0.494155E-07  0.112E-03    3.15      17.4  T
   6    -47.4712559 -0.603432E-08  0.317E-04    3.15      61.9  T
   7    -47.4712559 -0.264684E-09  0.138E-04    3.15     141.8  T
     SCC iter.                  ...        0 min,  0.008 sec
     gradient                   ...        0 min,  0.011 sec
 * total energy  :   -46.9830657 Eh     change       -0.1695912E-04 Eh
   gradient norm :     0.0026934 Eh/α   predicted    -0.1195542E-04 ( -29.50%)
   displ. norm   :     0.1723578 α      lambda        0.0000000E+00
   maximum displ.:     0.1315603 α      in ANC's #3, #2, #1, ...

........................................................................
.............................. CYCLE   20 ..............................
........................................................................

 iter      E             dE          RMSdq      gap      omega  full diag
   1    -47.4701211 -0.474701E+02  0.609E-02    3.14       0.0  T
   2    -47.4701227 -0.164246E-05  0.359E-02    3.15       1.0  T
   3    -47.4701214  0.135320E-05  0.985E-03    3.15       2.0  T
   4    -47.4701232 -0.180915E-05  0.251E-03    3.15       7.8  T
   5    -47.4701232 -0.660445E-07  0.115E-03    3.15      17.0  T
   6    -47.4701232 -0.482814E-08  0.332E-04    3.15      59.1  T
   7    -47.4701232 -0.328981E-09  0.145E-04    3.15     135.2  T
     SCC iter.                  ...        0 min,  0.008 sec
     gradient                   ...        0 min,  0.011 sec
 * total energy  :   -46.9830639 Eh     change        0.1727314E-05 Eh
   gradient norm :     0.0048746 Eh/α   predicted    -0.3007115E-08 (-100.17%)
   displ. norm   :     0.0538351 α      lambda       -0.3530222E-04
   maximum displ.:     0.0478206 α      in ANC's #3, #2, #7, ...
 * RMSD in coord.:     0.4573279 α      energy gain  -0.1275352E-01 Eh

generating ANC from exact Hessian ...
Using Lindh-Hessian (1995)
 Shifting diagonal of input Hessian by    8.7507664971371441E-003
 Lowest  eigenvalues of input Hessian
    0.000000    0.000000    0.000000    0.000000    0.000000    0.000000
    0.010000    0.010349    0.011155    0.013075    0.016903    0.018471
    0.020092    0.025085    0.028081    0.029408    0.031988    0.036226
 Highest eigenvalues
    1.720018    1.939165    2.054697    2.114728    2.213052    2.501801


........................................................................
.............................. CYCLE   21 ..............................
........................................................................

 iter      E             dE          RMSdq      gap      omega  full diag
   1    -47.4714079 -0.474714E+02  0.260E-02    3.15       0.0  T
   2    -47.4714084 -0.432811E-06  0.140E-02    3.15       1.4  T
   3    -47.4714083  0.875464E-07  0.380E-03    3.15       5.2  T
   4    -47.4714084 -0.154758E-06  0.180E-03    3.15      10.9  T
   5    -47.4714085 -0.252755E-07  0.726E-04    3.15      27.0  T
   6    -47.4714085 -0.387831E-08  0.149E-04    3.15     131.9  T
     SCC iter.                  ...        0 min,  0.007 sec
     gradient                   ...        0 min,  0.011 sec
 * total energy  :   -46.9830887 Eh     change       -0.2477429E-04 Eh
   gradient norm :     0.0021302 Eh/α   predicted     0.0000000E+00 (-100.00%)
   displ. norm   :     0.0289966 α      lambda       -0.1308160E-04
   maximum displ.:     0.0253006 α      in ANC's #2, #1, #3, ...

........................................................................
.............................. CYCLE   22 ..............................
........................................................................

 iter      E             dE          RMSdq      gap      omega  full diag
   1    -47.4718698 -0.474719E+02  0.932E-03    3.15       0.0  T
   2    -47.4718699 -0.161646E-06  0.552E-03    3.15       3.6  T
   3    -47.4718699  0.288083E-07  0.221E-03    3.15       8.9  T
   4    -47.4718699 -0.458819E-07  0.725E-04    3.15      27.0  T
   5    -47.4718700 -0.102733E-07  0.196E-04    3.15      99.9  T
     SCC iter.                  ...        0 min,  0.006 sec
     gradient                   ...        0 min,  0.011 sec
 * total energy  :   -46.9831019 Eh     change       -0.1321102E-04 Eh
   gradient norm :     0.0011723 Eh/α   predicted    -0.7761408E-05 ( -41.25%)
   displ. norm   :     0.0866165 α      lambda       -0.2079342E-04
   maximum displ.:     0.0715620 α      in ANC's #2, #1, #3, ...

........................................................................
.............................. CYCLE   23 ..............................
........................................................................

 iter      E             dE          RMSdq      gap      omega  full diag
   1    -47.4724549 -0.474725E+02  0.276E-02    3.15       0.0  T
   2    -47.4724556 -0.771981E-06  0.161E-02    3.14       1.2  T
   3    -47.4724556  0.640777E-07  0.407E-03    3.15       4.8  T
   4    -47.4724557 -0.144645E-06  0.152E-03    3.14      12.9  T
   5    -47.4724557 -0.299608E-07  0.633E-04    3.14      31.0  T
   6    -47.4724557 -0.175600E-08  0.188E-04    3.14     104.4  T
     SCC iter.                  ...        0 min,  0.007 sec
     gradient                   ...        0 min,  0.011 sec
 * total energy  :   -46.9831239 Eh     change       -0.2197886E-04 Eh
   gradient norm :     0.0015171 Eh/α   predicted    -0.1077249E-04 ( -50.99%)
   displ. norm   :     0.0639044 α      lambda       -0.1028195E-04
   maximum displ.:     0.0529375 α      in ANC's #2, #1, #3, ...

........................................................................
.............................. CYCLE   24 ..............................
........................................................................

 iter      E             dE          RMSdq      gap      omega  full diag
   1    -47.4722705 -0.474723E+02  0.216E-02    3.15       0.0  T
   2    -47.4722706 -0.127922E-06  0.125E-02    3.15       1.6  T
   3    -47.4722705  0.108232E-06  0.304E-03    3.15       6.5  T
   4    -47.4722707 -0.156396E-06  0.108E-03    3.15      18.1  T
   5    -47.4722707 -0.446514E-08  0.399E-04    3.15      49.2  T
   6    -47.4722707 -0.180131E-08  0.136E-04    3.15     144.2  T
     SCC iter.                  ...        0 min,  0.007 sec
     gradient                   ...        0 min,  0.011 sec
 * total energy  :   -46.9831375 Eh     change       -0.1356146E-04 Eh
   gradient norm :     0.0014186 Eh/α   predicted    -0.5156065E-05 ( -61.98%)
   displ. norm   :     0.0715797 α      lambda       -0.1182728E-04
   maximum displ.:     0.0570487 α      in ANC's #2, #1, #3, ...

........................................................................
.............................. CYCLE   25 ..............................
........................................................................

 iter      E             dE          RMSdq      gap      omega  full diag
   1    -47.4719660 -0.474720E+02  0.266E-02    3.15       0.0  T
   2    -47.4719663 -0.261308E-06  0.153E-02    3.15       1.3  T
   3    -47.4719660  0.260490E-06  0.449E-03    3.15       4.4  T
   4    -47.4719663 -0.342807E-06  0.158E-03    3.15      12.4  T
   5    -47.4719664 -0.108332E-07  0.613E-04    3.15      32.0  T
   6    -47.4719664 -0.327822E-08  0.171E-04    3.15     114.6  T
     SCC iter.                  ...        0 min,  0.006 sec
     gradient                   ...        0 min,  0.052 sec
 * total energy  :   -46.9831530 Eh     change       -0.1548642E-04 Eh
   gradient norm :     0.0010918 Eh/α   predicted    -0.5932139E-05 ( -61.69%)
   displ. norm   :     0.0973166 α      lambda       -0.1446493E-04
   maximum displ.:     0.0758883 α      in ANC's #2, #1, #3, ...

........................................................................
.............................. CYCLE   26 ..............................
........................................................................

 iter      E             dE          RMSdq      gap      omega  full diag
   1    -47.4716549 -0.474717E+02  0.387E-02    3.15       0.0  T
   2    -47.4716554 -0.477599E-06  0.220E-02    3.15       1.0  T
   3    -47.4716552  0.213671E-06  0.526E-03    3.15       3.7  T
   4    -47.4716555 -0.331401E-06  0.228E-03    3.15       8.6  T
   5    -47.4716555 -0.193945E-07  0.883E-04    3.15      22.2  T
   6    -47.4716555 -0.106377E-07  0.227E-04    3.15      86.4  T
     SCC iter.                  ...        0 min,  0.007 sec
     gradient                   ...        0 min,  0.011 sec
 * total energy  :   -46.9831713 Eh     change       -0.1833069E-04 Eh
   gradient norm :     0.0012449 Eh/α   predicted    -0.7263445E-05 ( -60.38%)
   displ. norm   :     0.1138493 α      lambda       -0.1469844E-04
   maximum displ.:     0.0876625 α      in ANC's #2, #1, #4, ...

........................................................................
.............................. CYCLE   27 ..............................
........................................................................

 iter      E             dE          RMSdq      gap      omega  full diag
   1    -47.4714978 -0.474715E+02  0.454E-02    3.14       0.0  T
   2    -47.4714983 -0.503444E-06  0.256E-02    3.14       1.0  T
   3    -47.4714983  0.973584E-08  0.491E-03    3.14       4.0  T
   4    -47.4714984 -0.120976E-06  0.246E-03    3.15       8.0  T
   5    -47.4714985 -0.277083E-07  0.867E-04    3.14      22.6  T
   6    -47.4714985 -0.133860E-07  0.252E-04    3.14      77.7  T
     SCC iter.                  ...        0 min,  0.006 sec
     gradient                   ...        0 min,  0.011 sec
 * total energy  :   -46.9831904 Eh     change       -0.1908624E-04 Eh
   gradient norm :     0.0013154 Eh/α   predicted    -0.7393450E-05 ( -61.26%)
   displ. norm   :     0.1258083 α      lambda       -0.1460044E-04
   maximum displ.:     0.0976021 α      in ANC's #2, #1, #4, ...

........................................................................
.............................. CYCLE   28 ..............................
........................................................................

 iter      E             dE          RMSdq      gap      omega  full diag
   1    -47.4715888 -0.474716E+02  0.508E-02    3.14       0.0  T
   2    -47.4715894 -0.595607E-06  0.284E-02    3.14       1.0  T
   3    -47.4715895 -0.101264E-06  0.499E-03    3.14       3.9  T
   4    -47.4715896 -0.488948E-07  0.230E-03    3.14       8.5  T
   5    -47.4715896 -0.177899E-07  0.740E-04    3.14      26.5  T
   6    -47.4715896 -0.977694E-08  0.271E-04    3.14      72.4  T
     SCC iter.                  ...        0 min,  0.007 sec
     gradient                   ...        0 min,  0.011 sec
 * total energy  :   -46.9832097 Eh     change       -0.1935757E-04 Eh
   gradient norm :     0.0010593 Eh/α   predicted    -0.7356174E-05 ( -62.00%)
   displ. norm   :     0.1251437 α      lambda       -0.1343362E-04
   maximum displ.:     0.0983296 α      in ANC's #2, #1, #4, ...

........................................................................
.............................. CYCLE   29 ..............................
........................................................................

 iter      E             dE          RMSdq      gap      omega  full diag
   1    -47.4717481 -0.474717E+02  0.497E-02    3.14       0.0  T
   2    -47.4717487 -0.565455E-06  0.278E-02    3.14       1.0  T
   3    -47.4717488 -0.103695E-06  0.476E-03    3.14       4.1  T
   4    -47.4717488 -0.450326E-07  0.217E-03    3.14       9.1  T
   5    -47.4717488 -0.139285E-07  0.691E-04    3.14      28.4  T
   6    -47.4717488 -0.838016E-08  0.259E-04    3.14      75.7  T
     SCC iter.                  ...        0 min,  0.028 sec
     gradient                   ...        0 min,  0.011 sec
 * total energy  :   -46.9832277 Eh     change       -0.1798451E-04 Eh
   gradient norm :     0.0007644 Eh/α   predicted    -0.6767666E-05 ( -62.37%)
   displ. norm   :     0.1276019 α      lambda       -0.1288348E-04
   maximum displ.:     0.1015270 α      in ANC's #2, #1, #4, ...

........................................................................
.............................. CYCLE   30 ..............................
........................................................................

 iter      E             dE          RMSdq      gap      omega  full diag
   1    -47.4719410 -0.474719E+02  0.487E-02    3.14       0.0  T
   2    -47.4719416 -0.574908E-06  0.275E-02    3.14       1.0  T
   3    -47.4719416 -0.636484E-07  0.475E-03    3.14       4.1  T
   4    -47.4719417 -0.860661E-07  0.227E-03    3.14       8.6  T
   5    -47.4719417 -0.121344E-07  0.874E-04    3.14      22.4  T
   6    -47.4719417 -0.142475E-07  0.263E-04    3.14      74.7  T
     SCC iter.                  ...        0 min,  0.007 sec
     gradient                   ...        0 min,  0.011 sec
 * total energy  :   -46.9832452 Eh     change       -0.1745856E-04 Eh
   gradient norm :     0.0006030 Eh/α   predicted    -0.6494395E-05 ( -62.80%)
   displ. norm   :     0.1361255 α      lambda       -0.1324592E-04
   maximum displ.:     0.1086370 α      in ANC's #2, #1, #4, ...

........................................................................
.............................. CYCLE   31 ..............................
........................................................................

 iter      E             dE          RMSdq      gap      omega  full diag
   1    -47.4720204 -0.474720E+02  0.500E-02    3.13       0.0  T
   2    -47.4720210 -0.647415E-06  0.286E-02    3.13       1.0  T
   3    -47.4720209  0.935225E-07  0.542E-03    3.13       3.6  T
   4    -47.4720212 -0.274242E-06  0.243E-03    3.13       8.1  T
   5    -47.4720212 -0.958811E-08  0.103E-03    3.13      19.0  T
   6    -47.4720212 -0.175695E-07  0.263E-04    3.13      74.5  T
   7    -47.4720212 -0.112607E-09  0.128E-04    3.13     153.8  T
     SCC iter.                  ...        0 min,  0.007 sec
     gradient                   ...        0 min,  0.011 sec
 * total energy  :   -46.9832636 Eh     change       -0.1838777E-04 Eh
   gradient norm :     0.0007076 Eh/α   predicted    -0.6687773E-05 ( -63.63%)
   displ. norm   :     0.1500275 α      lambda       -0.1478079E-04
   maximum displ.:     0.1195305 α      in ANC's #2, #1, #4, ...

........................................................................
.............................. CYCLE   32 ..............................
........................................................................

 iter      E             dE          RMSdq      gap      omega  full diag
   1    -47.4720322 -0.474720E+02  0.524E-02    3.13       0.0  T
   2    -47.4720330 -0.791067E-06  0.304E-02    3.13       1.0  T
   3    -47.4720326  0.349330E-06  0.642E-03    3.13       3.1  T
   4    -47.4720332 -0.591088E-06  0.234E-03    3.13       8.4  T
   5    -47.4720332 -0.943560E-08  0.110E-03    3.13      17.8  T
   6    -47.4720332 -0.144133E-07  0.289E-04    3.13      67.9  T
   7    -47.4720332 -0.146265E-09  0.140E-04    3.13     139.9  T
     SCC iter.                  ...        0 min,  0.007 sec
     gradient                   ...        0 min,  0.011 sec
 * total energy  :   -46.9832843 Eh     change       -0.2077441E-04 Eh
   gradient norm :     0.0007325 Eh/α   predicted    -0.7465005E-05 ( -64.07%)
   displ. norm   :     0.1762893 α      lambda       -0.1764442E-04
   maximum displ.:     0.1404841 α      in ANC's #2, #3, #4, ...

........................................................................
.............................. CYCLE   33 ..............................
........................................................................

 iter      E             dE          RMSdq      gap      omega  full diag
   1    -47.4719185 -0.474719E+02  0.601E-02    3.12       0.0  T
   2    -47.4719196 -0.110708E-05  0.351E-02    3.13       1.0  T
   3    -47.4719188  0.817252E-06  0.826E-03    3.12       2.4  T
   4    -47.4719200 -0.118019E-05  0.246E-03    3.13       8.0  T
   5    -47.4719200 -0.183404E-07  0.121E-03    3.13      16.2  T
   6    -47.4719200 -0.120083E-07  0.315E-04    3.13      62.2  T
   7    -47.4719200 -0.188656E-09  0.153E-04    3.13     128.3  T
     SCC iter.                  ...        0 min,  0.008 sec
     gradient                   ...        0 min,  0.011 sec
 * total energy  :   -46.9833090 Eh     change       -0.2464092E-04 Eh
   gradient norm :     0.0007970 Eh/α   predicted    -0.8944823E-05 ( -63.70%)
   displ. norm   :     0.2111498 α      lambda       -0.2112576E-04
   maximum displ.:     0.1688236 α      in ANC's #2, #3, #4, ...

........................................................................
.............................. CYCLE   34 ..............................
........................................................................

 iter      E             dE          RMSdq      gap      omega  full diag
   1    -47.4716971 -0.474717E+02  0.706E-02    3.12       0.0  T
   2    -47.4716986 -0.155614E-05  0.414E-02    3.12       1.0  T
   3    -47.4716972  0.142826E-05  0.102E-02    3.12       1.9  T
   4    -47.4716992 -0.196911E-05  0.258E-03    3.12       7.6  T
   5    -47.4716992 -0.328096E-07  0.131E-03    3.12      15.0  T
   6    -47.4716992 -0.906982E-08  0.366E-04    3.12      53.6  T
   7    -47.4716992 -0.274561E-09  0.167E-04    3.12     117.4  T
     SCC iter.                  ...        0 min,  0.008 sec
     gradient                   ...        0 min,  0.049 sec
 * total energy  :   -46.9833375 Eh     change       -0.2848575E-04 Eh
   gradient norm :     0.0011276 Eh/α   predicted    -0.1077284E-04 ( -62.18%)
   displ. norm   :     0.2997566 α      lambda       -0.2840872E-04
   maximum displ.:     0.2411167 α      in ANC's #2, #3, #4, ...

........................................................................
.............................. CYCLE   35 ..............................
........................................................................

 iter      E             dE          RMSdq      gap      omega  full diag
   1    -47.4711333 -0.474711E+02  0.994E-02    3.11       0.0  T
   2    -47.4711367 -0.338888E-05  0.584E-02    3.11       1.0  T
   3    -47.4711328  0.392279E-05  0.161E-02    3.11       1.2  T
   4    -47.4711379 -0.514062E-05  0.355E-03    3.11       5.5  T
   5    -47.4711380 -0.883153E-07  0.175E-03    3.11      11.2  T
   6    -47.4711380 -0.113525E-07  0.491E-04    3.11      39.9  T
   7    -47.4711380 -0.621043E-09  0.223E-04    3.11      88.1  T
     SCC iter.                  ...        0 min,  0.007 sec
     gradient                   ...        0 min,  0.011 sec
 * total energy  :   -46.9833708 Eh     change       -0.3334008E-04 Eh
   gradient norm :     0.0020222 Eh/α   predicted    -0.1477343E-04 ( -55.69%)
   displ. norm   :     0.2454494 α      lambda       -0.2968138E-04
   maximum displ.:     0.2000160 α      in ANC's #2, #3, #4, ...

........................................................................
.............................. CYCLE   36 ..............................
........................................................................

 iter      E             dE          RMSdq      gap      omega  full diag
   1    -47.4707754 -0.474708E+02  0.810E-02    3.10       0.0  T
   2    -47.4707775 -0.206783E-05  0.476E-02    3.11       1.0  T
   3    -47.4707751  0.235905E-05  0.125E-02    3.10       1.6  T
   4    -47.4707782 -0.312003E-05  0.273E-03    3.11       7.2  T
   5    -47.4707783 -0.541634E-07  0.134E-03    3.11      14.6  T
   6    -47.4707783 -0.637058E-08  0.388E-04    3.11      50.6  T
   7    -47.4707783 -0.388262E-09  0.170E-04    3.11     115.3  T
     SCC iter.                  ...        0 min,  0.007 sec
     gradient                   ...        0 min,  0.011 sec
 * total energy  :   -46.9833919 Eh     change       -0.2113356E-04 Eh
   gradient norm :     0.0026525 Eh/α   predicted    -0.1573789E-04 ( -25.53%)
   displ. norm   :     0.1830519 α      lambda       -0.2683230E-04
   maximum displ.:     0.1506189 α      in ANC's #2, #3, #7, ...

........................................................................
.............................. CYCLE   37 ..............................
........................................................................

 iter      E             dE          RMSdq      gap      omega  full diag
   1    -47.4713236 -0.474713E+02  0.598E-02    3.10       0.0  T
   2    -47.4713246 -0.952388E-06  0.349E-02    3.10       1.0  T
   3    -47.4713241  0.500516E-06  0.678E-03    3.10       2.9  T
   4    -47.4713249 -0.812657E-06  0.182E-03    3.10      10.8  T
   5    -47.4713249 -0.226835E-07  0.941E-04    3.10      20.8  T
   6    -47.4713249 -0.532189E-08  0.266E-04    3.10      73.8  T
     SCC iter.                  ...        0 min,  0.046 sec
     gradient                   ...        0 min,  0.011 sec
 * total energy  :   -46.9834116 Eh     change       -0.1968164E-04 Eh
   gradient norm :     0.0022565 Eh/α   predicted    -0.1386973E-04 ( -29.53%)
   displ. norm   :     0.1810666 α      lambda       -0.2185789E-04
   maximum displ.:     0.1506602 α      in ANC's #2, #3, #7, ...

........................................................................
.............................. CYCLE   38 ..............................
........................................................................

 iter      E             dE          RMSdq      gap      omega  full diag
   1    -47.4715259 -0.474715E+02  0.587E-02    3.10       0.0  T
   2    -47.4715267 -0.813483E-06  0.342E-02    3.10       1.0  T
   3    -47.4715265  0.134269E-06  0.526E-03    3.10       3.7  T
   4    -47.4715269 -0.404319E-06  0.167E-03    3.10      11.7  T
   5    -47.4715270 -0.121492E-07  0.917E-04    3.10      21.4  T
   6    -47.4715270 -0.759339E-08  0.238E-04    3.10      82.4  T
     SCC iter.                  ...        0 min,  0.006 sec
     gradient                   ...        0 min,  0.011 sec
 * total energy  :   -46.9834265 Eh     change       -0.1487533E-04 Eh
   gradient norm :     0.0015822 Eh/α   predicted    -0.1128928E-04 ( -24.11%)
   displ. norm   :     0.2135946 α      lambda       -0.1520203E-04
   maximum displ.:     0.1750726 α      in ANC's #2, #3, #7, ...

........................................................................
.............................. CYCLE   39 ..............................
........................................................................

 iter      E             dE          RMSdq      gap      omega  full diag
   1    -47.4725275 -0.474725E+02  0.712E-02    3.09       0.0  T
   2    -47.4725287 -0.120290E-05  0.416E-02    3.09       1.0  T
   3    -47.4725288 -0.437834E-07  0.509E-03    3.09       3.9  T
   4    -47.4725291 -0.310015E-06  0.164E-03    3.09      12.0  T
   5    -47.4725291 -0.222860E-08  0.801E-04    3.09      24.5  T
   6    -47.4725291 -0.490208E-08  0.316E-04    3.09      62.0  T
     SCC iter.                  ...        0 min,  0.006 sec
     gradient                   ...        0 min,  0.056 sec
 * total energy  :   -46.9834332 Eh     change       -0.6700427E-05 Eh
   gradient norm :     0.0024016 Eh/α   predicted    -0.7755920E-05 (  15.75%)
   displ. norm   :     0.1896357 α      lambda       -0.1187581E-04
   maximum displ.:     0.1594778 α      in ANC's #2, #3, #7, ...

........................................................................
.............................. CYCLE   40 ..............................
........................................................................

 iter      E             dE          RMSdq      gap      omega  full diag
   1    -47.4708364 -0.474708E+02  0.630E-02    3.08       0.0  T
   2    -47.4708385 -0.211998E-05  0.372E-02    3.09       1.0  T
   3    -47.4708355  0.298239E-05  0.138E-02    3.08       1.4  T
   4    -47.4708393 -0.377872E-05  0.257E-03    3.08       7.6  T
   5    -47.4708394 -0.744814E-07  0.111E-03    3.08      17.7  T
   6    -47.4708394 -0.277891E-08  0.321E-04    3.08      61.2  T
   7    -47.4708394 -0.532445E-09  0.134E-04    3.08     146.9  T
     SCC iter.                  ...        0 min,  0.008 sec
     gradient                   ...        0 min,  0.011 sec
 * total energy  :   -46.9834317 Eh     change        0.1484409E-05 Eh
   gradient norm :     0.0020469 Eh/α   predicted    -0.6152788E-05 (-514.49%)
   displ. norm   :     0.1340527 α      lambda       -0.1875117E-04
   maximum displ.:     0.1085240 α      in ANC's #2, #3, #4, ...

........................................................................
.............................. CYCLE   41 ..............................
........................................................................

 iter      E             dE          RMSdq      gap      omega  full diag
   1    -47.4721958 -0.474722E+02  0.460E-02    3.09       0.0  T
   2    -47.4721968 -0.108010E-05  0.272E-02    3.09       1.0  T
   3    -47.4721952  0.159990E-05  0.101E-02    3.09       1.9  T
   4    -47.4721973 -0.202111E-05  0.181E-03    3.09      10.8  T
   5    -47.4721973 -0.420568E-07  0.791E-04    3.09      24.8  T
   6    -47.4721973 -0.139166E-08  0.232E-04    3.09      84.6  T
     SCC iter.                  ...        0 min,  0.006 sec
     gradient                   ...        0 min,  0.068 sec
 * total energy  :   -46.9834386 Eh     change       -0.6845710E-05 Eh
   gradient norm :     0.0015943 Eh/α   predicted    -0.9546592E-05 (  39.45%)
   displ. norm   :     0.0250381 α      lambda       -0.3800124E-05
   maximum displ.:     0.0175398 α      in ANC's #2, #3, #8, ...

........................................................................
.............................. CYCLE   42 ..............................
........................................................................

 iter      E             dE          RMSdq      gap      omega  full diag
   1    -47.4721072 -0.474721E+02  0.100E-02    3.09       0.0  T
   2    -47.4721073 -0.107449E-06  0.561E-03    3.09       3.5  T
   3    -47.4721073  0.671537E-08  0.136E-03    3.09      14.4  T
   4    -47.4721073 -0.217009E-07  0.526E-04    3.09      37.3  T
   5    -47.4721073 -0.152158E-08  0.227E-04    3.09      86.4  T
     SCC iter.                  ...        0 min,  0.006 sec
     gradient                   ...        0 min,  0.011 sec
 * total energy  :   -46.9834406 Eh     change       -0.2004957E-05 Eh
   gradient norm :     0.0010760 Eh/α   predicted    -0.1905254E-05 (  -4.97%)
   displ. norm   :     0.0357034 α      lambda       -0.2354193E-05
   maximum displ.:     0.0304107 α      in ANC's #2, #5, #3, ...
 * RMSD in coord.:     0.4888265 α      energy gain  -0.3766157E-03 Eh

generating ANC from exact Hessian ...
Using Lindh-Hessian (1995)
 Shifting diagonal of input Hessian by    8.9529878602740941E-003
 Lowest  eigenvalues of input Hessian
    0.000000    0.000000    0.000000    0.000000    0.000000    0.000000
    0.010000    0.010736    0.011362    0.013347    0.016924    0.018072
    0.020918    0.025322    0.028748    0.029526    0.032031    0.035464
 Highest eigenvalues
    1.718584    1.944644    2.047088    2.117481    2.217001    2.501994


........................................................................
.............................. CYCLE   43 ..............................
........................................................................

 iter      E             dE          RMSdq      gap      omega  full diag
   1    -47.4719457 -0.474719E+02  0.141E-02    3.09       0.0  T
   2    -47.4719458 -0.890999E-07  0.785E-03    3.09       2.5  T
   3    -47.4719458  0.121138E-07  0.174E-03    3.09      11.2  T
   4    -47.4719458 -0.277778E-07  0.805E-04    3.09      24.3  T
   5    -47.4719458 -0.297411E-08  0.346E-04    3.09      56.6  T
     SCC iter.                  ...        0 min,  0.006 sec
     gradient                   ...        0 min,  0.011 sec
 * total energy  :   -46.9834433 Eh     change       -0.2785705E-05 Eh
   gradient norm :     0.0004761 Eh/α   predicted     0.0000000E+00 (-100.00%)
   displ. norm   :     0.0091459 α      lambda       -0.8656064E-06
   maximum displ.:     0.0049055 α      in ANC's #3, #5, #4, ...

   *** GEOMETRY OPTIMIZATION CONVERGED AFTER 43 ITERATIONS ***

------------------------------------------------------------------------
 total energy gain   :        -0.0131329 Eh       -8.2410 kcal/mol
 total RMSD          :         0.7874368 a0        0.4167 Å
 total power (kW/mol):        -0.8018716 (step)  -22.5799 (real)
------------------------------------------------------------------------

 ANCopt (total)                0 d,  0 h,  0 min,  1.527 sec
 optimizer setup                ...        0 min,  0.000 sec (  0.004%)
 model hessian                  ...        0 min,  0.020 sec (  1.301%)
 ANC generation                 ...        0 min,  0.002 sec (  0.124%)
 coordinate transformation      ...        0 min,  0.000 sec (  0.010%)
 single point calculation       ...        0 min,  1.497 sec ( 98.046%)
 optimization log               ...        0 min,  0.004 sec (  0.271%)
 hessian update                 ...        0 min,  0.000 sec (  0.020%)
 rational function              ...        0 min,  0.002 sec (  0.139%)

================
 final structure:
================
26
 xtb: 6.7.1 (edcfbbe)
N           -4.36126212013094        1.14058895253236        0.52475747700594
C           -3.13699092318434        0.72497996133260        0.15825415397435
N           -2.92253865233666        0.55821691143210       -1.12535317491356
C           -1.74631577913037        0.14015373899420       -1.60663831602162
N           -0.70364503121774       -0.10347798168999       -0.63855790938229
C            0.59051499240178       -0.51691900130351       -1.13495058773862
C            0.87699256895517       -1.99351044070739       -0.82689362557097
S            1.86072903832606       -1.97317681147555        0.69846654005167
C            2.60987158884525       -0.42185896633447        0.08337531429902
O            1.58885369487129        0.29249095945793       -0.55977092661718
C            3.18637698360342        0.43416869947822        1.20877876336807
O            3.84470641507374        1.55886738745155        0.70467804234666
C           -0.92492033387206        0.06455565909731        0.68017847151649
C           -2.13109986914354        0.47298232211048        1.13973350588940
O           -1.49897830452380       -0.05350971593689       -2.77364083344187
H           -5.03101799319548        1.32867958482103       -0.19984531314634
H           -4.58691246392901        1.32455888925021        1.48468810807160
H            0.54717039201152       -0.35318860962448       -2.22288236690274
H            1.46644089705150       -2.45517692553882       -1.61916915657882
H           -0.03747766002760       -2.55833955360178       -0.66824318832599
H            3.39997557853803       -0.69373028754540       -0.63239534992349
H            2.36994813651287        0.72014122645864        1.88754956164942
H            3.92686928934451       -0.14374494862317        1.76531393971561
H            3.22881826550743        2.04277362643391        0.14061385922017
H           -0.09542650194963       -0.14543714193692        1.34169943890019
H           -2.32078220840049        0.60901246546768        2.19005357255416

 Bond Distances (Angstroems)
 ---------------------------
N1-C2=1.3438         N1-H16=1.0045        N1-H17=1.0031        C2-N1=1.3438         C2-N3=1.3120         C2-C14=1.4278        
N3-C2=1.3120         N3-C4=1.3379         C4-N3=1.3379         C4-N5=1.4435         C4-O15=1.2085        N5-C4=1.4435         
N5-C6=1.4464         N5-C13=1.3477        C6-N5=1.4464         C6-C7=1.5353         C6-O10=1.4081        C6-H18=1.1010        
C7-C6=1.5353         C7-S8=1.8152         C7-H19=1.0901        C7-H20=1.0865        S8-C7=1.8152         S8-C9=1.8292         
C9-S8=1.8292         C9-O10=1.4023        C9-C11=1.5270        C9-H21=1.1002        O10-C6=1.4081        O10-C9=1.4023        
C11-C9=1.5270        C11-O12=1.3973       C11-H22=1.0996       C11-H23=1.0918       O12-C11=1.3973       O12-H24=0.9652       
C13-N5=1.3477        C13-C14=1.3538       C13-H25=1.0816       C14-C2=1.4278        C14-C13=1.3538       C14-H26=1.0759       
O15-C4=1.2085        H16-N1=1.0045        H17-N1=1.0031        H18-C6=1.1010        H19-C7=1.0901        H20-C7=1.0865        
H21-C9=1.1002        H22-C11=1.0996       H23-C11=1.0918       H24-O12=0.9652       H25-C13=1.0816       H26-C14=1.0759       
 C  H  Rav=1.0908 sigma=0.0086  Rmin=1.0759  Rmax=1.1010     8
 C  C  Rav=1.4610 sigma=0.0749  Rmin=1.3538  Rmax=1.5353     4
 N  H  Rav=1.0038 sigma=0.0007  Rmin=1.0031  Rmax=1.0045     2
 N  C  Rav=1.3719 sigma=0.0529  Rmin=1.3120  Rmax=1.4464     6
 O  H  Rav=0.9652 sigma=0.0000  Rmin=0.9652  Rmax=0.9652     1
 O  C  Rav=1.3541 sigma=0.0841  Rmin=1.2085  Rmax=1.4081     4
 S  C  Rav=1.8222 sigma=0.0070  Rmin=1.8152  Rmax=1.8292     2

 selected bond angles (degree)
 --------------------
H16-N1-C2=117.94               H17-N1-C2=121.51               H17-N1-H16=120.40              N3-C2-N1=117.07                
C14-C2-N1=120.59               C14-C2-N3=122.34               C4-N3-C2=122.37                N5-C4-N3=116.52                
O15-C4-N3=125.27               O15-C4-N5=118.21               C6-N5-C4=117.67                C13-N5-C4=121.10               
C13-N5-C6=121.22               C7-C6-N5=111.90                O10-C6-N5=109.26               O10-C6-C7=109.79               
H18-C6-N5=105.15               H18-C6-C7=110.40               H18-C6-O10=110.25              S8-C7-C6=105.01                
H19-C7-C6=111.25               H19-C7-S8=108.81               H20-C7-C6=111.85               H20-C7-S8=109.83               
H20-C7-H19=109.94              C9-S8-C7= 87.07                O10-C9-S8=106.74               C11-C9-S8=112.47               
C11-C9-O10=109.11              H21-C9-S8=107.66               H21-C9-O10=110.51              H21-C9-C11=110.30              
C9-O10-C6=114.25               

 selected dihedral angles (degree)
 ---------------------------------
N3-C2-N1-H16=358.03           N3-C2-N1-H17=182.46           C14-C2-N1-H16=178.45          C14-C2-N1-H17=  2.87          
C4-N3-C2-N1=180.42            C4-N3-C2-C14=  0.00           N5-C4-N3-C2=359.10            O15-C4-N3-C2=178.62           
C6-N5-C4-N3=181.85            C6-N5-C4-O15=  2.29           C13-N5-C4-N3=  1.06           C13-N5-C4-O15=181.50          
C7-C6-N5-C4=251.67            C7-C6-N5-C13= 72.46           O10-C6-N5-C4=129.86           O10-C6-N5-C13=310.66          
H18-C6-N5-C4= 11.54           H18-C6-N5-C13=192.34          S8-C7-C6-N5=263.80            S8-C7-C6-O10= 25.30           
S8-C7-C6-H18=147.06           H19-C7-C6-N5=146.26           H19-C7-C6-O10=267.76          H19-C7-C6-H18= 29.51          
H20-C7-C6-N5= 22.88           H20-C7-C6-O10=144.38          H20-C7-C6-H18=266.13          C9-S8-C7-C6=325.34            
C9-S8-C7-H19= 84.53           C9-S8-C7-H20=204.92           O10-C9-S8-C7= 37.42           C11-C9-S8-C7=157.04           
H21-C9-S8-C7=278.75           C9-O10-C6-N5=125.86           C9-O10-C6-C7=  2.79           C9-O10-C6-H18=240.94          
C6-O10-C9-S8=330.36           C6-O10-C9-C11=208.58          C6-O10-C9-H21= 87.14          
           -------------------------------------------------
          |                Final Singlepoint                |
           -------------------------------------------------

          ...................................................
          :                      SETUP                      :
          :.................................................:
          :  # basis functions                  77          :
          :  # atomic orbitals                  76          :
          :  # shells                           42          :
          :  # electrons                        82          :
          :  max. iterations                   250          :
          :  Hamiltonian                  GFN2-xTB          :
          :  restarted?                      false          :
          :  GBSA solvation                  false          :
          :  PC potential                    false          :
          :  electronic temp.          300.0000000     K    :
          :  accuracy                    1.0000000          :
          :  -> integral cutoff          0.2500000E+02      :
          :  -> integral neglect         0.1000000E-07      :
          :  -> SCF convergence          0.1000000E-05 Eh   :
          :  -> wf. convergence          0.1000000E-03 e    :
          :  Broyden damping             0.4000000          :
          :  net charge                          0          :
          :  unpaired electrons                  0          :
          ...................................................

 iter      E             dE          RMSdq      gap      omega  full diag
   1    -47.4719458 -0.474719E+02  0.734E-05    3.09       0.0  T
   2    -47.4719458 -0.150493E-10  0.448E-05    3.09     437.7  T
   3    -47.4719458 -0.256506E-11  0.286E-05    3.09     684.7  T

   *** convergence criteria satisfied after 3 iterations ***

         #    Occupation            Energy/Eh            Energy/eV
      -------------------------------------------------------------
         1        2.0000           -0.7504931             -20.4220
       ...           ...                  ...                  ...
        35        2.0000           -0.4473035             -12.1717
        36        2.0000           -0.4326465             -11.7729
        37        2.0000           -0.4140464             -11.2668
        38        2.0000           -0.4075043             -11.0888
        39        2.0000           -0.4000179             -10.8850
        40        2.0000           -0.3882499             -10.5648
        41        2.0000           -0.3816374             -10.3849 (HOMO)
        42                         -0.2681373              -7.2964 (LUMO)
        43                         -0.2434787              -6.6254
        44                         -0.2190309              -5.9601
        45                         -0.1560527              -4.2464
        46                         -0.1222011              -3.3253
       ...                                ...                  ...
        76                          0.6752005              18.3731
      -------------------------------------------------------------
                  HL-Gap            0.1135001 Eh            3.0885 eV
             Fermi-level           -0.3248874 Eh           -8.8406 eV

 SCC (total)                   0 d,  0 h,  0 min,  0.058 sec
 SCC setup                      ...        0 min,  0.000 sec (  0.255%)
 Dispersion                     ...        0 min,  0.000 sec (  0.205%)
 classical contributions        ...        0 min,  0.000 sec (  0.097%)
 integral evaluation            ...        0 min,  0.004 sec (  7.178%)
 iterations                     ...        0 min,  0.043 sec ( 73.480%)
 molecular gradient             ...        0 min,  0.011 sec ( 18.619%)
 printout                       ...        0 min,  0.000 sec (  0.155%)

         :::::::::::::::::::::::::::::::::::::::::::::::::::::
         ::                     SUMMARY                     ::
         :::::::::::::::::::::::::::::::::::::::::::::::::::::
         :: total energy             -46.983443344353 Eh    ::
         :: gradient norm              0.000476849919 Eh/a0 ::
         :: HOMO-LUMO gap              3.088494825835 eV    ::
         ::.................................................::
         :: SCC energy               -47.471798040469 Eh    ::
         :: -> isotropic ES            0.104122332861 Eh    ::
         :: -> anisotropic ES          0.001717482723 Eh    ::
         :: -> anisotropic XC          0.013267649515 Eh    ::
         :: -> dispersion             -0.026276187017 Eh    ::
         :: repulsion energy           0.488354696116 Eh    ::
         :: add. restraining           0.000000000000 Eh    ::
         :: total charge              -0.000000000000 e     ::
         :::::::::::::::::::::::::::::::::::::::::::::::::::::

           -------------------------------------------------
          |                Property Printout                |
           -------------------------------------------------

    * Orbital Energies and Occupations

         #    Occupation            Energy/Eh            Energy/eV
      -------------------------------------------------------------
         1        2.0000           -0.7504931             -20.4220
       ...           ...                  ...                  ...
        29        2.0000           -0.5019486             -13.6587
        30        2.0000           -0.4988685             -13.5749
        31        2.0000           -0.4932301             -13.4215
        32        2.0000           -0.4856989             -13.2165
        33        2.0000           -0.4807030             -13.0806
        34        2.0000           -0.4684958             -12.7484
        35        2.0000           -0.4473035             -12.1717
        36        2.0000           -0.4326465             -11.7729
        37        2.0000           -0.4140464             -11.2668
        38        2.0000           -0.4075043             -11.0888
        39        2.0000           -0.4000179             -10.8850
        40        2.0000           -0.3882499             -10.5648
        41        2.0000           -0.3816374             -10.3849 (HOMO)
        42                         -0.2681373              -7.2964 (LUMO)
        43                         -0.2434787              -6.6254
        44                         -0.2190309              -5.9601
        45                         -0.1560527              -4.2464
        46                         -0.1222011              -3.3253
        47                         -0.0554097              -1.5078
        48                         -0.0383868              -1.0446
        49                         -0.0251147              -0.6834
        50                         -0.0144726              -0.3938
        51                         -0.0002760              -0.0075
        52                          0.0071864               0.1956
       ...                                ...                  ...
        76                          0.6752005              18.3731
      -------------------------------------------------------------
                  HL-Gap            0.1135001 Eh            3.0885 eV
             Fermi-level           -0.3248874 Eh           -8.8406 eV

     #   Z          covCN         q      C6AA      α(0)
     1   7 N        2.655    -0.236    26.180     7.599
     2   6 C        2.868     0.187    24.016     8.033
     3   7 N        1.851    -0.311    28.904     7.968
     4   6 C        2.733     0.336    21.290     7.554
     5   7 N        2.746    -0.104    23.286     7.167
     6   6 C        3.783     0.185    17.682     5.990
     7   6 C        3.799    -0.020    20.937     6.515
     8  16 S        2.068    -0.197   149.447    20.575
     9   6 C        3.748     0.151    18.219     6.088
    10   8 O        1.724    -0.320    19.345     5.939
    11   6 C        3.699     0.079    19.424     6.303
    12   8 O        1.656    -0.423    21.307     6.231
    13   6 C        2.863     0.054    26.776     8.482
    14   6 C        2.910    -0.098    30.473     9.052
    15   8 O        0.859    -0.445    22.594     6.373
    16   1 H        0.860     0.204     1.088     1.634
    17   1 H        0.861     0.186     1.181     1.702
    18   1 H        0.923     0.084     1.936     2.176
    19   1 H        0.925     0.061     2.192     2.315
    20   1 H        0.925     0.069     2.099     2.266
    21   1 H        0.923     0.040     2.455     2.450
    22   1 H        0.923     0.038     2.473     2.459
    23   1 H        0.924     0.065     2.138     2.286
    24   1 H        0.805     0.306     0.703     1.317
    25   1 H        0.925     0.065     2.146     2.291
    26   1 H        0.926     0.047     2.351     2.398

 Mol. C6AA /au·bohr⁶  :       8757.585234
 Mol. C8AA /au·bohr⁸  :     222998.147357
 Mol. α(0) /au        :        143.164154


Wiberg/Mayer (AO) data.
largest (>0.10) Wiberg bond orders for each atom

 ---------------------------------------------------------------------------
[...]
 * ratio c/w:     0.996 speedup



----- Triplet -----
      -----------------------------------------------------------      
     |                   =====================                   |     
     |                           x T B                           |     
     |                   =====================                   |     
     |                         S. Grimme                         |     
     |          Mulliken Center for Theoretical Chemistry        |     
     |                    University of Bonn                     |     
      -----------------------------------------------------------      

   * xtb version 6.7.1 (edcfbbe) compiled by 'conda@3ef47c1a292c' on 2024-11-25

   xtb is free software: you can redistribute it and/or modify it under
   the terms of the GNU Lesser General Public License as published by
   the Free Software Foundation, either version 3 of the License, or
   (at your option) any later version.
   
   xtb is distributed in the hope that it will be useful,
   but WITHOUT ANY WARRANTY; without even the implied warranty of
   MERCHANTABILITY or FITNESS FOR A PARTICULAR PURPOSE.  See the
   GNU Lesser General Public License for more details.
   
   Cite this work as:
   * C. Bannwarth, E. Caldeweyher, S. Ehlert, A. Hansen, P. Pracht,
     J. Seibert, S. Spicher, S. Grimme, WIREs Comput. Mol. Sci., 2020, 11,
     e01493. DOI: 10.1002/wcms.1493
   
   for GFN2-xTB:
   * C. Bannwarth, S. Ehlert and S. Grimme., J. Chem. Theory Comput., 2019,
     15, 1652-1671. DOI: 10.1021/acs.jctc.8b01176
   for GFN1-xTB:
   * S. Grimme, C. Bannwarth, P. Shushkov, J. Chem. Theory Comput., 2017,
     13, 1989-2009. DOI: 10.1021/acs.jctc.7b00118
   for GFN0-xTB:
   * P. Pracht, E. Caldeweyher, S. Ehlert, S. Grimme, ChemRxiv, 2019, preprint.
     DOI: 10.26434/chemrxiv.8326202.v1
   for GFN-FF:
   * S. Spicher and S. Grimme, Angew. Chem. Int. Ed., 2020, 59, 15665-15673.
     DOI: 10.1002/anie.202004239
   
   for ALPB and GBSA implicit solvation:
   * S. Ehlert, M. Stahn, S. Spicher, S. Grimme, J. Chem. Theory Comput.,
     2021, 17, 4250-4261. DOI: 10.1021/acs.jctc.1c00471
   
   for ddCOSMO and CPCM-X implicit solvation:
   * M. Stahn, S. Ehlert, S. Grimme, J. Phys. Chem. A,
     2023, XX, XXXX-XXXX. DOI: 10.1021/acs.jpca.3c04382
   
   for DFT-D4:
   * E. Caldeweyher, C. Bannwarth and S. Grimme, J. Chem. Phys., 2017,
     147, 034112. DOI: 10.1063/1.4993215
   * E. Caldeweyher, S. Ehlert, A. Hansen, H. Neugebauer, S. Spicher,
     C. Bannwarth and S. Grimme, J. Chem. Phys., 2019, 150, 154122.
     DOI: 10.1063/1.5090222
   * E. Caldeweyher, J.-M. Mewes, S. Ehlert and S. Grimme, Phys. Chem. Chem. Phys.
     2020, 22, 8499-8512. DOI: 10.1039/D0CP00502A
   
   for sTDA-xTB:
   * S. Grimme and C. Bannwarth, J. Chem. Phys., 2016, 145, 054103.
     DOI: 10.1063/1.4959605
   
   in the mass-spec context:
   * V. Asgeirsson, C. Bauer and S. Grimme, Chem. Sci., 2017, 8, 4879.
     DOI: 10.1039/c7sc00601b
   * J. Koopman and S. Grimme, ACS Omega 2019, 4, 12, 15120-15133.
     DOI: 10.1021/acsomega.9b02011
   
   for metadynamics refer to:
   * S. Grimme, J. Chem. Theory Comput., 2019, 155, 2847-2862
     DOI: 10.1021/acs.jctc.9b00143
   
   for SPH calculations refer to:
   * S. Spicher and S. Grimme, J. Chem. Theory Comput., 2021, 17, 1701-1714
     DOI: 10.1021/acs.jctc.0c01306
   
   for ONIOM refer to:
   * C. Plett, A. Katbashev, S. Ehlert, S. Grimme, M. Bursch,
     Phys. Chem. Chem. Phys., 2023, 25, 17860-17868. DOI: 10.1039/D3CP02178E
   
   for DIPRO refer to:
   * J. Kohn, N. Gildemeister, S. Grimme, D. Fazzi, A. Hansen,
     J. Chem. Phys., 2023, just accepted.
   
   for PTB refer to:
   * S. Grimme, M. Mueller, A. Hansen, J. Chem. Phys., 2023, 158, 124111.
     DOI: 10.1063/5.0137838
   
   with help from (in alphabetical order)
   P. Atkinson, C. Bannwarth, F. Bohle, G. Brandenburg, E. Caldeweyher
   M. Checinski, S. Dohm, S. Ehlert, S. Ehrlich, I. Gerasimov, C. Hölzer
   A. Katbashev, J. Kohn, J. Koopman, C. Lavigne, S. Lehtola, F. März, M. Müller,
   F. Musil, H. Neugebauer, J. Pisarek, C. Plett, P. Pracht, F. Pultar,
   J. Seibert, P. Shushkov, S. Spicher, M. Stahn, M. Steiner, T. Strunk,
   J. Stückrath, T. Rose, and J. Unsleber
   
 * started run on 2025/05/15 at 16:13:19.481     
   ID    Z sym.   atoms
    1    7 N      1, 3, 5
    2    6 C      2, 4, 6, 7, 9, 11, 13, 14
    3   16 S      8
    4    8 O      10, 12, 15
    5    1 H      16-26

           -------------------------------------------------
          |                Calculation Setup                |
           -------------------------------------------------

          program call               : xtb /rds/general/user/hgt20/home/callum/QDESCP/Lamivudine_rdkit_conf_11/Lamivudine_rdkit_conf_11.xyz --acc 1 --gfn 2 --chrg 0 --uhf 2 --etemp 300 --input /rds/general/user/hgt20/home/callum/QDESCP/Lamivudine_rdkit_conf_11/Lamivudine_rdkit_conf_11_xtb.inp -P 1
          hostname                   : login-c
          coordinate file            : /rds/general/user/hgt20/home/callum/QDESCP/Lamivudine_rdkit_conf_11/Lamivudine_rdkit_conf_11.xyz
          omp threads                :                     1


           -------------------------------------------------
          |                 G F N 2 - x T B                 |
           -------------------------------------------------

        Reference                      10.1021/acs.jctc.8b01176
      * Hamiltonian:
        H0-scaling (s, p, d)           1.850000    2.230000    2.230000
        zeta-weighting                 0.500000
      * Dispersion:
        s8                             2.700000
        a1                             0.520000
        a2                             5.000000
        s9                             5.000000
      * Repulsion:
        kExp                           1.500000    1.000000
        rExp                           1.000000
      * Coulomb:
        alpha                          2.000000
        third order                    shell-resolved
        anisotropic                    true
        a3                             3.000000
        a5                             4.000000
        cn-shift                       1.200000
        cn-exp                         4.000000
        max-rad                        5.000000


          ...................................................
          :                      SETUP                      :
          :.................................................:
          :  # basis functions                  77          :
          :  # atomic orbitals                  76          :
          :  # shells                           42          :
          :  # electrons                        82          :
          :  max. iterations                   250          :
          :  Hamiltonian                  GFN2-xTB          :
          :  restarted?                      false          :
          :  GBSA solvation                  false          :
          :  PC potential                    false          :
          :  electronic temp.          300.0000000     K    :
          :  accuracy                    1.0000000          :
          :  -> integral cutoff          0.2500000E+02      :
          :  -> integral neglect         0.1000000E-07      :
          :  -> SCF convergence          0.1000000E-05 Eh   :
          :  -> wf. convergence          0.1000000E-03 e    :
          :  Broyden damping             0.4000000          :
          :  net charge                          0          :
          :  unpaired electrons                  2          :
          ...................................................

 iter      E             dE          RMSdq      gap      omega  full diag
   1    -47.1042357 -0.471042E+02  0.502E+00    0.30       0.0  T
   2    -47.1542087 -0.499730E-01  0.357E+00    1.19       1.0  T
   3    -47.0163081  0.137901E+00  0.354E+00    1.21       1.0  T
   4    -47.3016671 -0.285359E+00  0.186E+00    0.68       1.0  T
   5    -47.2761163  0.255507E-01  0.156E+00    0.28       1.0  T
   6    -47.2899270 -0.138107E-01  0.138E+00    0.27       1.0  T
   7    -47.2568151  0.331119E-01  0.174E+00    0.55       1.0  T
   8    -47.3383118 -0.814967E-01  0.341E-01    0.36       1.0  T
   9    -47.3326289  0.568293E-02  0.561E-01    0.29       1.0  T
  10    -47.3374778 -0.484893E-02  0.387E-01    0.37       1.0  T
  11    -47.3371463  0.331507E-03  0.401E-01    0.36       1.0  T
  12    -47.3428901 -0.574386E-02  0.682E-02    0.33       1.0  T
  13    -47.3429782 -0.880543E-04  0.385E-02    0.33       1.0  T
  14    -47.3430275 -0.492666E-04  0.168E-02    0.32       1.2  T
  15    -47.3430209  0.660100E-05  0.197E-02    0.32       1.0  T
  16    -47.3430248 -0.389069E-05  0.159E-02    0.32       1.2  T
  17    -47.3430321 -0.730274E-05  0.230E-03    0.32       8.5  T
  18    -47.3430321  0.819349E-08  0.259E-03    0.32       7.6  T
  19    -47.3430323 -0.209302E-06  0.273E-04    0.32      71.8  T
  20    -47.3430323 -0.839762E-09  0.258E-04    0.32      75.9  T

   *** convergence criteria satisfied after 20 iterations ***

         #    Occupation            Energy/Eh            Energy/eV
      -------------------------------------------------------------
         1        2.0000           -0.7505221             -20.4227
       ...           ...                  ...                  ...
        36        2.0000           -0.4320451             -11.7565
        37        2.0000           -0.4190360             -11.4025
        38        2.0000           -0.4100651             -11.1584
        39        1.9999           -0.4037710             -10.9872
        40        1.8488           -0.3965406             -10.7904
        41        1.1513           -0.3932634             -10.7012
        42        0.9980           -0.2548556              -6.9350 (HOMO)
        43        0.0020           -0.2430728              -6.6143 (LUMO)
        44                         -0.2180773              -5.9342
        45                         -0.1643205              -4.4714
        46                         -0.1174079              -3.1948
        47                         -0.0543403              -1.4787
       ...                                ...                  ...
        76                          0.6709125              18.2565
      -------------------------------------------------------------
                  HL-Gap            0.0117828 Eh            0.3206 eV
             Fermi-level           -0.3219330 Eh           -8.7602 eV

 transition dipole moment (au) for excitation:          41          42
     X       Y       Z   
  -0.7669   0.3124   0.0004  total (au/Debye):    0.828   2.105
 dE (eV)             :    3.766
 oscillator strength :  0.89488E-01

 SCC (total)                   0 d,  0 h,  0 min,  0.042 sec
 SCC setup                      ...        0 min,  0.000 sec (  0.496%)
 Dispersion                     ...        0 min,  0.000 sec (  0.445%)
 classical contributions        ...        0 min,  0.000 sec (  0.149%)
 integral evaluation            ...        0 min,  0.004 sec ( 10.281%)
 iterations                     ...        0 min,  0.021 sec ( 50.385%)
 molecular gradient             ...        0 min,  0.011 sec ( 27.130%)
 printout                       ...        0 min,  0.005 sec ( 11.097%)

         :::::::::::::::::::::::::::::::::::::::::::::::::::::
         ::                     SUMMARY                     ::
         :::::::::::::::::::::::::::::::::::::::::::::::::::::
         :: total energy             -46.854529808476 Eh    ::
         :: gradient norm              0.099147143379 Eh/a0 ::
         :: HOMO-LUMO gap              0.320627007229 eV    ::
         ::.................................................::
         :: SCC energy               -47.342884504592 Eh    ::
         :: -> isotropic ES            0.094407631875 Eh    ::
         :: -> anisotropic ES          0.001545257194 Eh    ::
         :: -> anisotropic XC          0.006801146062 Eh    ::
         :: -> dispersion             -0.026311069368 Eh    ::
         :: repulsion energy           0.488354696116 Eh    ::
         :: add. restraining           0.000000000000 Eh    ::
         :: total charge               0.000000000005 e     ::
         :::::::::::::::::::::::::::::::::::::::::::::::::::::

           -------------------------------------------------
          |                Property Printout                |
           -------------------------------------------------

    * Orbital Energies and Occupations

         #    Occupation            Energy/Eh            Energy/eV
      -------------------------------------------------------------
         1        2.0000           -0.7505221             -20.4227
       ...           ...                  ...                  ...
        30        2.0000           -0.4948136             -13.4646
        31        2.0000           -0.4885411             -13.2939
        32        2.0000           -0.4826085             -13.1324
        33        2.0000           -0.4767147             -12.9721
        34        2.0000           -0.4685729             -12.7505
        35        2.0000           -0.4468732             -12.1600
        36        2.0000           -0.4320451             -11.7565
        37        2.0000           -0.4190360             -11.4025
        38        2.0000           -0.4100651             -11.1584
        39        1.9999           -0.4037710             -10.9872
        40        1.8488           -0.3965406             -10.7904
        41        1.1513           -0.3932634             -10.7012
        42        0.9980           -0.2548556              -6.9350 (HOMO)
        43        0.0020           -0.2430728              -6.6143 (LUMO)
        44                         -0.2180773              -5.9342
        45                         -0.1643205              -4.4714
        46                         -0.1174079              -3.1948
        47                         -0.0543403              -1.4787
        48                         -0.0414041              -1.1267
        49                         -0.0308187              -0.8386
        50                         -0.0167256              -0.4551
        51                          0.0045173               0.1229
        52                          0.0106285               0.2892
        53                          0.0474289               1.2906
       ...                                ...                  ...
        76                          0.6709125              18.2565
      -------------------------------------------------------------
                  HL-Gap            0.0117828 Eh            0.3206 eV
             Fermi-level           -0.3219330 Eh           -8.7602 eV

     #   Z          covCN         q      C6AA      α(0)
     1   7 N        2.655    -0.246    26.412     7.633
     2   6 C        2.868     0.142    24.914     8.182
     3   7 N        1.851    -0.256    27.524     7.776
     4   6 C        2.733     0.332    21.363     7.567
     5   7 N        2.746    -0.098    23.165     7.148
     6   6 C        3.783     0.186    17.670     5.988
     7   6 C        3.799    -0.034    21.177     6.552
     8  16 S        2.068    -0.139   146.891    20.399
     9   6 C        3.748     0.138    18.408     6.119
    10   8 O        1.724    -0.322    19.378     5.944
    11   6 C        3.699     0.079    19.426     6.304
    12   8 O        1.656    -0.423    21.305     6.231
    13   6 C        2.863    -0.003    28.096     8.688
    14   6 C        2.910    -0.076    29.889     8.965
    15   8 O        0.859    -0.422    22.122     6.306
    16   1 H        0.860     0.193     1.143     1.675
    17   1 H        0.861     0.178     1.223     1.733
    18   1 H        0.923     0.079     1.986     2.204
    19   1 H        0.925     0.067     2.118     2.276
    20   1 H        0.925     0.073     2.053     2.240
    21   1 H        0.923     0.039     2.460     2.453
    22   1 H        0.923     0.039     2.462     2.454
    23   1 H        0.924     0.065     2.147     2.291
    24   1 H        0.805     0.306     0.703     1.317
    25   1 H        0.925     0.054     2.272     2.357
    26   1 H        0.926     0.050     2.317     2.380

 Mol. C6AA /au·bohr⁶  :       8757.990651
 Mol. C8AA /au·bohr⁸  :     222868.273475
 Mol. α(0) /au        :        143.180568


Wiberg/Mayer (AO) data.
largest (>0.10) Wiberg bond orders for each atom

 ---------------------------------------------------------------------------
     #   Z sym  total        # sym  WBO       # sym  WBO       # sym  WBO
 ---------------------------------------------------------------------------
     1   7 N    3.274 --     2 C    1.204    17 H    0.951    16 H    0.944
     2   6 C    3.838 --     3 N    1.274    14 C    1.211     1 N    1.204
     3   7 N    2.968 --     4 C    1.286     2 C    1.274    15 O    0.165
     4   6 C    3.946 --    15 O    1.620     3 N    1.286     5 N    0.939
     5   7 N    3.453 --    13 C    1.178     6 C    0.993     4 C    0.939
     6   6 C    3.933 --     5 N    0.993    10 O    0.961     7 C    0.959
                            18 H    0.937
     7   6 C    3.967 --    20 H    0.971     8 S    0.966    19 H    0.962
                             6 C    0.959
     8  16 S    2.248 --     7 C    0.966     9 C    0.887
     9   6 C    3.908 --    10 O    0.991    11 C    0.981    21 H    0.953
                             8 S    0.887
    10   8 O    2.111 --     9 C    0.991     6 C    0.961
    11   6 C    3.960 --    12 O    1.015     9 C    0.981    23 H    0.968
                            22 H    0.965
    12   8 O    1.975 --    11 C    1.015    24 H    0.891
    13   6 C    3.845 --    14 C    1.425     5 N    1.178    25 H    0.935
    14   6 C    3.859 --    13 C    1.425     2 C    1.211    26 H    0.963
    15   8 O    2.003 --     4 C    1.620     3 N    0.165
    16   1 H    0.961 --     1 N    0.944
    17   1 H    0.967 --     1 N    0.951
    18   1 H    0.992 --     6 C    0.937
    19   1 H    0.984 --     7 C    0.962
    20   1 H    0.994 --     7 C    0.971
    21   1 H    0.991 --     9 C    0.953
    22   1 H    0.998 --    11 C    0.965
    23   1 H    0.996 --    11 C    0.968
    24   1 H    0.906 --    12 O    0.891
    25   1 H    0.989 --    13 C    0.935
    26   1 H    0.994 --    14 C    0.963
 ---------------------------------------------------------------------------

Topologies differ in total number of bonds
Writing topology from bond orders to xtbtopo.mol

molecular dipole:
                 x           y           z       tot (Debye)
 q only:       -0.653      -0.110       1.480
   full:       -0.781       0.041       1.318       3.897
molecular quadrupole (traceless):
                xx          xy          yy          xz          yz          zz
 q only:        9.042      -8.996       1.285     -14.467       3.566     -10.327
  q+dip:        8.397     -10.993       0.675     -21.698       7.021      -9.071
   full:        7.854      -9.756       2.332     -20.953       6.359     -10.186


           -------------------------------------------------
          | TOTAL ENERGY              -46.854529808476 Eh   |
          | GRADIENT NORM               0.099147143379 Eh/α |
          | HOMO-LUMO GAP               0.320627007229 eV   |
           -------------------------------------------------

------------------------------------------------------------------------
 * finished run on 2025/05/15 at 16:13:19.533     
------------------------------------------------------------------------
 total:
 * wall-time:     0 d,  0 h,  0 min,  0.052 sec
 *  cpu-time:     0 d,  0 h,  0 min,  0.051 sec
 * ratio c/w:     0.976 speedup
 SCF:
 * wall-time:     0 d,  0 h,  0 min,  0.042 sec
 *  cpu-time:     0 d,  0 h,  0 min,  0.042 sec
 * ratio c/w:     0.995 speedup


