26
 energy: -46.982382154109 gnorm: 0.000701089416 xtb: 6.7.1 (edcfbbe)
N           -4.43190026214157        0.68991936852981        0.93412881447818
C           -3.20097996945099        0.25461248297736        0.61348054492002
N           -2.97809516412796       -1.03508287293018        0.72099195408823
C           -1.78671146125411       -1.57605362347954        0.44808543296691
N           -0.75475723753847       -0.67502977435581       -0.00082977267794
C            0.53449446895271       -1.28316338995100       -0.29045935919515
C            1.31846096104634       -1.52018687848918        1.00644362205395
S            2.29344585562027       -0.01225596410804        1.20662477876123
C            2.48683058356487       -0.00961795432320       -0.62092965414454
O            1.27675967076435       -0.47084119603473       -1.15765996706668
C            2.81966742140604        1.38342949341876       -1.15824201204680
O            4.12312858776059        1.77142386701161       -0.84444291459426
C           -0.98028698691402        0.64471567060657       -0.11055967863385
C           -2.19328681691443        1.17032323460653        0.18927465209117
O           -1.50567740634216       -2.74818209951626        0.55493366473408
H           -4.69042331426237        1.65255495685244        0.82439095882777
H           -5.11790885815158        0.00612103887487        1.19938088389471
H            0.31389586798049       -2.24737634900393       -0.77242943076510
H            0.65876536369300       -1.66083531911457        1.85740530568198
H            1.99176835643526       -2.37232142361871        0.91237151963251
H            3.30653664703805       -0.70373588485578       -0.86116683540168
H            2.75490905380648        1.35706524366801       -2.24912952046224
H            2.08268399784154        2.10483256154435       -0.77740455283060
H            4.22193877538950        1.80726534156679        0.11511998116784
H           -0.15440589579885        1.24764258112754       -0.46073479052154
H           -2.38905223840289        2.22467688899670        0.10405637504168
