----- Optimization -----
      -----------------------------------------------------------      
     |                   =====================                   |     
     |                           x T B                           |     
     |                   =====================                   |     
     |                         S. Grimme                         |     
     |          Mulliken Center for Theoretical Chemistry        |     
     |                    University of Bonn                     |     
      -----------------------------------------------------------      

   * xtb version 6.7.1 (edcfbbe) compiled by 'conda@3ef47c1a292c' on 2024-11-25

   xtb is free software: you can redistribute it and/or modify it under
   the terms of the GNU Lesser General Public License as published by
   the Free Software Foundation, either version 3 of the License, or
   (at your option) any later version.
   
   xtb is distributed in the hope that it will be useful,
   but WITHOUT ANY WARRANTY; without even the implied warranty of
   MERCHANTABILITY or FITNESS FOR A PARTICULAR PURPOSE.  See the
   GNU Lesser General Public License for more details.
   
   Cite this work as:
   * C. Bannwarth, E. Caldeweyher, S. Ehlert, A. Hansen, P. Pracht,
     J. Seibert, S. Spicher, S. Grimme, WIREs Comput. Mol. Sci., 2020, 11,
     e01493. DOI: 10.1002/wcms.1493
   
   for GFN2-xTB:
   * C. Bannwarth, S. Ehlert and S. Grimme., J. Chem. Theory Comput., 2019,
     15, 1652-1671. DOI: 10.1021/acs.jctc.8b01176
   for GFN1-xTB:
   * S. Grimme, C. Bannwarth, P. Shushkov, J. Chem. Theory Comput., 2017,
     13, 1989-2009. DOI: 10.1021/acs.jctc.7b00118
   for GFN0-xTB:
   * P. Pracht, E. Caldeweyher, S. Ehlert, S. Grimme, ChemRxiv, 2019, preprint.
     DOI: 10.26434/chemrxiv.8326202.v1
   for GFN-FF:
   * S. Spicher and S. Grimme, Angew. Chem. Int. Ed., 2020, 59, 15665-15673.
     DOI: 10.1002/anie.202004239
   
   for ALPB and GBSA implicit solvation:
   * S. Ehlert, M. Stahn, S. Spicher, S. Grimme, J. Chem. Theory Comput.,
     2021, 17, 4250-4261. DOI: 10.1021/acs.jctc.1c00471
   
   for ddCOSMO and CPCM-X implicit solvation:
   * M. Stahn, S. Ehlert, S. Grimme, J. Phys. Chem. A,
     2023, XX, XXXX-XXXX. DOI: 10.1021/acs.jpca.3c04382
   
   for DFT-D4:
   * E. Caldeweyher, C. Bannwarth and S. Grimme, J. Chem. Phys., 2017,
     147, 034112. DOI: 10.1063/1.4993215
   * E. Caldeweyher, S. Ehlert, A. Hansen, H. Neugebauer, S. Spicher,
     C. Bannwarth and S. Grimme, J. Chem. Phys., 2019, 150, 154122.
     DOI: 10.1063/1.5090222
   * E. Caldeweyher, J.-M. Mewes, S. Ehlert and S. Grimme, Phys. Chem. Chem. Phys.
     2020, 22, 8499-8512. DOI: 10.1039/D0CP00502A
   
   for sTDA-xTB:
   * S. Grimme and C. Bannwarth, J. Chem. Phys., 2016, 145, 054103.
     DOI: 10.1063/1.4959605
   
   in the mass-spec context:
   * V. Asgeirsson, C. Bauer and S. Grimme, Chem. Sci., 2017, 8, 4879.
     DOI: 10.1039/c7sc00601b
   * J. Koopman and S. Grimme, ACS Omega 2019, 4, 12, 15120-15133.
     DOI: 10.1021/acsomega.9b02011
   
   for metadynamics refer to:
   * S. Grimme, J. Chem. Theory Comput., 2019, 155, 2847-2862
     DOI: 10.1021/acs.jctc.9b00143
   
   for SPH calculations refer to:
   * S. Spicher and S. Grimme, J. Chem. Theory Comput., 2021, 17, 1701-1714
     DOI: 10.1021/acs.jctc.0c01306
   
   for ONIOM refer to:
   * C. Plett, A. Katbashev, S. Ehlert, S. Grimme, M. Bursch,
     Phys. Chem. Chem. Phys., 2023, 25, 17860-17868. DOI: 10.1039/D3CP02178E
   
   for DIPRO refer to:
   * J. Kohn, N. Gildemeister, S. Grimme, D. Fazzi, A. Hansen,
     J. Chem. Phys., 2023, just accepted.
   
   for PTB refer to:
   * S. Grimme, M. Mueller, A. Hansen, J. Chem. Phys., 2023, 158, 124111.
     DOI: 10.1063/5.0137838
   
   with help from (in alphabetical order)
   P. Atkinson, C. Bannwarth, F. Bohle, G. Brandenburg, E. Caldeweyher
   M. Checinski, S. Dohm, S. Ehlert, S. Ehrlich, I. Gerasimov, C. Hölzer
   A. Katbashev, J. Kohn, J. Koopman, C. Lavigne, S. Lehtola, F. März, M. Müller,
   F. Musil, H. Neugebauer, J. Pisarek, C. Plett, P. Pracht, F. Pultar,
   J. Seibert, P. Shushkov, S. Spicher, M. Stahn, M. Steiner, T. Strunk,
   J. Stückrath, T. Rose, and J. Unsleber
   
 * started run on 2025/05/15 at 16:04:42.822     
   ID    Z sym.   atoms
    1    8 O      1, 4, 9-12, 20
    2    6 C      2, 3, 5-8, 13-19
    3    1 H      21-38

           -------------------------------------------------
          |                Calculation Setup                |
           -------------------------------------------------

          program call               : xtb /rds/general/user/hgt20/home/callum/QDESCP/Salicin_rdkit_conf_10/Salicin_rdkit_conf_10.xyz --opt normal --acc 1 --gfn 2 --chrg 0 --uhf 0 -P 1
          hostname                   : login-c
          coordinate file            : /rds/general/user/hgt20/home/callum/QDESCP/Salicin_rdkit_conf_10/Salicin_rdkit_conf_10.xyz
          omp threads                :                     1


           -------------------------------------------------
          |                 G F N 2 - x T B                 |
           -------------------------------------------------

        Reference                      10.1021/acs.jctc.8b01176
      * Hamiltonian:
        H0-scaling (s, p, d)           1.850000    2.230000    2.230000
        zeta-weighting                 0.500000
      * Dispersion:
        s8                             2.700000
        a1                             0.520000
        a2                             5.000000
        s9                             5.000000
      * Repulsion:
        kExp                           1.500000    1.000000
        rExp                           1.000000
      * Coulomb:
        alpha                          2.000000
        third order                    shell-resolved
        anisotropic                    true
        a3                             3.000000
        a5                             4.000000
        cn-shift                       1.200000
        cn-exp                         4.000000
        max-rad                        5.000000


          ...................................................
          :                      SETUP                      :
          :.................................................:
          :  # basis functions                  98          :
          :  # atomic orbitals                  98          :
          :  # shells                           58          :
          :  # electrons                       112          :
          :  max. iterations                   250          :
          :  Hamiltonian                  GFN2-xTB          :
          :  restarted?                      false          :
          :  GBSA solvation                  false          :
          :  PC potential                    false          :
          :  electronic temp.          300.0000000     K    :
          :  accuracy                    1.0000000          :
          :  -> integral cutoff          0.2500000E+02      :
          :  -> integral neglect         0.1000000E-07      :
          :  -> SCF convergence          0.1000000E-05 Eh   :
          :  -> wf. convergence          0.1000000E-03 e    :
          :  Broyden damping             0.4000000          :
          :  net charge                          0          :
          :  unpaired electrons                  0          :
          ...................................................

 iter      E             dE          RMSdq      gap      omega  full diag
   1    -66.0051867 -0.660052E+02  0.468E+00    4.22       0.0  T
   2    -66.0689043 -0.637176E-01  0.260E+00    4.25       1.0  T
   3    -66.0669558  0.194851E-02  0.880E-01    4.07       1.0  T
   4    -66.0720559 -0.510016E-02  0.285E-01    4.22       1.0  T
   5    -66.0735295 -0.147360E-02  0.929E-02    4.22       1.0  T
   6    -66.0735732 -0.436491E-04  0.413E-02    4.22       1.0  T
   7    -66.0735808 -0.766422E-05  0.153E-02    4.23       1.1  T
   8    -66.0735830 -0.214164E-05  0.518E-03    4.22       3.1  T
   9    -66.0735833 -0.295196E-06  0.194E-03    4.22       8.4  T
  10    -66.0735833 -0.316330E-07  0.884E-04    4.22      18.3  T
  11    -66.0735833 -0.719220E-08  0.369E-04    4.22      43.9  T

   *** convergence criteria satisfied after 11 iterations ***

         #    Occupation            Energy/Eh            Energy/eV
      -------------------------------------------------------------
         1        2.0000           -0.7258157             -19.7504
       ...           ...                  ...                  ...
        50        2.0000           -0.4238628             -11.5339
        51        2.0000           -0.4211736             -11.4607
        52        2.0000           -0.4188345             -11.3971
        53        2.0000           -0.4148269             -11.2880
        54        2.0000           -0.4142745             -11.2730
        55        2.0000           -0.4110797             -11.1860
        56        2.0000           -0.3971309             -10.8065 (HOMO)
        57                         -0.2420012              -6.5852 (LUMO)
        58                         -0.2357658              -6.4155
        59                         -0.1178478              -3.2068
        60                         -0.0522163              -1.4209
        61                         -0.0187406              -0.5100
       ...                                ...                  ...
        98                          0.6180098              16.8169
      -------------------------------------------------------------
                  HL-Gap            0.1551297 Eh            4.2213 eV
             Fermi-level           -0.3195661 Eh           -8.6958 eV

 SCC (total)                   0 d,  0 h,  0 min,  0.078 sec
 SCC setup                      ...        0 min,  0.000 sec (  0.419%)
 Dispersion                     ...        0 min,  0.000 sec (  0.458%)
 classical contributions        ...        0 min,  0.000 sec (  0.155%)
 integral evaluation            ...        0 min,  0.006 sec (  8.270%)
 iterations                     ...        0 min,  0.051 sec ( 66.238%)
 molecular gradient             ...        0 min,  0.019 sec ( 24.273%)
 printout                       ...        0 min,  0.000 sec (  0.178%)

         :::::::::::::::::::::::::::::::::::::::::::::::::::::
         ::                     SUMMARY                     ::
         :::::::::::::::::::::::::::::::::::::::::::::::::::::
         :: total energy             -65.459911278603 Eh    ::
         :: gradient norm              0.074511470582 Eh/a0 ::
         :: HOMO-LUMO gap              4.221294569317 eV    ::
         ::.................................................::
         :: SCC energy               -66.073322985311 Eh    ::
         :: -> isotropic ES            0.157810678088 Eh    ::
         :: -> anisotropic ES         -0.004390856629 Eh    ::
         :: -> anisotropic XC          0.000066656711 Eh    ::
         :: -> dispersion             -0.036496047062 Eh    ::
         :: repulsion energy           0.613411706709 Eh    ::
         :: add. restraining           0.000000000000 Eh    ::
         :: total charge              -0.000000000000 e     ::
         :::::::::::::::::::::::::::::::::::::::::::::::::::::

      ----------------------------------------------------------- 
     |                   =====================                   |
     |                        A N C O P T                        |
     |                   =====================                   |
     |               Approximate Normal Coordinate               |
     |                Rational Function Optimizer                |
      ----------------------------------------------------------- 
      ----------------------------------------------------------- 
     |                   =====================                   |
     |                        A N C O P T                        |
     |                   =====================                   |
     |               Approximate Normal Coordinate               |
     |                Rational Function Optimizer                |
      ----------------------------------------------------------- 

          ...................................................
          :                      SETUP                      :
          :.................................................:
          :   optimization level            normal          :
          :   max. optcycles                   200          :
          :   ANC micro-cycles                  20          :
          :   degrees of freedom               108          :
          :.................................................:
          :   RF solver                   davidson          :
          :   write xtbopt.log                true          :
          :   linear?                        false          :
          :   energy convergence         0.5000000E-05 Eh   :
          :   grad. convergence          0.1000000E-02 Eh/α :
          :   maxmium RF displ.          1.0000000          :
          :   Hlow (freq-cutoff)         0.1000000E-01      :
          :   Hmax (freq-cutoff)         5.0000000          :
          :   S6 in model hess.         20.0000000          :
          ...................................................

generating ANC from exact Hessian ...
Using Lindh-Hessian (1995)
 Shifting diagonal of input Hessian by    9.5666778891336200E-003
 Lowest  eigenvalues of input Hessian
    0.000000    0.000000    0.000000    0.000000    0.000000    0.000000
    0.010000    0.010554    0.011291    0.012296    0.013401    0.014406
    0.014846    0.016036    0.016338    0.017557    0.018622    0.019943
 Highest eigenvalues
    1.517127    1.577872    1.705947    1.838796    1.953088    2.024902


........................................................................
.............................. CYCLE    1 ..............................
........................................................................

 iter      E             dE          RMSdq      gap      omega  full diag
   1    -66.0735833 -0.660736E+02  0.108E-04    4.22       0.0  T
   2    -66.0735833 -0.593161E-10  0.615E-05    4.22     263.8  T
   3    -66.0735833 -0.852651E-13  0.334E-05    4.22     485.9  T
     SCC iter.                  ...        0 min,  0.055 sec
     gradient                   ...        0 min,  0.020 sec
 * total energy  :   -65.4599113 Eh     change       -0.3694694E-08 Eh
   gradient norm :     0.0745111 Eh/α   predicted     0.0000000E+00 (-100.00%)
   displ. norm   :     0.2950188 α      lambda       -0.1085527E-01
   maximum displ.:     0.0839227 α      in ANC's #19, #21, #15, ...

........................................................................
.............................. CYCLE    2 ..............................
........................................................................

 iter      E             dE          RMSdq      gap      omega  full diag
   1    -66.1030345 -0.661030E+02  0.186E-01    4.27       0.0  T
   2    -66.1030614 -0.268692E-04  0.112E-01    4.26       1.0  T
   3    -66.1030530  0.840765E-05  0.205E-02    4.27       1.0  T
   4    -66.1030661 -0.131059E-04  0.703E-03    4.26       2.3  T
   5    -66.1030671 -0.991770E-06  0.336E-03    4.26       4.8  T
   6    -66.1030671 -0.586525E-07  0.126E-03    4.26      12.8  T
   7    -66.1030672 -0.843700E-08  0.534E-04    4.26      30.4  T
   8    -66.1030672 -0.370086E-08  0.201E-04    4.26      80.7  T
     SCC iter.                  ...        0 min,  0.013 sec
     gradient                   ...        0 min,  0.070 sec
 * total energy  :   -65.4675585 Eh     change       -0.7647221E-02 Eh
   gradient norm :     0.0383823 Eh/α   predicted    -0.5900698E-02 ( -22.84%)
   displ. norm   :     0.2880696 α      lambda       -0.4169811E-02
   maximum displ.:     0.1230834 α      in ANC's #3, #15, #21, ...

........................................................................
.............................. CYCLE    3 ..............................
........................................................................

 iter      E             dE          RMSdq      gap      omega  full diag
   1    -66.1180891 -0.661181E+02  0.138E-01    4.26       0.0  T
   2    -66.1181071 -0.180599E-04  0.822E-02    4.27       1.0  T
   3    -66.1181067  0.384559E-06  0.135E-02    4.27       1.2  T
   4    -66.1181100 -0.323962E-05  0.496E-03    4.27       3.3  T
   5    -66.1181102 -0.256241E-06  0.258E-03    4.27       6.3  T
   6    -66.1181103 -0.102046E-06  0.106E-03    4.27      15.3  T
   7    -66.1181103 -0.306437E-08  0.353E-04    4.27      46.0  T
   8    -66.1181103 -0.173215E-08  0.134E-04    4.27     121.3  T
     SCC iter.                  ...        0 min,  0.013 sec
     gradient                   ...        0 min,  0.067 sec
 * total energy  :   -65.4700277 Eh     change       -0.2469176E-02 Eh
   gradient norm :     0.0108660 Eh/α   predicted    -0.2258899E-02 (  -8.52%)
   displ. norm   :     0.1942735 α      lambda       -0.6353443E-03
   maximum displ.:     0.1389680 α      in ANC's #3, #6, #8, ...

........................................................................
.............................. CYCLE    4 ..............................
........................................................................

 iter      E             dE          RMSdq      gap      omega  full diag
   1    -66.1183455 -0.661183E+02  0.605E-02    4.26       0.0  T
   2    -66.1183492 -0.363989E-05  0.369E-02    4.26       1.0  T
   3    -66.1183462  0.292432E-05  0.104E-02    4.26       1.6  T
   4    -66.1183500 -0.373148E-05  0.259E-03    4.27       6.3  T
   5    -66.1183501 -0.127293E-06  0.961E-04    4.26      16.9  T
   6    -66.1183501 -0.542764E-08  0.453E-04    4.26      35.8  T
     SCC iter.                  ...        0 min,  0.010 sec
     gradient                   ...        0 min,  0.020 sec
 * total energy  :   -65.4705064 Eh     change       -0.4787128E-03 Eh
   gradient norm :     0.0054904 Eh/α   predicted    -0.3296687E-03 ( -31.13%)
   displ. norm   :     0.2840499 α      lambda       -0.5511209E-03
   maximum displ.:     0.2147742 α      in ANC's #3, #6, #8, ...

........................................................................
.............................. CYCLE    5 ..............................
........................................................................

 iter      E             dE          RMSdq      gap      omega  full diag
   1    -66.1165206 -0.661165E+02  0.823E-02    4.25       0.0  T
   2    -66.1165262 -0.563118E-05  0.502E-02    4.26       1.0  T
   3    -66.1165194  0.681377E-05  0.153E-02    4.26       1.1  T
   4    -66.1165279 -0.847475E-05  0.299E-03    4.26       5.4  T
   5    -66.1165281 -0.145137E-06  0.126E-03    4.26      12.9  T
   6    -66.1165281 -0.673802E-08  0.598E-04    4.26      27.1  T
   7    -66.1165281 -0.166835E-08  0.218E-04    4.26      74.5  T
     SCC iter.                  ...        0 min,  0.062 sec
     gradient                   ...        0 min,  0.020 sec
 * total energy  :   -65.4709136 Eh     change       -0.4071579E-03 Eh
   gradient norm :     0.0066385 Eh/α   predicted    -0.2977954E-03 ( -26.86%)
   displ. norm   :     0.2635179 α      lambda       -0.3491775E-03
   maximum displ.:     0.1981094 α      in ANC's #3, #6, #8, ...

........................................................................
.............................. CYCLE    6 ..............................
........................................................................

 iter      E             dE          RMSdq      gap      omega  full diag
   1    -66.1155820 -0.661156E+02  0.746E-02    4.26       0.0  T
   2    -66.1155852 -0.320160E-05  0.449E-02    4.27       1.0  T
   3    -66.1155804  0.480225E-05  0.129E-02    4.27       1.3  T
   4    -66.1155863 -0.596109E-05  0.231E-03    4.27       7.0  T
   5    -66.1155864 -0.604192E-07  0.108E-03    4.27      15.0  T
   6    -66.1155864 -0.420319E-08  0.501E-04    4.27      32.4  T
   7    -66.1155864 -0.172626E-08  0.150E-04    4.27     107.8  T
     SCC iter.                  ...        0 min,  0.011 sec
     gradient                   ...        0 min,  0.065 sec
 * total energy  :   -65.4711984 Eh     change       -0.2848795E-03 Eh
   gradient norm :     0.0071864 Eh/α   predicted    -0.1867274E-03 ( -34.45%)
   displ. norm   :     0.2994571 α      lambda       -0.3515027E-03
   maximum displ.:     0.2204283 α      in ANC's #3, #6, #8, ...

........................................................................
.............................. CYCLE    7 ..............................
........................................................................

 iter      E             dE          RMSdq      gap      omega  full diag
   1    -66.1159385 -0.661159E+02  0.847E-02    4.27       0.0  T
   2    -66.1159416 -0.312138E-05  0.506E-02    4.28       1.0  T
   3    -66.1159363  0.527617E-05  0.137E-02    4.28       1.2  T
   4    -66.1159429 -0.656209E-05  0.238E-03    4.28       6.8  T
   5    -66.1159429 -0.464047E-07  0.113E-03    4.28      14.3  T
   6    -66.1159429 -0.536043E-08  0.518E-04    4.28      31.3  T
   7    -66.1159429 -0.212880E-08  0.149E-04    4.28     109.1  T
     SCC iter.                  ...        0 min,  0.011 sec
     gradient                   ...        0 min,  0.071 sec
 * total energy  :   -65.4714774 Eh     change       -0.2789915E-03 Eh
   gradient norm :     0.0054434 Eh/α   predicted    -0.1915124E-03 ( -31.36%)
   displ. norm   :     0.3054204 α      lambda       -0.2749095E-03
   maximum displ.:     0.2272260 α      in ANC's #3, #6, #8, ...

........................................................................
.............................. CYCLE    8 ..............................
........................................................................

 iter      E             dE          RMSdq      gap      omega  full diag
   1    -66.1172164 -0.661172E+02  0.861E-02    4.29       0.0  T
   2    -66.1172193 -0.287921E-05  0.513E-02    4.29       1.0  T
   3    -66.1172138  0.548789E-05  0.137E-02    4.29       1.2  T
   4    -66.1172206 -0.675876E-05  0.224E-03    4.29       7.2  T
   5    -66.1172206 -0.366519E-07  0.106E-03    4.29      15.3  T
   6    -66.1172206 -0.599871E-08  0.482E-04    4.29      33.7  T
   7    -66.1172206 -0.171040E-08  0.146E-04    4.29     111.1  T
     SCC iter.                  ...        0 min,  0.012 sec
     gradient                   ...        0 min,  0.020 sec
 * total energy  :   -65.4716798 Eh     change       -0.2023745E-03 Eh
   gradient norm :     0.0038250 Eh/α   predicted    -0.1502777E-03 ( -25.74%)
   displ. norm   :     0.2306171 α      lambda       -0.1428627E-03
   maximum displ.:     0.1759631 α      in ANC's #3, #6, #8, ...

........................................................................
.............................. CYCLE    9 ..............................
........................................................................

 iter      E             dE          RMSdq      gap      omega  full diag
   1    -66.1186803 -0.661187E+02  0.645E-02    4.30       0.0  T
   2    -66.1186819 -0.164984E-05  0.383E-02    4.30       1.0  T
   3    -66.1186786  0.335952E-05  0.107E-02    4.30       1.5  T
   4    -66.1186827 -0.410090E-05  0.157E-03    4.30      10.3  T
   5    -66.1186827 -0.191387E-07  0.745E-04    4.30      21.8  T
   6    -66.1186827 -0.384901E-08  0.337E-04    4.30      48.1  T
     SCC iter.                  ...        0 min,  0.061 sec
     gradient                   ...        0 min,  0.020 sec
 * total energy  :   -65.4717845 Eh     change       -0.1046806E-03 Eh
   gradient norm :     0.0029820 Eh/α   predicted    -0.7523112E-04 ( -28.13%)
   displ. norm   :     0.1750263 α      lambda       -0.7656570E-04
   maximum displ.:     0.1337528 α      in ANC's #3, #6, #2, ...

........................................................................
.............................. CYCLE   10 ..............................
........................................................................

 iter      E             dE          RMSdq      gap      omega  full diag
   1    -66.1194837 -0.661195E+02  0.493E-02    4.30       0.0  T
   2    -66.1194847 -0.969227E-06  0.293E-02    4.31       1.0  T
   3    -66.1194828  0.190757E-05  0.805E-03    4.30       2.0  T
   4    -66.1194851 -0.232516E-05  0.119E-03    4.31      13.7  T
   5    -66.1194851 -0.120947E-07  0.553E-04    4.31      29.3  T
   6    -66.1194851 -0.234382E-08  0.246E-04    4.31      66.0  T
     SCC iter.                  ...        0 min,  0.010 sec
     gradient                   ...        0 min,  0.066 sec
 * total energy  :   -65.4718413 Eh     change       -0.5684340E-04 Eh
   gradient norm :     0.0022972 Eh/α   predicted    -0.3945694E-04 ( -30.59%)
   displ. norm   :     0.1365255 α      lambda       -0.4408689E-04
   maximum displ.:     0.1026026 α      in ANC's #3, #6, #2, ...

........................................................................
.............................. CYCLE   11 ..............................
........................................................................

 iter      E             dE          RMSdq      gap      omega  full diag
   1    -66.1197487 -0.661197E+02  0.388E-02    4.31       0.0  T
   2    -66.1197493 -0.509375E-06  0.230E-02    4.31       1.0  T
   3    -66.1197484  0.835448E-06  0.541E-03    4.31       3.0  T
   4    -66.1197495 -0.103210E-05  0.935E-04    4.31      17.4  T
   5    -66.1197495 -0.767650E-08  0.439E-04    4.31      37.0  T
   6    -66.1197495 -0.127832E-08  0.186E-04    4.31      87.3  T
     SCC iter.                  ...        0 min,  0.010 sec
     gradient                   ...        0 min,  0.020 sec
 * total energy  :   -65.4718735 Eh     change       -0.3221401E-04 Eh
   gradient norm :     0.0016279 Eh/α   predicted    -0.2245567E-04 ( -30.29%)
   displ. norm   :     0.1544363 α      lambda       -0.2475327E-04
   maximum displ.:     0.1101353 α      in ANC's #3, #2, #6, ...

........................................................................
.............................. CYCLE   12 ..............................
........................................................................

 iter      E             dE          RMSdq      gap      omega  full diag
   1    -66.1195864 -0.661196E+02  0.439E-02    4.31       0.0  T
   2    -66.1195869 -0.472074E-06  0.261E-02    4.31       1.0  T
   3    -66.1195864  0.438569E-06  0.425E-03    4.31       3.8  T
   4    -66.1195870 -0.596305E-06  0.106E-03    4.31      15.4  T
   5    -66.1195870 -0.935870E-08  0.514E-04    4.31      31.6  T
   6    -66.1195870 -0.121956E-08  0.183E-04    4.31      88.9  T
     SCC iter.                  ...        0 min,  0.010 sec
     gradient                   ...        0 min,  0.020 sec
 * total energy  :   -65.4718963 Eh     change       -0.2281192E-04 Eh
   gradient norm :     0.0013356 Eh/α   predicted    -0.1251010E-04 ( -45.16%)
   displ. norm   :     0.0593021 α      lambda       -0.1038505E-04
   maximum displ.:     0.0387800 α      in ANC's #2, #3, #8, ...

........................................................................
.............................. CYCLE   13 ..............................
........................................................................

 iter      E             dE          RMSdq      gap      omega  full diag
   1    -66.1197312 -0.661197E+02  0.151E-02    4.31       0.0  T
   2    -66.1197313 -0.538152E-07  0.907E-03    4.31       1.8  T
   3    -66.1197312  0.156939E-07  0.102E-03    4.31      15.9  T
   4    -66.1197313 -0.337204E-07  0.396E-04    4.31      40.9  T
   5    -66.1197313 -0.154233E-08  0.206E-04    4.31      78.7  T
     SCC iter.                  ...        0 min,  0.008 sec
     gradient                   ...        0 min,  0.071 sec
 * total energy  :   -65.4719090 Eh     change       -0.1268058E-04 Eh
   gradient norm :     0.0011260 Eh/α   predicted    -0.5201801E-05 ( -58.98%)
   displ. norm   :     0.0922182 α      lambda       -0.1511216E-04
   maximum displ.:     0.0636011 α      in ANC's #2, #8, #3, ...

........................................................................
.............................. CYCLE   14 ..............................
........................................................................

 iter      E             dE          RMSdq      gap      omega  full diag
   1    -66.1192752 -0.661193E+02  0.221E-02    4.31       0.0  T
   2    -66.1192753 -0.157072E-06  0.134E-02    4.31       1.2  T
   3    -66.1192753  0.549452E-07  0.184E-03    4.31       8.8  T
   4    -66.1192754 -0.104873E-06  0.602E-04    4.31      26.9  T
   5    -66.1192754 -0.265771E-08  0.319E-04    4.31      50.8  T
     SCC iter.                  ...        0 min,  0.008 sec
     gradient                   ...        0 min,  0.071 sec
 * total energy  :   -65.4719228 Eh     change       -0.1372686E-04 Eh
   gradient norm :     0.0010722 Eh/α   predicted    -0.7585612E-05 ( -44.74%)
   displ. norm   :     0.0707985 α      lambda       -0.7503388E-05
   maximum displ.:     0.0406101 α      in ANC's #2, #8, #6, ...

........................................................................
.............................. CYCLE   15 ..............................
........................................................................

 iter      E             dE          RMSdq      gap      omega  full diag
   1    -66.1199006 -0.661199E+02  0.158E-02    4.31       0.0  T
   2    -66.1199006 -0.767686E-07  0.954E-03    4.31       1.7  T
   3    -66.1199006  0.476331E-07  0.142E-03    4.31      11.5  T
   4    -66.1199007 -0.716493E-07  0.430E-04    4.31      37.7  T
   5    -66.1199007 -0.222477E-08  0.218E-04    4.31      74.3  T
     SCC iter.                  ...        0 min,  0.008 sec
     gradient                   ...        0 min,  0.020 sec
 * total energy  :   -65.4719272 Eh     change       -0.4424835E-05 Eh
   gradient norm :     0.0012061 Eh/α   predicted    -0.3761284E-05 ( -15.00%)
   displ. norm   :     0.0261785 α      lambda       -0.3546867E-05
   maximum displ.:     0.0194060 α      in ANC's #2, #1, #3, ...

........................................................................
.............................. CYCLE   16 ..............................
........................................................................

 iter      E             dE          RMSdq      gap      omega  full diag
   1    -66.1196711 -0.661197E+02  0.665E-03    4.31       0.0  T
   2    -66.1196711 -0.227003E-07  0.400E-03    4.31       4.1  T
   3    -66.1196711  0.307840E-07  0.116E-03    4.31      14.0  T
   4    -66.1196712 -0.408824E-07  0.220E-04    4.31      73.7  T
   5    -66.1196712 -0.266454E-09  0.110E-04    4.31     147.5  T
     SCC iter.                  ...        0 min,  0.059 sec
     gradient                   ...        0 min,  0.020 sec
 * total energy  :   -65.4719312 Eh     change       -0.4040129E-05 Eh
   gradient norm :     0.0005797 Eh/α   predicted    -0.1777152E-05 ( -56.01%)
   displ. norm   :     0.0374969 α      lambda       -0.3797656E-05
   maximum displ.:     0.0235739 α      in ANC's #2, #1, #6, ...

   *** GEOMETRY OPTIMIZATION CONVERGED AFTER 16 ITERATIONS ***

------------------------------------------------------------------------
 total energy gain   :        -0.0120199 Eh       -7.5426 kcal/mol
 total RMSD          :         0.3742483 a0        0.1980 Å
 total power (kW/mol):        -1.9723967 (step)  -26.2457 (real)
------------------------------------------------------------------------

 ANCopt (total)                0 d,  0 h,  0 min,  1.202 sec
 optimizer setup                ...        0 min,  0.000 sec (  0.006%)
 model hessian                  ...        0 min,  0.016 sec (  1.317%)
 ANC generation                 ...        0 min,  0.001 sec (  0.104%)
 coordinate transformation      ...        0 min,  0.000 sec (  0.008%)
 single point calculation       ...        0 min,  1.181 sec ( 98.210%)
 optimization log               ...        0 min,  0.003 sec (  0.217%)
 hessian update                 ...        0 min,  0.000 sec (  0.015%)
 rational function              ...        0 min,  0.001 sec (  0.080%)

================
 final structure:
================
38
 xtb: 6.7.1 (edcfbbe)
O            1.37422229696100       -0.55602367253191       -3.81124131183037
C            2.30147201749237       -0.87930517365801       -2.80161926500474
C            1.96055227402599       -0.06876651320826       -1.55501913670879
O            0.84790938923492       -0.67367577206230       -0.93102766458883
C            0.38441766766306        0.05592792244766        0.17352510800041
C            1.45903064213850        0.15704122614989        1.26989673114293
C            2.72042621476783        0.77997118959936        0.67229704681580
C            3.14382184673472       -0.00024383088419       -0.57804341333325
O            4.23306311319861        0.61698891559093       -1.20879410976050
O            3.79263623415933        0.76541069032169        1.58405058209483
O            1.02393609638305        0.95881474360168        2.33566267540184
O           -0.69319174313717       -0.58890228762038        0.75966963763058
C           -1.94953274238800       -0.35630193173102        0.25575939303929
C           -2.20887726772201       -0.13458742869259       -1.08787825718491
C           -3.51242897622234        0.08142684490522       -1.50289192569396
C           -4.54951646609508        0.07639830001259       -0.58723771504385
C           -4.28456468349525       -0.13867845516647        0.75556252280875
C           -2.98845036918035       -0.35396955504813        1.19394411626608
C           -2.64987853348419       -0.53924982290071        2.65207312942776
O           -1.76286979719087        0.45599011214055        3.13724879081089
H            1.54755662300165       -1.10990939275755       -4.57962284461416
H            3.32211872651466       -0.61746464585725       -3.10569313571933
H            2.25083727674530       -1.94445205982349       -2.54518411847251
H            1.70393119474691        0.95404714109532       -1.87240871547873
H            0.09993952609543        1.08055612184364       -0.14834723321007
H            1.68272103584091       -0.86515582845256        1.61377435378925
H            2.49126072384907        1.82063423217104        0.38648236345397
H            3.41030174570187       -1.02448389805767       -0.26954265678746
H            4.86598370070319        0.84189079677580       -0.51425316099847
H            3.44766732588636        1.07627134760863        2.42988868696318
H            0.15374059733197        0.63582921038159        2.63512253154642
H           -1.39604863764298       -0.15260741219842       -1.79730773423650
H           -3.71442597106132        0.25119068276693       -2.54962092485241
H           -5.56408924570063        0.24390107753442       -0.91516476288040
H           -5.09257938612852       -0.13511167559817        1.47319227392502
H           -2.12124415917900       -1.48477480330777        2.79571010420550
H           -3.56923242924667       -0.54931878828968        3.25237701913198
H           -2.16061586130306        1.32079239289851        2.98486101994431

 Bond Distances (Angstroems)
 ---------------------------
O1-C2=1.4084         O1-H21=0.9629        C2-O1=1.4084         C2-C3=1.5255         C2-H22=1.0967        C2-H23=1.0968        
C3-C2=1.5255         C3-O4=1.4118         C3-C8=1.5360         C3-H24=1.1012        O4-C3=1.4118         O4-C5=1.4026         
C5-O4=1.4026         C5-C6=1.5385         C5-O12=1.3859        C5-H25=1.1110        C6-C5=1.5385         C6-C7=1.5285         
C6-O11=1.4029        C6-H26=1.1014        C7-C6=1.5285         C7-C8=1.5334         C7-O10=1.4075        C7-H27=1.1033        
C8-C3=1.5360         C8-C7=1.5334         C8-O9=1.4019         C8-H28=1.1024        O9-C8=1.4019         O9-H29=0.9662        
O10-C7=1.4075        O10-H30=0.9649       O11-C6=1.4029        O11-H31=0.9753       O12-C5=1.3859        O12-C13=1.3735       
C13-O12=1.3735       C13-C14=1.3863       C13-C18=1.3998       C14-C13=1.3863       C14-C15=1.3850       C14-H32=1.0790       
C15-C14=1.3850       C15-C16=1.3835       C15-H33=1.0795       C16-C15=1.3835       C16-C17=1.3855       C16-H34=1.0793       
C17-C16=1.3855       C17-C18=1.3851       C17-H35=1.0807       C18-C13=1.3998       C18-C17=1.3851       C18-C19=1.5083       
C19-C18=1.5083       C19-O20=1.4187       C19-H36=1.0928       C19-H37=1.0980       O20-C19=1.4187       O20-H38=0.9640       
H21-O1=0.9629        H22-C2=1.0967        H23-C2=1.0968        H24-C3=1.1012        H25-C5=1.1110        H26-C6=1.1014        
H27-C7=1.1033        H28-C8=1.1024        H29-O9=0.9662        H30-O10=0.9649       H31-O11=0.9753       H32-C14=1.0790       
H33-C15=1.0795       H34-C16=1.0793       H35-C17=1.0807       H36-C19=1.0928       H37-C19=1.0980       H38-O20=0.9640       
 C  H  Rav=1.0940 sigma=0.0104  Rmin=1.0790  Rmax=1.1110    13
 C  C  Rav=1.4580 sigma=0.0709  Rmin=1.3835  Rmax=1.5385    12
 O  H  Rav=0.9667 sigma=0.0045  Rmin=0.9629  Rmax=0.9753     5
 O  C  Rav=1.4015 sigma=0.0130  Rmin=1.3735  Rmax=1.4187     9

 selected bond angles (degree)
 --------------------
H21-O1-C2=108.75               C3-C2-O1=108.46                H22-C2-O1=111.05               H22-C2-C3=107.92               
H23-C2-O1=111.11               H23-C2-C3=108.34               H23-C2-H22=109.86              O4-C3-C2=108.04                
C8-C3-C2=111.80                C8-C3-O4=110.19                H24-C3-C2=108.06               H24-C3-O4=109.98               
H24-C3-C8=108.75               C5-O4-C3=112.68                C6-C5-O4=111.38                O12-C5-O4=110.36               
O12-C5-C6=105.80               H25-C5-O4=109.65               H25-C5-C6=108.95               H25-C5-O12=110.64              
C7-C6-C5=108.94                O11-C6-C5=111.24               O11-C6-C7=108.67               H26-C6-C5=107.66               
H26-C6-C7=109.43               H26-C6-O11=110.87              C8-C7-C6=109.83                O10-C7-C6=111.79               
O10-C7-C8=108.22               H27-C7-C6=108.32               H27-C7-C8=109.03               H27-C7-O10=109.62              
C7-C8-C3=109.19                O9-C8-C3=109.39                O9-C8-C7=110.94                H28-C8-C3=108.83               
H28-C8-C7=108.14               H28-C8-O9=110.31               H29-O9-C8=106.74               H30-O10-C7=106.99              

 selected dihedral angles (degree)
 ---------------------------------
C3-C2-O1-H21=183.90           H22-C2-O1-H21= 65.47          H23-C2-O1-H21=302.88          O4-C3-C2-O1= 77.08            
O4-C3-C2-H22=197.47           O4-C3-C2-H23=316.37           C8-C3-C2-O1=198.48            C8-C3-C2-H22=318.87           
C8-C3-C2-H23= 77.77           H24-C3-C2-O1=318.12           H24-C3-C2-H22= 78.51          H24-C3-C2-H23=197.41          
C5-O4-C3-C2=184.69            C5-O4-C3-C8= 62.29            C5-O4-C3-H24=302.42           C6-C5-O4-C3=298.07            
O12-C5-O4-C3=180.86           H25-C5-O4-C3= 58.73           C7-C6-C5-O4= 56.44            C7-C6-C5-O12=176.38           
C7-C6-C5-H25=295.36           O11-C6-C5-O4=176.20           O11-C6-C5-O12=296.15          O11-C6-C5-H25= 55.13          
H26-C6-C5-O4=297.86           H26-C6-C5-O12= 57.80          H26-C6-C5-H25=176.78          C8-C7-C6-C5=306.70            
C8-C7-C6-O11=185.35           C8-C7-C6-H26= 64.16           O10-C7-C6-C5=186.57           O10-C7-C6-O11= 65.22          
O10-C7-C6-H26=304.03          H27-C7-C6-C5= 65.69           H27-C7-C6-O11=304.34          H27-C7-C6-H26=183.15          
C7-C8-C3-C2=182.12            C7-C8-C3-O4=302.28            C7-C8-C3-H24= 62.89           O9-C8-C3-C2= 60.55            
O9-C8-C3-O4=180.70            O9-C8-C3-H24=301.32           H28-C8-C3-C2=299.96           H28-C8-C3-O4= 60.11           
H28-C8-C3-H24=180.73          C3-C8-C7-C6= 54.43            C3-C8-C7-O10=176.72           C3-C8-C7-H27=295.89           
O9-C8-C7-C6=175.07            O9-C8-C7-O10=297.35           O9-C8-C7-H27= 56.52           H28-C8-C7-C6=296.17           
H28-C8-C7-O10= 58.45          H28-C8-C7-H27=177.62          H29-O9-C8-C3=166.03           H29-O9-C8-C7= 45.52           
H29-O9-C8-H28=285.71          H30-O10-C7-C6=313.82          H30-O10-C7-C8=192.74          H30-O10-C7-H27= 73.94         
           -------------------------------------------------
          |                Final Singlepoint                |
           -------------------------------------------------

          ...................................................
          :                      SETUP                      :
          :.................................................:
          :  # basis functions                  98          :
          :  # atomic orbitals                  98          :
          :  # shells                           58          :
          :  # electrons                       112          :
          :  max. iterations                   250          :
          :  Hamiltonian                  GFN2-xTB          :
          :  restarted?                      false          :
          :  GBSA solvation                  false          :
          :  PC potential                    false          :
          :  electronic temp.          300.0000000     K    :
          :  accuracy                    1.0000000          :
          :  -> integral cutoff          0.2500000E+02      :
          :  -> integral neglect         0.1000000E-07      :
          :  -> SCF convergence          0.1000000E-05 Eh   :
          :  -> wf. convergence          0.1000000E-03 e    :
          :  Broyden damping             0.4000000          :
          :  net charge                          0          :
          :  unpaired electrons                  0          :
          ...................................................

 iter      E             dE          RMSdq      gap      omega  full diag
   1    -66.1196712 -0.661197E+02  0.460E-05    4.31       0.0  T
   2    -66.1196712 -0.140403E-10  0.286E-05    4.31     568.1  T
   3    -66.1196712 -0.356692E-11  0.183E-05    4.31     886.1  T

   *** convergence criteria satisfied after 3 iterations ***

         #    Occupation            Energy/Eh            Energy/eV
      -------------------------------------------------------------
         1        2.0000           -0.7299761             -19.8637
       ...           ...                  ...                  ...
        50        2.0000           -0.4206180             -11.4456
        51        2.0000           -0.4192269             -11.4077
        52        2.0000           -0.4182848             -11.3821
        53        2.0000           -0.4132206             -11.2443
        54        2.0000           -0.4120596             -11.2127
        55        2.0000           -0.4057960             -11.0423
        56        2.0000           -0.3935607             -10.7093 (HOMO)
        57                         -0.2353233              -6.4035 (LUMO)
        58                         -0.2277190              -6.1966
        59                         -0.1058194              -2.8795
        60                         -0.0179790              -0.4892
        61                          0.0010600               0.0288
       ...                                ...                  ...
        98                          0.6540679              17.7981
      -------------------------------------------------------------
                  HL-Gap            0.1582373 Eh            4.3059 eV
             Fermi-level           -0.3144420 Eh           -8.5564 eV

 SCC (total)                   0 d,  0 h,  0 min,  0.077 sec
 SCC setup                      ...        0 min,  0.000 sec (  0.325%)
 Dispersion                     ...        0 min,  0.000 sec (  0.306%)
 classical contributions        ...        0 min,  0.000 sec (  0.147%)
 integral evaluation            ...        0 min,  0.006 sec (  8.074%)
 iterations                     ...        0 min,  0.005 sec (  6.506%)
 molecular gradient             ...        0 min,  0.065 sec ( 84.469%)
 printout                       ...        0 min,  0.000 sec (  0.165%)

         :::::::::::::::::::::::::::::::::::::::::::::::::::::
         ::                     SUMMARY                     ::
         :::::::::::::::::::::::::::::::::::::::::::::::::::::
         :: total energy             -65.471931218566 Eh    ::
         :: gradient norm              0.000580130703 Eh/a0 ::
         :: HOMO-LUMO gap              4.305856824899 eV    ::
         ::.................................................::
         :: SCC energy               -66.119433848775 Eh    ::
         :: -> isotropic ES            0.152254078396 Eh    ::
         :: -> anisotropic ES         -0.005783821804 Eh    ::
         :: -> anisotropic XC         -0.002834672475 Eh    ::
         :: -> dispersion             -0.036927813757 Eh    ::
         :: repulsion energy           0.647502630208 Eh    ::
         :: add. restraining           0.000000000000 Eh    ::
         :: total charge              -0.000000000000 e     ::
         :::::::::::::::::::::::::::::::::::::::::::::::::::::

           -------------------------------------------------
          |                Property Printout                |
           -------------------------------------------------

    * Orbital Energies and Occupations

         #    Occupation            Energy/Eh            Energy/eV
      -------------------------------------------------------------
         1        2.0000           -0.7299761             -19.8637
       ...           ...                  ...                  ...
        44        2.0000           -0.4660463             -12.6818
        45        2.0000           -0.4594623             -12.5026
        46        2.0000           -0.4474298             -12.1752
        47        2.0000           -0.4429956             -12.0545
        48        2.0000           -0.4392044             -11.9514
        49        2.0000           -0.4388188             -11.9409
        50        2.0000           -0.4206180             -11.4456
        51        2.0000           -0.4192269             -11.4077
        52        2.0000           -0.4182848             -11.3821
        53        2.0000           -0.4132206             -11.2443
        54        2.0000           -0.4120596             -11.2127
        55        2.0000           -0.4057960             -11.0423
        56        2.0000           -0.3935607             -10.7093 (HOMO)
        57                         -0.2353233              -6.4035 (LUMO)
        58                         -0.2277190              -6.1966
        59                         -0.1058194              -2.8795
        60                         -0.0179790              -0.4892
        61                          0.0010600               0.0288
        62                          0.0135235               0.3680
        63                          0.0347133               0.9446
        64                          0.0427873               1.1643
        65                          0.0608098               1.6547
        66                          0.0698077               1.8996
        67                          0.0787043               2.1417
       ...                                ...                  ...
        98                          0.6540679              17.7981
      -------------------------------------------------------------
                  HL-Gap            0.1582373 Eh            4.3059 eV
             Fermi-level           -0.3144420 Eh           -8.5564 eV

     #   Z          covCN         q      C6AA      α(0)
     1   8 O        1.656    -0.431    21.463     6.254
     2   6 C        3.676     0.078    19.501     6.327
     3   6 C        3.761     0.105    18.897     6.197
     4   8 O        1.702    -0.325    19.440     5.953
     5   6 C        3.660     0.244    17.073     5.929
     6   6 C        3.728     0.088    19.215     6.258
     7   6 C        3.731     0.098    19.048     6.230
     8   6 C        3.729     0.093    19.137     6.245
     9   8 O        1.656    -0.441    21.658     6.282
    10   8 O        1.656    -0.446    21.770     6.299
    11   8 O        1.655    -0.459    22.038     6.337
    12   8 O        1.708    -0.275    18.560     5.817
    13   6 C        2.876     0.142    24.900     8.180
    14   6 C        2.915    -0.058    29.442     8.898
    15   6 C        2.922    -0.030    28.738     8.791
    16   6 C        2.917    -0.039    28.969     8.826
    17   6 C        2.923    -0.040    28.994     8.830
    18   6 C        2.966    -0.027    28.679     8.784
    19   6 C        3.679     0.078    19.489     6.323
    20   8 O        1.654    -0.443    21.701     6.289
    21   1 H        0.805     0.296     0.732     1.344
    22   1 H        0.924     0.052     2.297     2.370
    23   1 H        0.924     0.042     2.426     2.436
    24   1 H        0.923     0.047     2.363     2.404
    25   1 H        0.921     0.004     2.993     2.706
    26   1 H        0.923     0.039     2.458     2.452
    27   1 H        0.923     0.031     2.570     2.507
    28   1 H        0.923     0.034     2.526     2.485
    29   1 H        0.805     0.321     0.661     1.277
    30   1 H        0.805     0.316     0.674     1.289
    31   1 H        0.804     0.330     0.636     1.253
    32   1 H        0.926     0.065     2.139     2.287
    33   1 H        0.926     0.045     2.383     2.414
    34   1 H        0.926     0.041     2.437     2.441
    35   1 H        0.926     0.039     2.459     2.452
    36   1 H        0.924     0.065     2.144     2.290
    37   1 H        0.923     0.029     2.600     2.522
    38   1 H        0.805     0.292     0.746     1.356

 Mol. C6AA /au·bohr⁶  :      14032.310768
 Mol. C8AA /au·bohr⁸  :     316427.560424
 Mol. α(0) /au        :        177.334974


Wiberg/Mayer (AO) data.
largest (>0.10) Wiberg bond orders for each atom

 ---------------------------------------------------------------------------
     #   Z sym  total        # sym  WBO       # sym  WBO       # sym  WBO
 ---------------------------------------------------------------------------
     1   8 O    1.954 --     2 C    1.003    21 H    0.899
     2   6 C    3.960 --     1 O    1.003     3 C    0.988    23 H    0.969
                            22 H    0.965
     3   6 C    3.945 --     2 C    0.988     8 C    0.967     4 O    0.967
                            24 H    0.954
     4   8 O    2.085 --     3 C    0.967     5 C    0.966
     5   6 C    3.930 --    12 O    0.988     4 O    0.966     6 C    0.947
                            25 H    0.944
     6   6 C    3.964 --    11 O    1.008     7 C    0.972    26 H    0.955
                             5 C    0.947
     7   6 C    3.962 --    10 O    0.997     6 C    0.972     8 C    0.971
                            27 H    0.955
     8   6 C    3.964 --     9 O    1.005     7 C    0.971     3 C    0.967
                            28 H    0.956
     9   8 O    1.957 --     8 C    1.005    29 H    0.878
    10   8 O    1.955 --     7 C    0.997    30 H    0.881
    11   8 O    1.947 --     6 C    1.008    31 H    0.849
    12   8 O    2.215 --    13 C    1.017     5 C    0.988
    13   6 C    3.925 --    14 C    1.395    18 C    1.341    12 O    1.017
    14   6 C    3.988 --    15 C    1.436    13 C    1.395    32 H    0.963
                            17 C    0.105
    15   6 C    3.991 --    16 C    1.443    14 C    1.436    33 H    0.970
                            18 C    0.107
    16   6 C    3.990 --    15 C    1.443    17 C    1.429    34 H    0.971
    17   6 C    3.990 --    18 C    1.434    16 C    1.429    35 H    0.968
                            14 C    0.105
    18   6 C    3.984 --    17 C    1.434    13 C    1.341    19 C    0.999
                            15 C    0.107
    19   6 C    3.951 --    18 C    0.999    20 O    0.982    37 H    0.970
                            36 H    0.962
    20   8 O    1.978 --    19 C    0.982    38 H    0.901
    21   1 H    0.912 --     1 O    0.899
    22   1 H    0.997 --     2 C    0.965
    23   1 H    0.998 --     2 C    0.969
    24   1 H    0.998 --     3 C    0.954
    25   1 H    1.000 --     5 C    0.944
    26   1 H    0.998 --     6 C    0.955
    27   1 H    0.999 --     7 C    0.955
    28   1 H    0.999 --     8 C    0.956
    29   1 H    0.897 --     9 O    0.878
    30   1 H    0.899 --    10 O    0.881
    31   1 H    0.890 --    11 O    0.849
    32   1 H    0.995 --    14 C    0.963
    33   1 H    0.997 --    15 C    0.970
    34   1 H    0.998 --    16 C    0.971
    35   1 H    0.998 --    17 C    0.968
    36   1 H    0.996 --    19 C    0.962
    37   1 H    0.999 --    19 C    0.970
    38   1 H    0.915 --    20 O    0.901
 ---------------------------------------------------------------------------

Topologies differ in total number of bonds
Writing topology from bond orders to xtbtopo.mol

molecular dipole:
                 x           y           z       tot (Debye)
 q only:       -0.701       0.023      -0.075
   full:       -0.903       0.044       0.036       2.301
molecular quadrupole (traceless):
                xx          xy          yy          xz          yz          zz
 q only:        5.060      -4.181      -4.273      -4.680       5.581      -0.787
  q+dip:        3.300      -8.559      -2.228      -6.203       5.834      -1.072
   full:        3.192      -7.275      -1.624      -5.930       7.242      -1.568

           -------------------------------------------------
          |                Geometry Summary                 |
           -------------------------------------------------

      molecular mass/u    :      286.2783346
   center of mass at/Å    :        0.0706413       0.0005009       0.0538940
  moments of inertia/u·Å² :        0.9758586E+03   0.2211097E+04   0.3063134E+04
rotational constants/cm⁻¹ :        0.1727467E-01   0.7624104E-02   0.5503393E-02

 * 38 selected distances

     #   Z          #   Z                                           value/Å
     1   8 O        2   6 C                                       1.4084176
     2   6 C        3   6 C                                       1.5255201
     3   6 C        4   8 O                                       1.4118269
     4   8 O        5   6 C                                       1.4025631
     5   6 C        6   6 C                                       1.5385214 (max)
     6   6 C        7   6 C                                       1.5284915
     3   6 C        8   6 C                                       1.5360027
     7   6 C        8   6 C                                       1.5334116
     8   6 C        9   8 O                                       1.4018807
     7   6 C       10   8 O                                       1.4075302
     6   6 C       11   8 O                                       1.4028562
     5   6 C       12   8 O                                       1.3858621
    12   8 O       13   6 C                                       1.3734706
    13   6 C       14   6 C                                       1.3862826
    14   6 C       15   6 C                                       1.3849715
    15   6 C       16   6 C                                       1.3834734
    16   6 C       17   6 C                                       1.3854856
    13   6 C       18   6 C                                       1.3998379
    17   6 C       18   6 C                                       1.3850781
    19   6 C       20   8 O                                       1.4186905
     1   8 O       21   1 H                                       0.9629354 (min)
     2   6 C       22   1 H                                       1.0966956
     2   6 C       23   1 H                                       1.0967502
     3   6 C       24   1 H                                       1.1012441
     5   6 C       25   1 H                                       1.1110323
     6   6 C       26   1 H                                       1.1014428
     7   6 C       27   1 H                                       1.1032618
     8   6 C       28   1 H                                       1.1023848
     9   8 O       29   1 H                                       0.9662073
    10   8 O       30   1 H                                       0.9649250
    11   8 O       31   1 H                                       0.9753134
    14   6 C       32   1 H                                       1.0790299
    15   6 C       33   1 H                                       1.0794741
    16   6 C       34   1 H                                       1.0793292
    17   6 C       35   1 H                                       1.0806911
    19   6 C       36   1 H                                       1.0927505
    19   6 C       37   1 H                                       1.0980337
    20   8 O       38   1 H                                       0.9640058

 * 4 distinct bonds (by element types)

   Z      Z             #   av. dist./Å        max./Å        min./Å
   1 H    6 C          13     1.0940092     1.1110323     1.0790299
   6 C    6 C          11     1.4533706     1.5385214     1.3834734
   1 H    8 O           5     0.9666774     0.9753134     0.9629354
   6 C    8 O           9     1.4014553     1.4186905     1.3734706


optimized geometry written to: xtbopt.xyz


           -------------------------------------------------
          | TOTAL ENERGY              -65.471931218566 Eh   |
          | GRADIENT NORM               0.000580130703 Eh/α |
          | HOMO-LUMO GAP               4.305856824899 eV   |
           -------------------------------------------------

------------------------------------------------------------------------
 * finished run on 2025/05/15 at 16:04:44.195     
------------------------------------------------------------------------
 total:
 * wall-time:     0 d,  0 h,  0 min,  1.373 sec
 *  cpu-time:     0 d,  0 h,  0 min,  0.697 sec
 * ratio c/w:     0.508 speedup
 SCF:
 * wall-time:     0 d,  0 h,  0 min,  0.078 sec
 *  cpu-time:     0 d,  0 h,  0 min,  0.045 sec
 * ratio c/w:     0.585 speedup
 ANC optimizer:
 * wall-time:     0 d,  0 h,  0 min,  1.283 sec
 *  cpu-time:     0 d,  0 h,  0 min,  0.641 sec
 * ratio c/w:     0.500 speedup



----- Single-point -----
      -----------------------------------------------------------      
     |                   =====================                   |     
     |                           x T B                           |     
     |                   =====================                   |     
     |                         S. Grimme                         |     
     |          Mulliken Center for Theoretical Chemistry        |     
     |                    University of Bonn                     |     
      -----------------------------------------------------------      

   * xtb version 6.7.1 (edcfbbe) compiled by 'conda@3ef47c1a292c' on 2024-11-25

   xtb is free software: you can redistribute it and/or modify it under
   the terms of the GNU Lesser General Public License as published by
   the Free Software Foundation, either version 3 of the License, or
   (at your option) any later version.
   
   xtb is distributed in the hope that it will be useful,
   but WITHOUT ANY WARRANTY; without even the implied warranty of
   MERCHANTABILITY or FITNESS FOR A PARTICULAR PURPOSE.  See the
   GNU Lesser General Public License for more details.
   
   Cite this work as:
   * C. Bannwarth, E. Caldeweyher, S. Ehlert, A. Hansen, P. Pracht,
     J. Seibert, S. Spicher, S. Grimme, WIREs Comput. Mol. Sci., 2020, 11,
     e01493. DOI: 10.1002/wcms.1493
   
   for GFN2-xTB:
   * C. Bannwarth, S. Ehlert and S. Grimme., J. Chem. Theory Comput., 2019,
     15, 1652-1671. DOI: 10.1021/acs.jctc.8b01176
   for GFN1-xTB:
   * S. Grimme, C. Bannwarth, P. Shushkov, J. Chem. Theory Comput., 2017,
     13, 1989-2009. DOI: 10.1021/acs.jctc.7b00118
   for GFN0-xTB:
   * P. Pracht, E. Caldeweyher, S. Ehlert, S. Grimme, ChemRxiv, 2019, preprint.
     DOI: 10.26434/chemrxiv.8326202.v1
   for GFN-FF:
   * S. Spicher and S. Grimme, Angew. Chem. Int. Ed., 2020, 59, 15665-15673.
     DOI: 10.1002/anie.202004239
   
   for ALPB and GBSA implicit solvation:
   * S. Ehlert, M. Stahn, S. Spicher, S. Grimme, J. Chem. Theory Comput.,
     2021, 17, 4250-4261. DOI: 10.1021/acs.jctc.1c00471
   
   for ddCOSMO and CPCM-X implicit solvation:
   * M. Stahn, S. Ehlert, S. Grimme, J. Phys. Chem. A,
     2023, XX, XXXX-XXXX. DOI: 10.1021/acs.jpca.3c04382
   
   for DFT-D4:
   * E. Caldeweyher, C. Bannwarth and S. Grimme, J. Chem. Phys., 2017,
     147, 034112. DOI: 10.1063/1.4993215
   * E. Caldeweyher, S. Ehlert, A. Hansen, H. Neugebauer, S. Spicher,
     C. Bannwarth and S. Grimme, J. Chem. Phys., 2019, 150, 154122.
     DOI: 10.1063/1.5090222
   * E. Caldeweyher, J.-M. Mewes, S. Ehlert and S. Grimme, Phys. Chem. Chem. Phys.
     2020, 22, 8499-8512. DOI: 10.1039/D0CP00502A
   
   for sTDA-xTB:
   * S. Grimme and C. Bannwarth, J. Chem. Phys., 2016, 145, 054103.
     DOI: 10.1063/1.4959605
   
   in the mass-spec context:
   * V. Asgeirsson, C. Bauer and S. Grimme, Chem. Sci., 2017, 8, 4879.
     DOI: 10.1039/c7sc00601b
   * J. Koopman and S. Grimme, ACS Omega 2019, 4, 12, 15120-15133.
     DOI: 10.1021/acsomega.9b02011
   
   for metadynamics refer to:
   * S. Grimme, J. Chem. Theory Comput., 2019, 155, 2847-2862
     DOI: 10.1021/acs.jctc.9b00143
   
   for SPH calculations refer to:
   * S. Spicher and S. Grimme, J. Chem. Theory Comput., 2021, 17, 1701-1714
     DOI: 10.1021/acs.jctc.0c01306
   
   for ONIOM refer to:
   * C. Plett, A. Katbashev, S. Ehlert, S. Grimme, M. Bursch,
     Phys. Chem. Chem. Phys., 2023, 25, 17860-17868. DOI: 10.1039/D3CP02178E
   
   for DIPRO refer to:
   * J. Kohn, N. Gildemeister, S. Grimme, D. Fazzi, A. Hansen,
     J. Chem. Phys., 2023, just accepted.
   
   for PTB refer to:
   * S. Grimme, M. Mueller, A. Hansen, J. Chem. Phys., 2023, 158, 124111.
     DOI: 10.1063/5.0137838
   
   with help from (in alphabetical order)
   P. Atkinson, C. Bannwarth, F. Bohle, G. Brandenburg, E. Caldeweyher
   M. Checinski, S. Dohm, S. Ehlert, S. Ehrlich, I. Gerasimov, C. Hölzer
   A. Katbashev, J. Kohn, J. Koopman, C. Lavigne, S. Lehtola, F. März, M. Müller,
   F. Musil, H. Neugebauer, J. Pisarek, C. Plett, P. Pracht, F. Pultar,
   J. Seibert, P. Shushkov, S. Spicher, M. Stahn, M. Steiner, T. Strunk,
   J. Stückrath, T. Rose, and J. Unsleber
   
 * started run on 2025/05/15 at 16:04:44.207     
   ID    Z sym.   atoms
    1    8 O      1, 4, 9-12, 20
    2    6 C      2, 3, 5-8, 13-19
    3    1 H      21-38

           -------------------------------------------------
          |                Calculation Setup                |
           -------------------------------------------------

          program call               : xtb /rds/general/user/hgt20/home/callum/QDESCP/Salicin_rdkit_conf_10/Salicin_rdkit_conf_10.xyz --acc 1 --gfn 2 --chrg 0 --uhf 0 --etemp 300 --input /rds/general/user/hgt20/home/callum/QDESCP/Salicin_rdkit_conf_10/Salicin_rdkit_conf_10_xtb.inp -P 1
          hostname                   : login-c
          coordinate file            : /rds/general/user/hgt20/home/callum/QDESCP/Salicin_rdkit_conf_10/Salicin_rdkit_conf_10.xyz
          omp threads                :                     1


           -------------------------------------------------
          |                 G F N 2 - x T B                 |
           -------------------------------------------------

        Reference                      10.1021/acs.jctc.8b01176
      * Hamiltonian:
        H0-scaling (s, p, d)           1.850000    2.230000    2.230000
        zeta-weighting                 0.500000
      * Dispersion:
        s8                             2.700000
        a1                             0.520000
        a2                             5.000000
        s9                             5.000000
      * Repulsion:
        kExp                           1.500000    1.000000
        rExp                           1.000000
      * Coulomb:
        alpha                          2.000000
        third order                    shell-resolved
        anisotropic                    true
        a3                             3.000000
        a5                             4.000000
        cn-shift                       1.200000
        cn-exp                         4.000000
        max-rad                        5.000000

q/qsh data taken from xtbrestart
CAMM data taken from xtbrestart

          ...................................................
          :                      SETUP                      :
          :.................................................:
          :  # basis functions                  98          :
          :  # atomic orbitals                  98          :
          :  # shells                           58          :
          :  # electrons                       112          :
          :  max. iterations                   250          :
          :  Hamiltonian                  GFN2-xTB          :
          :  restarted?                       true          :
          :  GBSA solvation                  false          :
          :  PC potential                    false          :
          :  electronic temp.          300.0000000     K    :
          :  accuracy                    1.0000000          :
          :  -> integral cutoff          0.2500000E+02      :
          :  -> integral neglect         0.1000000E-07      :
          :  -> SCF convergence          0.1000000E-05 Eh   :
          :  -> wf. convergence          0.1000000E-03 e    :
          :  Broyden damping             0.4000000          :
          :  net charge                          0          :
          :  unpaired electrons                  0          :
          ...................................................

 iter      E             dE          RMSdq      gap      omega  full diag
   1    -66.1196712 -0.661197E+02  0.296E-06    4.31       0.0  T
   2    -66.1196712  0.142109E-13  0.185E-06    4.31    8770.5  T
   3    -66.1196712 -0.184741E-12  0.109E-06    4.31   14918.3  T

   *** convergence criteria satisfied after 3 iterations ***

         #    Occupation            Energy/Eh            Energy/eV
      -------------------------------------------------------------
         1        2.0000           -0.7299761             -19.8637
       ...           ...                  ...                  ...
        50        2.0000           -0.4206180             -11.4456
        51        2.0000           -0.4192269             -11.4077
        52        2.0000           -0.4182848             -11.3821
        53        2.0000           -0.4132206             -11.2443
        54        2.0000           -0.4120596             -11.2127
        55        2.0000           -0.4057960             -11.0423
        56        2.0000           -0.3935607             -10.7093 (HOMO)
        57                         -0.2353233              -6.4035 (LUMO)
        58                         -0.2277191              -6.1966
        59                         -0.1058194              -2.8795
        60                         -0.0179790              -0.4892
        61                          0.0010600               0.0288
       ...                                ...                  ...
        98                          0.6540679              17.7981
      -------------------------------------------------------------
                  HL-Gap            0.1582374 Eh            4.3059 eV
             Fermi-level           -0.3144420 Eh           -8.5564 eV

 SCC (total)                   0 d,  0 h,  0 min,  0.081 sec
 SCC setup                      ...        0 min,  0.000 sec (  0.398%)
 Dispersion                     ...        0 min,  0.000 sec (  0.432%)
 classical contributions        ...        0 min,  0.000 sec (  0.151%)
 integral evaluation            ...        0 min,  0.006 sec (  8.024%)
 iterations                     ...        0 min,  0.007 sec (  8.109%)
 molecular gradient             ...        0 min,  0.067 sec ( 82.654%)
 printout                       ...        0 min,  0.000 sec (  0.224%)

         :::::::::::::::::::::::::::::::::::::::::::::::::::::
         ::                     SUMMARY                     ::
         :::::::::::::::::::::::::::::::::::::::::::::::::::::
         :: total energy             -65.471931218569 Eh    ::
         :: gradient norm              0.000580260018 Eh/a0 ::
         :: HOMO-LUMO gap              4.305859223091 eV    ::
         ::.................................................::
         :: SCC energy               -66.119433848777 Eh    ::
         :: -> isotropic ES            0.152254086194 Eh    ::
         :: -> anisotropic ES         -0.005783808426 Eh    ::
         :: -> anisotropic XC         -0.002834668966 Eh    ::
         :: -> dispersion             -0.036927812711 Eh    ::
         :: repulsion energy           0.647502630208 Eh    ::
         :: add. restraining           0.000000000000 Eh    ::
         :: total charge              -0.000000000000 e     ::
         :::::::::::::::::::::::::::::::::::::::::::::::::::::

           -------------------------------------------------
          |                Property Printout                |
           -------------------------------------------------

    * Orbital Energies and Occupations

         #    Occupation            Energy/Eh            Energy/eV
      -------------------------------------------------------------
         1        2.0000           -0.7299761             -19.8637
       ...           ...                  ...                  ...
        44        2.0000           -0.4660463             -12.6818
        45        2.0000           -0.4594623             -12.5026
        46        2.0000           -0.4474298             -12.1752
        47        2.0000           -0.4429956             -12.0545
        48        2.0000           -0.4392044             -11.9514
        49        2.0000           -0.4388188             -11.9409
        50        2.0000           -0.4206180             -11.4456
        51        2.0000           -0.4192269             -11.4077
        52        2.0000           -0.4182848             -11.3821
        53        2.0000           -0.4132206             -11.2443
        54        2.0000           -0.4120596             -11.2127
        55        2.0000           -0.4057960             -11.0423
        56        2.0000           -0.3935607             -10.7093 (HOMO)
        57                         -0.2353233              -6.4035 (LUMO)
        58                         -0.2277191              -6.1966
        59                         -0.1058194              -2.8795
        60                         -0.0179790              -0.4892
        61                          0.0010600               0.0288
        62                          0.0135236               0.3680
        63                          0.0347133               0.9446
        64                          0.0427873               1.1643
        65                          0.0608098               1.6547
        66                          0.0698077               1.8996
        67                          0.0787044               2.1417
       ...                                ...                  ...
        98                          0.6540679              17.7981
      -------------------------------------------------------------
                  HL-Gap            0.1582374 Eh            4.3059 eV
             Fermi-level           -0.3144420 Eh           -8.5564 eV

     #   Z          covCN         q      C6AA      α(0)
     1   8 O        1.656    -0.431    21.463     6.254
     2   6 C        3.676     0.078    19.501     6.327
     3   6 C        3.761     0.105    18.897     6.197
     4   8 O        1.702    -0.325    19.440     5.953
     5   6 C        3.660     0.244    17.073     5.929
     6   6 C        3.728     0.088    19.215     6.258
     7   6 C        3.731     0.098    19.048     6.230
     8   6 C        3.729     0.093    19.137     6.245
     9   8 O        1.656    -0.441    21.658     6.282
    10   8 O        1.656    -0.446    21.770     6.299
    11   8 O        1.655    -0.459    22.038     6.337
    12   8 O        1.708    -0.275    18.560     5.817
    13   6 C        2.876     0.142    24.900     8.180
    14   6 C        2.915    -0.058    29.442     8.898
    15   6 C        2.922    -0.030    28.738     8.791
    16   6 C        2.917    -0.039    28.969     8.826
    17   6 C        2.923    -0.040    28.994     8.830
    18   6 C        2.966    -0.027    28.679     8.784
    19   6 C        3.679     0.078    19.489     6.323
    20   8 O        1.654    -0.443    21.701     6.289
    21   1 H        0.805     0.296     0.732     1.344
    22   1 H        0.924     0.052     2.297     2.370
    23   1 H        0.924     0.042     2.426     2.436
    24   1 H        0.923     0.047     2.363     2.404
    25   1 H        0.921     0.004     2.993     2.706
    26   1 H        0.923     0.039     2.458     2.452
    27   1 H        0.923     0.031     2.570     2.507
    28   1 H        0.923     0.034     2.526     2.485
    29   1 H        0.805     0.321     0.661     1.277
    30   1 H        0.805     0.316     0.674     1.289
    31   1 H        0.804     0.330     0.636     1.253
    32   1 H        0.926     0.065     2.139     2.287
    33   1 H        0.926     0.045     2.383     2.414
    34   1 H        0.926     0.041     2.437     2.441
    35   1 H        0.926     0.039     2.459     2.452
    36   1 H        0.924     0.065     2.144     2.290
    37   1 H        0.923     0.029     2.600     2.522
    38   1 H        0.805     0.292     0.746     1.356

 Mol. C6AA /au·bohr⁶  :      14032.310650
 Mol. C8AA /au·bohr⁸  :     316427.559288
 Mol. α(0) /au        :        177.334973


Wiberg/Mayer (AO) data.
largest (>0.10) Wiberg bond orders for each atom

 ---------------------------------------------------------------------------
     #   Z sym  total        # sym  WBO       # sym  WBO       # sym  WBO
 ---------------------------------------------------------------------------
     1   8 O    1.954 --     2 C    1.003    21 H    0.899
     2   6 C    3.960 --     1 O    1.003     3 C    0.988    23 H    0.969
                            22 H    0.965
     3   6 C    3.945 --     2 C    0.988     8 C    0.967     4 O    0.967
                            24 H    0.954
     4   8 O    2.085 --     3 C    0.967     5 C    0.966
     5   6 C    3.930 --    12 O    0.988     4 O    0.966     6 C    0.947
                            25 H    0.944
     6   6 C    3.964 --    11 O    1.008     7 C    0.972    26 H    0.955
                             5 C    0.947
     7   6 C    3.962 --    10 O    0.997     6 C    0.972     8 C    0.971
                            27 H    0.955
     8   6 C    3.964 --     9 O    1.005     7 C    0.971     3 C    0.967
                            28 H    0.956
     9   8 O    1.957 --     8 C    1.005    29 H    0.878
    10   8 O    1.955 --     7 C    0.997    30 H    0.881
    11   8 O    1.947 --     6 C    1.008    31 H    0.849
    12   8 O    2.215 --    13 C    1.017     5 C    0.988
    13   6 C    3.925 --    14 C    1.395    18 C    1.341    12 O    1.017
    14   6 C    3.988 --    15 C    1.436    13 C    1.395    32 H    0.963
                            17 C    0.105
    15   6 C    3.991 --    16 C    1.443    14 C    1.436    33 H    0.970
                            18 C    0.107
    16   6 C    3.990 --    15 C    1.443    17 C    1.429    34 H    0.971
    17   6 C    3.990 --    18 C    1.434    16 C    1.429    35 H    0.968
                            14 C    0.105
    18   6 C    3.984 --    17 C    1.434    13 C    1.341    19 C    0.999
                            15 C    0.107
    19   6 C    3.951 --    18 C    0.999    20 O    0.982    37 H    0.970
                            36 H    0.962
    20   8 O    1.978 --    19 C    0.982    38 H    0.901
    21   1 H    0.912 --     1 O    0.899
    22   1 H    0.997 --     2 C    0.965
    23   1 H    0.998 --     2 C    0.969
    24   1 H    0.998 --     3 C    0.954
    25   1 H    1.000 --     5 C    0.944
    26   1 H    0.998 --     6 C    0.955
    27   1 H    0.999 --     7 C    0.955
    28   1 H    0.999 --     8 C    0.956
    29   1 H    0.897 --     9 O    0.878
    30   1 H    0.899 --    10 O    0.881
    31   1 H    0.890 --    11 O    0.849
    32   1 H    0.995 --    14 C    0.963
    33   1 H    0.997 --    15 C    0.970
    34   1 H    0.998 --    16 C    0.971
    35   1 H    0.998 --    17 C    0.968
    36   1 H    0.996 --    19 C    0.962
    37   1 H    0.999 --    19 C    0.970
    38   1 H    0.915 --    20 O    0.901
 ---------------------------------------------------------------------------

Topologies differ in total number of bonds
Writing topology from bond orders to xtbtopo.mol

molecular dipole:
                 x           y           z       tot (Debye)
 q only:       -0.701       0.023      -0.075
   full:       -0.903       0.044       0.036       2.301
molecular quadrupole (traceless):
                xx          xy          yy          xz          yz          zz
 q only:        5.060      -4.181      -4.273      -4.680       5.581      -0.787
  q+dip:        3.300      -8.559      -2.228      -6.203       5.834      -1.072
   full:        3.192      -7.275      -1.624      -5.930       7.242      -1.568


           -------------------------------------------------
          | TOTAL ENERGY              -65.471931218569 Eh   |
          | GRADIENT NORM               0.000580260018 Eh/α |
          | HOMO-LUMO GAP               4.305859223091 eV   |
           -------------------------------------------------

------------------------------------------------------------------------
 * finished run on 2025/05/15 at 16:04:44.301     
------------------------------------------------------------------------
 total:
 * wall-time:     0 d,  0 h,  0 min,  0.094 sec
 *  cpu-time:     0 d,  0 h,  0 min,  0.044 sec
 * ratio c/w:     0.470 speedup
 SCF:
 * wall-time:     0 d,  0 h,  0 min,  0.081 sec
 *  cpu-time:     0 d,  0 h,  0 min,  0.033 sec
 * ratio c/w:     0.404 speedup



----- FOD -----
      -----------------------------------------------------------      
     |                   =====================                   |     
     |                           x T B                           |     
     |                   =====================                   |     
     |                         S. Grimme                         |     
     |          Mulliken Center for Theoretical Chemistry        |     
     |                    University of Bonn                     |     
      -----------------------------------------------------------      

   * xtb version 6.7.1 (edcfbbe) compiled by 'conda@3ef47c1a292c' on 2024-11-25

   xtb is free software: you can redistribute it and/or modify it under
   the terms of the GNU Lesser General Public License as published by
   the Free Software Foundation, either version 3 of the License, or
   (at your option) any later version.
   
[...]
   
   Cite this work as:
   * C. Bannwarth, E. Caldeweyher, S. Ehlert, A. Hansen, P. Pracht,
     J. Seibert, S. Spicher, S. Grimme, WIREs Comput. Mol. Sci., 2020, 11,
     e01493. DOI: 10.1002/wcms.1493
   
   for GFN2-xTB:
   * C. Bannwarth, S. Ehlert and S. Grimme., J. Chem. Theory Comput., 2019,
     15, 1652-1671. DOI: 10.1021/acs.jctc.8b01176
   for GFN1-xTB:
   * S. Grimme, C. Bannwarth, P. Shushkov, J. Chem. Theory Comput., 2017,
     13, 1989-2009. DOI: 10.1021/acs.jctc.7b00118
   for GFN0-xTB:
   * P. Pracht, E. Caldeweyher, S. Ehlert, S. Grimme, ChemRxiv, 2019, preprint.
     DOI: 10.26434/chemrxiv.8326202.v1
   for GFN-FF:
   * S. Spicher and S. Grimme, Angew. Chem. Int. Ed., 2020, 59, 15665-15673.
     DOI: 10.1002/anie.202004239
   
   for ALPB and GBSA implicit solvation:
   * S. Ehlert, M. Stahn, S. Spicher, S. Grimme, J. Chem. Theory Comput.,
     2021, 17, 4250-4261. DOI: 10.1021/acs.jctc.1c00471
   
   for ddCOSMO and CPCM-X implicit solvation:
   * M. Stahn, S. Ehlert, S. Grimme, J. Phys. Chem. A,
     2023, XX, XXXX-XXXX. DOI: 10.1021/acs.jpca.3c04382
   
   for DFT-D4:
   * E. Caldeweyher, C. Bannwarth and S. Grimme, J. Chem. Phys., 2017,
     147, 034112. DOI: 10.1063/1.4993215
   * E. Caldeweyher, S. Ehlert, A. Hansen, H. Neugebauer, S. Spicher,
     C. Bannwarth and S. Grimme, J. Chem. Phys., 2019, 150, 154122.
     DOI: 10.1063/1.5090222
   * E. Caldeweyher, J.-M. Mewes, S. Ehlert and S. Grimme, Phys. Chem. Chem. Phys.
     2020, 22, 8499-8512. DOI: 10.1039/D0CP00502A
   
   for sTDA-xTB:
   * S. Grimme and C. Bannwarth, J. Chem. Phys., 2016, 145, 054103.
     DOI: 10.1063/1.4959605
   
   in the mass-spec context:
   * V. Asgeirsson, C. Bauer and S. Grimme, Chem. Sci., 2017, 8, 4879.
     DOI: 10.1039/c7sc00601b
   * J. Koopman and S. Grimme, ACS Omega 2019, 4, 12, 15120-15133.
     DOI: 10.1021/acsomega.9b02011
   
   for metadynamics refer to:
   * S. Grimme, J. Chem. Theory Comput., 2019, 155, 2847-2862
     DOI: 10.1021/acs.jctc.9b00143
   
   for SPH calculations refer to:
   * S. Spicher and S. Grimme, J. Chem. Theory Comput., 2021, 17, 1701-1714
     DOI: 10.1021/acs.jctc.0c01306
   
   for ONIOM refer to:
   * C. Plett, A. Katbashev, S. Ehlert, S. Grimme, M. Bursch,
     Phys. Chem. Chem. Phys., 2023, 25, 17860-17868. DOI: 10.1039/D3CP02178E
   
   for DIPRO refer to:
   * J. Kohn, N. Gildemeister, S. Grimme, D. Fazzi, A. Hansen,
     J. Chem. Phys., 2023, just accepted.
   
   for PTB refer to:
   * S. Grimme, M. Mueller, A. Hansen, J. Chem. Phys., 2023, 158, 124111.
     DOI: 10.1063/5.0137838
   
   with help from (in alphabetical order)
   P. Atkinson, C. Bannwarth, F. Bohle, G. Brandenburg, E. Caldeweyher
   M. Checinski, S. Dohm, S. Ehlert, S. Ehrlich, I. Gerasimov, C. Hölzer
   A. Katbashev, J. Kohn, J. Koopman, C. Lavigne, S. Lehtola, F. März, M. Müller,
   F. Musil, H. Neugebauer, J. Pisarek, C. Plett, P. Pracht, F. Pultar,
   J. Seibert, P. Shushkov, S. Spicher, M. Stahn, M. Steiner, T. Strunk,
   J. Stückrath, T. Rose, and J. Unsleber
   
 * started run on 2025/05/15 at 16:04:46.485     
   ID    Z sym.   atoms
    1    8 O      1, 4, 9-12, 20
    2    6 C      2, 3, 5-8, 13-19
    3    1 H      21-38

           -------------------------------------------------
          |                Calculation Setup                |
           -------------------------------------------------

          program call               : xtb /rds/general/user/hgt20/home/callum/QDESCP/Salicin_rdkit_conf_10/Salicin_rdkit_conf_10.xyz --acc 1 --gfn 2 --chrg 0 --uhf 2 --etemp 300 --input /rds/general/user/hgt20/home/callum/QDESCP/Salicin_rdkit_conf_10/Salicin_rdkit_conf_10_xtb.inp -P 1
          hostname                   : login-c
          coordinate file            : /rds/general/user/hgt20/home/callum/QDESCP/Salicin_rdkit_conf_10/Salicin_rdkit_conf_10.xyz
          omp threads                :                     1


           -------------------------------------------------
          |                 G F N 2 - x T B                 |
           -------------------------------------------------

        Reference                      10.1021/acs.jctc.8b01176
      * Hamiltonian:
        H0-scaling (s, p, d)           1.850000    2.230000    2.230000
        zeta-weighting                 0.500000
      * Dispersion:
        s8                             2.700000
        a1                             0.520000
        a2                             5.000000
        s9                             5.000000
      * Repulsion:
        kExp                           1.500000    1.000000
        rExp                           1.000000
      * Coulomb:
        alpha                          2.000000
        third order                    shell-resolved
        anisotropic                    true
        a3                             3.000000
        a5                             4.000000
        cn-shift                       1.200000
        cn-exp                         4.000000
        max-rad                        5.000000


          ...................................................
          :                      SETUP                      :
          :.................................................:
          :  # basis functions                  98          :
          :  # atomic orbitals                  98          :
          :  # shells                           58          :
          :  # electrons                       112          :
          :  max. iterations                   250          :
          :  Hamiltonian                  GFN2-xTB          :
          :  restarted?                      false          :
          :  GBSA solvation                  false          :
          :  PC potential                    false          :
          :  electronic temp.          300.0000000     K    :
          :  accuracy                    1.0000000          :
          :  -> integral cutoff          0.2500000E+02      :
          :  -> integral neglect         0.1000000E-07      :
          :  -> SCF convergence          0.1000000E-05 Eh   :
          :  -> wf. convergence          0.1000000E-03 e    :
          :  Broyden damping             0.4000000          :
          :  net charge                          0          :
          :  unpaired electrons                  2          :
          ...................................................

 iter      E             dE          RMSdq      gap      omega  full diag
   1    -65.8575408 -0.658575E+02  0.453E+00    0.31       0.0  T
   2    -65.7783565  0.791843E-01  0.373E+00    0.62       1.0  T
   3    -65.8535823 -0.752258E-01  0.253E+00    0.76       1.0  T
   4    -65.9344283 -0.808460E-01  0.829E-01    0.12       1.0  T
   5    -65.9350647 -0.636369E-03  0.914E-01    0.03       1.0  T
   6    -65.9489831 -0.139185E-01  0.612E-01    0.14       1.0  T
   7    -65.9531309 -0.414775E-02  0.399E-01    0.11       1.0  T
   8    -65.9521939  0.937038E-03  0.356E-01    0.10       1.0  T
   9    -65.9542529 -0.205909E-02  0.146E-01    0.07       1.0  T
  10    -65.9546765 -0.423562E-03  0.191E-02    0.07       1.0  T
  11    -65.9546803 -0.376285E-05  0.181E-02    0.07       1.0  T
  12    -65.9546846 -0.438170E-05  0.318E-03    0.07       5.1  T
  13    -65.9546848 -0.176191E-06  0.145E-03    0.07      11.2  T
  14    -65.9546848 -0.218395E-07  0.583E-04    0.07      27.8  T
  15    -65.9546848 -0.317007E-08  0.310E-04    0.07      52.3  T

   *** convergence criteria satisfied after 15 iterations ***

         #    Occupation            Energy/Eh            Energy/eV
      -------------------------------------------------------------
         1        2.0000           -0.7437227             -20.2377
       ...           ...                  ...                  ...
        51        2.0000           -0.4238096             -11.5324
        52        2.0000           -0.4174270             -11.3588
        53        2.0000           -0.4142611             -11.2726
        54        2.0000           -0.4137562             -11.2589
        55        1.9841           -0.4006129             -10.9012
        56        1.0159           -0.3927771             -10.6880
        57        0.7895           -0.2242154              -6.1012 (HOMO)
        58        0.2105           -0.2217031              -6.0328 (LUMO)
        59                         -0.0969775              -2.6389
        60                         -0.0260899              -0.7099
        61                         -0.0067073              -0.1825
        62                          0.0065967               0.1795
       ...                                ...                  ...
        98                          0.6620940              18.0165
      -------------------------------------------------------------
                  HL-Gap            0.0025123 Eh            0.0684 eV
             Fermi-level           -0.3098271 Eh           -8.4308 eV

 transition dipole moment (au) for excitation:          56          57
     X       Y       Z   
  -1.1755   0.0444   0.7153  total (au/Debye):    1.377   3.499
 dE (eV)             :    4.587
 oscillator strength :  0.30121E+00

 SCC (total)                   0 d,  0 h,  0 min,  0.109 sec
 SCC setup                      ...        0 min,  0.000 sec (  0.276%)
 Dispersion                     ...        0 min,  0.000 sec (  0.349%)
 classical contributions        ...        0 min,  0.000 sec (  0.111%)
 integral evaluation            ...        0 min,  0.007 sec (  6.001%)
 iterations                     ...        0 min,  0.026 sec ( 23.868%)
 molecular gradient             ...        0 min,  0.069 sec ( 63.959%)
 printout                       ...        0 min,  0.006 sec (  5.429%)

         :::::::::::::::::::::::::::::::::::::::::::::::::::::
         ::                     SUMMARY                     ::
         :::::::::::::::::::::::::::::::::::::::::::::::::::::
         :: total energy             -65.306944910586 Eh    ::
         :: gradient norm              0.136203775899 Eh/a0 ::
         :: HOMO-LUMO gap              0.068363591828 eV    ::
         ::.................................................::
         :: SCC energy               -65.954447540794 Eh    ::
         :: -> isotropic ES            0.148250814116 Eh    ::
         :: -> anisotropic ES         -0.004048571640 Eh    ::
         :: -> anisotropic XC         -0.003328010498 Eh    ::
         :: -> dispersion             -0.036892076919 Eh    ::
         :: repulsion energy           0.647502630208 Eh    ::
         :: add. restraining           0.000000000000 Eh    ::
         :: total charge              -0.000000000000 e     ::
         :::::::::::::::::::::::::::::::::::::::::::::::::::::

           -------------------------------------------------
          |                Property Printout                |
           -------------------------------------------------

    * Orbital Energies and Occupations

         #    Occupation            Energy/Eh            Energy/eV
      -------------------------------------------------------------
         1        2.0000           -0.7437227             -20.2377
       ...           ...                  ...                  ...
        45        2.0000           -0.4618626             -12.5679
        46        2.0000           -0.4525502             -12.3145
        47        2.0000           -0.4468191             -12.1586
        48        2.0000           -0.4378761             -11.9152
        49        2.0000           -0.4334636             -11.7951
        50        2.0000           -0.4278927             -11.6436
        51        2.0000           -0.4238096             -11.5324
        52        2.0000           -0.4174270             -11.3588
        53        2.0000           -0.4142611             -11.2726
        54        2.0000           -0.4137562             -11.2589
        55        1.9841           -0.4006129             -10.9012
        56        1.0159           -0.3927771             -10.6880
        57        0.7895           -0.2242154              -6.1012 (HOMO)
        58        0.2105           -0.2217031              -6.0328 (LUMO)
        59                         -0.0969775              -2.6389
        60                         -0.0260899              -0.7099
        61                         -0.0067073              -0.1825
        62                          0.0065967               0.1795
        63                          0.0281087               0.7649
        64                          0.0392391               1.0678
        65                          0.0571936               1.5563
        66                          0.0615896               1.6759
        67                          0.0750409               2.0420
        68                          0.0805082               2.1907
       ...                                ...                  ...
        98                          0.6620940              18.0165
      -------------------------------------------------------------
                  HL-Gap            0.0025123 Eh            0.0684 eV
             Fermi-level           -0.3098271 Eh           -8.4308 eV

     #   Z          covCN         q      C6AA      α(0)
     1   8 O        1.656    -0.430    21.430     6.249
     2   6 C        3.676     0.078    19.505     6.328
     3   6 C        3.761     0.104    18.909     6.199
     4   8 O        1.702    -0.316    19.273     5.927
     5   6 C        3.660     0.241    17.110     5.935
     6   6 C        3.728     0.089    19.194     6.255
     7   6 C        3.731     0.098    19.054     6.231
     8   6 C        3.729     0.093    19.141     6.246
     9   8 O        1.656    -0.439    21.622     6.277
    10   8 O        1.656    -0.443    21.709     6.290
    11   8 O        1.655    -0.455    21.949     6.324
    12   8 O        1.708    -0.232    17.838     5.702
    13   6 C        2.876     0.139    24.968     8.191
    14   6 C        2.915    -0.066    29.634     8.927
    15   6 C        2.922    -0.056    29.404     8.892
    16   6 C        2.917    -0.020    28.509     8.756
    17   6 C        2.923    -0.056    29.381     8.889
    18   6 C        2.966    -0.041    29.016     8.836
    19   6 C        3.679     0.077    19.506     6.326
    20   8 O        1.654    -0.450    21.840     6.309
    21   1 H        0.805     0.298     0.727     1.339
    22   1 H        0.924     0.054     2.269     2.355
    23   1 H        0.924     0.043     2.406     2.426
    24   1 H        0.923     0.050     2.318     2.381
    25   1 H        0.921     0.014     2.820     2.626
    26   1 H        0.923     0.043     2.411     2.428
    27   1 H        0.923     0.034     2.532     2.488
    28   1 H        0.923     0.036     2.503     2.474
    29   1 H        0.805     0.322     0.658     1.274
    30   1 H        0.805     0.318     0.669     1.285
    31   1 H        0.804     0.333     0.631     1.248
    32   1 H        0.926     0.054     2.270     2.356
    33   1 H        0.926     0.033     2.549     2.497
    34   1 H        0.926     0.038     2.477     2.461
    35   1 H        0.926     0.031     2.573     2.508
    36   1 H        0.924     0.064     2.157     2.297
    37   1 H        0.923     0.029     2.606     2.524
    38   1 H        0.805     0.291     0.747     1.358

 Mol. C6AA /au·bohr⁶  :      14039.791157
 Mol. C8AA /au·bohr⁸  :     316674.475054
 Mol. α(0) /au        :        177.415388


Wiberg/Mayer (AO) data.
largest (>0.10) Wiberg bond orders for each atom

 ---------------------------------------------------------------------------
     #   Z sym  total        # sym  WBO       # sym  WBO       # sym  WBO
 ---------------------------------------------------------------------------
     1   8 O    1.955 --     2 C    1.004    21 H    0.897
     2   6 C    3.959 --     1 O    1.004     3 C    0.987    23 H    0.968
                            22 H    0.964
     3   6 C    3.941 --     2 C    0.987     8 C    0.966     4 O    0.965
                            24 H    0.953
     4   8 O    2.090 --     5 C    0.968     3 C    0.965
     5   6 C    3.924 --    12 O    0.985     4 O    0.968    25 H    0.942
                             6 C    0.937
     6   6 C    3.958 --    11 O    1.010     7 C    0.970    26 H    0.954
                             5 C    0.937
     7   6 C    3.961 --    10 O    0.998     8 C    0.970     6 C    0.970
                            27 H    0.955
     8   6 C    3.963 --     9 O    1.006     7 C    0.970     3 C    0.966
                            28 H    0.955
     9   8 O    1.957 --     8 C    1.006    29 H    0.877
    10   8 O    1.954 --     7 C    0.998    30 H    0.880
    11   8 O    1.953 --     6 C    1.010    31 H    0.846
    12   8 O    2.301 --    13 C    1.100     5 C    0.985
    13   6 C    3.629 --    14 C    1.278    12 O    1.100    18 C    1.034
                            15 C    0.111
    14   6 C    3.860 --    15 C    1.456    13 C    1.278    32 H    0.964
    15   6 C    3.746 --    14 C    1.456    16 C    1.118    33 H    0.970
                            13 C    0.111
    16   6 C    3.694 --    17 C    1.362    15 C    1.118    34 H    0.971
                            18 C    0.133
    17   6 C    3.854 --    18 C    1.396    16 C    1.362    35 H    0.967
    18   6 C    3.706 --    17 C    1.396    13 C    1.034    19 C    1.015
                            16 C    0.133
    19   6 C    3.950 --    18 C    1.015    37 H    0.970    20 O    0.968
                            36 H    0.949
    20   8 O    1.969 --    19 C    0.968    38 H    0.900
    21   1 H    0.911 --     1 O    0.897
    22   1 H    0.996 --     2 C    0.964
    23   1 H    0.998 --     2 C    0.968
    24   1 H    0.997 --     3 C    0.953
    25   1 H    0.999 --     5 C    0.942
    26   1 H    0.998 --     6 C    0.954
    27   1 H    0.999 --     7 C    0.955
    28   1 H    0.999 --     8 C    0.955
    29   1 H    0.896 --     9 O    0.877
    30   1 H    0.898 --    10 O    0.880
    31   1 H    0.889 --    11 O    0.846
    32   1 H    0.997 --    14 C    0.964
    33   1 H    0.998 --    15 C    0.970
    34   1 H    0.998 --    16 C    0.971
    35   1 H    0.998 --    17 C    0.967
    36   1 H    0.991 --    19 C    0.949
    37   1 H    0.999 --    19 C    0.970
    38   1 H    0.915 --    20 O    0.900
 ---------------------------------------------------------------------------

Topologies differ in total number of bonds
Writing topology from bond orders to xtbtopo.mol

molecular dipole:
                 x           y           z       tot (Debye)
 q only:       -0.073       0.012       0.006
   full:       -0.264       0.014       0.158       0.782
molecular quadrupole (traceless):
                xx          xy          yy          xz          yz          zz
 q only:        2.682      -4.096      -2.612      -5.191       5.740      -0.070
  q+dip:        0.607      -8.574      -0.010      -6.047       5.993      -0.597
   full:        0.572      -7.273       0.308      -6.151       7.420      -0.879


           -------------------------------------------------
          | TOTAL ENERGY              -65.306944910586 Eh   |
          | GRADIENT NORM               0.136203775899 Eh/α |
          | HOMO-LUMO GAP               0.068363591828 eV   |
           -------------------------------------------------

------------------------------------------------------------------------
 * finished run on 2025/05/15 at 16:04:46.607     
------------------------------------------------------------------------
 total:
 * wall-time:     0 d,  0 h,  0 min,  0.121 sec
 *  cpu-time:     0 d,  0 h,  0 min,  0.070 sec
 * ratio c/w:     0.575 speedup
 SCF:
 * wall-time:     0 d,  0 h,  0 min,  0.109 sec
 *  cpu-time:     0 d,  0 h,  0 min,  0.059 sec
 * ratio c/w:     0.546 speedup


