38
 energy: -65.471931218566 gnorm: 0.000580130703 xtb: 6.7.1 (edcfbbe)
O            1.37422229696100       -0.55602367253191       -3.81124131183037
C            2.30147201749237       -0.87930517365801       -2.80161926500474
C            1.96055227402599       -0.06876651320826       -1.55501913670879
O            0.84790938923492       -0.67367577206230       -0.93102766458883
C            0.38441766766306        0.05592792244766        0.17352510800041
C            1.45903064213850        0.15704122614989        1.26989673114293
C            2.72042621476783        0.77997118959936        0.67229704681580
C            3.14382184673472       -0.00024383088419       -0.57804341333325
O            4.23306311319861        0.61698891559093       -1.20879410976050
O            3.79263623415933        0.76541069032169        1.58405058209483
O            1.02393609638305        0.95881474360168        2.33566267540184
O           -0.69319174313717       -0.58890228762038        0.75966963763058
C           -1.94953274238800       -0.35630193173102        0.25575939303929
C           -2.20887726772201       -0.13458742869259       -1.08787825718491
C           -3.51242897622234        0.08142684490522       -1.50289192569396
C           -4.54951646609508        0.07639830001259       -0.58723771504385
C           -4.28456468349525       -0.13867845516647        0.75556252280875
C           -2.98845036918035       -0.35396955504813        1.19394411626608
C           -2.64987853348419       -0.53924982290071        2.65207312942776
O           -1.76286979719087        0.45599011214055        3.13724879081089
H            1.54755662300165       -1.10990939275755       -4.57962284461416
H            3.32211872651466       -0.61746464585725       -3.10569313571933
H            2.25083727674530       -1.94445205982349       -2.54518411847251
H            1.70393119474691        0.95404714109532       -1.87240871547873
H            0.09993952609543        1.08055612184364       -0.14834723321007
H            1.68272103584091       -0.86515582845256        1.61377435378925
H            2.49126072384907        1.82063423217104        0.38648236345397
H            3.41030174570187       -1.02448389805767       -0.26954265678746
H            4.86598370070319        0.84189079677580       -0.51425316099847
H            3.44766732588636        1.07627134760863        2.42988868696318
H            0.15374059733197        0.63582921038159        2.63512253154642
H           -1.39604863764298       -0.15260741219842       -1.79730773423650
H           -3.71442597106132        0.25119068276693       -2.54962092485241
H           -5.56408924570063        0.24390107753442       -0.91516476288040
H           -5.09257938612852       -0.13511167559817        1.47319227392502
H           -2.12124415917900       -1.48477480330777        2.79571010420550
H           -3.56923242924667       -0.54931878828968        3.25237701913198
H           -2.16061586130306        1.32079239289851        2.98486101994431
