26
 energy: -46.981583626308 gnorm: 0.000973310367 xtb: 6.7.1 (edcfbbe)
N            4.67451220634535        0.52455380965519        0.96571111861248
C            3.39004139451877        0.24248012748708        0.68950779210171
N            3.12042848647272       -0.98232503487533        0.29939914480631
C            1.88126512685326       -1.37407403288223       -0.01004267087656
N            0.83743280385886       -0.38673578841904        0.13953643559606
C           -0.49398686718737       -0.81715349440273       -0.19326175131817
C           -0.73279596395206       -0.79477976330977       -1.71409684571557
S           -2.53438459935377       -0.67972160421024       -1.87468116706764
C           -2.70741028810666       -0.30053976432103       -0.06372466123870
O           -1.44224756402344        0.03167067369301        0.39402924102127
C           -3.68804602213382        0.85031823178001        0.15440554283761
O           -4.01884437025698        1.04123447955951        1.49882530443493
C            1.11130819961151        0.87337794226441        0.52340924627611
C            2.38227044428318        1.24522629291290        0.81311544768186
O            1.56542988727144       -2.47171396090372       -0.40534054076819
H            4.95630029674820        1.43461862085292        1.28006821548755
H            5.35047933560095       -0.21277676181454        0.87005442510511
H           -0.60632152288060       -1.85349898610200        0.16994404520446
H           -0.36255323587641       -1.69850105771760       -2.18976206135219
H           -0.27764412633789        0.08839508847745       -2.16505354641586
H           -3.07247706260317       -1.22604561204998        0.41185329753393
H           -3.22136577732142        1.77959574109881       -0.17762091363218
H           -4.57917574325115        0.65795990039142       -0.45953396289905
H           -4.42019748510157        0.23766486201407        1.85001120403010
H            0.26824564984532        1.54461656004249        0.59944626652482
H            2.61973679697665        2.24605353077910        1.12820139402993
