----- Optimization -----
      -----------------------------------------------------------      
     |                   =====================                   |     
     |                           x T B                           |     
     |                   =====================                   |     
     |                         S. Grimme                         |     
     |          Mulliken Center for Theoretical Chemistry        |     
     |                    University of Bonn                     |     
      -----------------------------------------------------------      

   * xtb version 6.7.1 (edcfbbe) compiled by 'conda@3ef47c1a292c' on 2024-11-25

   xtb is free software: you can redistribute it and/or modify it under
   the terms of the GNU Lesser General Public License as published by
   the Free Software Foundation, either version 3 of the License, or
   (at your option) any later version.
   
   xtb is distributed in the hope that it will be useful,
   but WITHOUT ANY WARRANTY; without even the implied warranty of
   MERCHANTABILITY or FITNESS FOR A PARTICULAR PURPOSE.  See the
   GNU Lesser General Public License for more details.
   
   Cite this work as:
   * C. Bannwarth, E. Caldeweyher, S. Ehlert, A. Hansen, P. Pracht,
     J. Seibert, S. Spicher, S. Grimme, WIREs Comput. Mol. Sci., 2020, 11,
     e01493. DOI: 10.1002/wcms.1493
   
   for GFN2-xTB:
   * C. Bannwarth, S. Ehlert and S. Grimme., J. Chem. Theory Comput., 2019,
     15, 1652-1671. DOI: 10.1021/acs.jctc.8b01176
   for GFN1-xTB:
   * S. Grimme, C. Bannwarth, P. Shushkov, J. Chem. Theory Comput., 2017,
     13, 1989-2009. DOI: 10.1021/acs.jctc.7b00118
   for GFN0-xTB:
   * P. Pracht, E. Caldeweyher, S. Ehlert, S. Grimme, ChemRxiv, 2019, preprint.
     DOI: 10.26434/chemrxiv.8326202.v1
   for GFN-FF:
   * S. Spicher and S. Grimme, Angew. Chem. Int. Ed., 2020, 59, 15665-15673.
     DOI: 10.1002/anie.202004239
   
   for ALPB and GBSA implicit solvation:
   * S. Ehlert, M. Stahn, S. Spicher, S. Grimme, J. Chem. Theory Comput.,
     2021, 17, 4250-4261. DOI: 10.1021/acs.jctc.1c00471
   
   for ddCOSMO and CPCM-X implicit solvation:
   * M. Stahn, S. Ehlert, S. Grimme, J. Phys. Chem. A,
     2023, XX, XXXX-XXXX. DOI: 10.1021/acs.jpca.3c04382
   
   for DFT-D4:
   * E. Caldeweyher, C. Bannwarth and S. Grimme, J. Chem. Phys., 2017,
     147, 034112. DOI: 10.1063/1.4993215
   * E. Caldeweyher, S. Ehlert, A. Hansen, H. Neugebauer, S. Spicher,
     C. Bannwarth and S. Grimme, J. Chem. Phys., 2019, 150, 154122.
     DOI: 10.1063/1.5090222
   * E. Caldeweyher, J.-M. Mewes, S. Ehlert and S. Grimme, Phys. Chem. Chem. Phys.
     2020, 22, 8499-8512. DOI: 10.1039/D0CP00502A
   
   for sTDA-xTB:
   * S. Grimme and C. Bannwarth, J. Chem. Phys., 2016, 145, 054103.
     DOI: 10.1063/1.4959605
   
   in the mass-spec context:
   * V. Asgeirsson, C. Bauer and S. Grimme, Chem. Sci., 2017, 8, 4879.
     DOI: 10.1039/c7sc00601b
   * J. Koopman and S. Grimme, ACS Omega 2019, 4, 12, 15120-15133.
     DOI: 10.1021/acsomega.9b02011
   
   for metadynamics refer to:
   * S. Grimme, J. Chem. Theory Comput., 2019, 155, 2847-2862
     DOI: 10.1021/acs.jctc.9b00143
   
   for SPH calculations refer to:
   * S. Spicher and S. Grimme, J. Chem. Theory Comput., 2021, 17, 1701-1714
     DOI: 10.1021/acs.jctc.0c01306
   
   for ONIOM refer to:
   * C. Plett, A. Katbashev, S. Ehlert, S. Grimme, M. Bursch,
     Phys. Chem. Chem. Phys., 2023, 25, 17860-17868. DOI: 10.1039/D3CP02178E
   
   for DIPRO refer to:
   * J. Kohn, N. Gildemeister, S. Grimme, D. Fazzi, A. Hansen,
     J. Chem. Phys., 2023, just accepted.
   
   for PTB refer to:
   * S. Grimme, M. Mueller, A. Hansen, J. Chem. Phys., 2023, 158, 124111.
     DOI: 10.1063/5.0137838
   
   with help from (in alphabetical order)
   P. Atkinson, C. Bannwarth, F. Bohle, G. Brandenburg, E. Caldeweyher
   M. Checinski, S. Dohm, S. Ehlert, S. Ehrlich, I. Gerasimov, C. Hölzer
   A. Katbashev, J. Kohn, J. Koopman, C. Lavigne, S. Lehtola, F. März, M. Müller,
   F. Musil, H. Neugebauer, J. Pisarek, C. Plett, P. Pracht, F. Pultar,
   J. Seibert, P. Shushkov, S. Spicher, M. Stahn, M. Steiner, T. Strunk,
   J. Stückrath, T. Rose, and J. Unsleber
   
 * started run on 2025/05/15 at 16:34:41.621     
   ID    Z sym.   atoms
    1    6 C      1-3, 5-8, 10, 11, 13, 15, 16, 18-20, 22, 23
    2    8 O      4, 21, 24
    3    7 N      9, 14, 17
    4   16 S      12
    5    1 H      25-43

           -------------------------------------------------
          |                Calculation Setup                |
           -------------------------------------------------

          program call               : xtb /rds/general/user/hgt20/home/callum/QDESCP/Omeprazole_rdkit_conf_19/Omeprazole_rdkit_conf_19.xyz --opt normal --acc 1 --gfn 2 --chrg 0 --uhf 0 -P 1
          hostname                   : login-c
          coordinate file            : /rds/general/user/hgt20/home/callum/QDESCP/Omeprazole_rdkit_conf_19/Omeprazole_rdkit_conf_19.xyz
          omp threads                :                     1


           -------------------------------------------------
          |                 G F N 2 - x T B                 |
           -------------------------------------------------

        Reference                      10.1021/acs.jctc.8b01176
      * Hamiltonian:
        H0-scaling (s, p, d)           1.850000    2.230000    2.230000
        zeta-weighting                 0.500000
      * Dispersion:
        s8                             2.700000
        a1                             0.520000
        a2                             5.000000
        s9                             5.000000
      * Repulsion:
        kExp                           1.500000    1.000000
        rExp                           1.000000
      * Coulomb:
        alpha                          2.000000
        third order                    shell-resolved
        anisotropic                    true
        a3                             3.000000
        a5                             4.000000
        cn-shift                       1.200000
        cn-exp                         4.000000
        max-rad                        5.000000


          ...................................................
          :                      SETUP                      :
          :.................................................:
          :  # basis functions                 121          :
          :  # atomic orbitals                 120          :
          :  # shells                           68          :
          :  # electrons                       126          :
          :  max. iterations                   250          :
          :  Hamiltonian                  GFN2-xTB          :
          :  restarted?                      false          :
          :  GBSA solvation                  false          :
          :  PC potential                    false          :
          :  electronic temp.          300.0000000     K    :
          :  accuracy                    1.0000000          :
          :  -> integral cutoff          0.2500000E+02      :
          :  -> integral neglect         0.1000000E-07      :
          :  -> SCF convergence          0.1000000E-05 Eh   :
          :  -> wf. convergence          0.1000000E-03 e    :
          :  Broyden damping             0.4000000          :
          :  net charge                          0          :
          :  unpaired electrons                  0          :
          ...................................................

 iter      E             dE          RMSdq      gap      omega  full diag
   1    -71.0594646 -0.710595E+02  0.456E+00    3.01       0.0  T
   2    -71.1662852 -0.106821E+00  0.264E+00    3.01       1.0  T
   3    -71.1573915  0.889363E-02  0.129E+00    2.93       1.0  T
   4    -71.1766799 -0.192884E-01  0.530E-01    2.94       1.0  T
   5    -71.1849556 -0.827563E-02  0.170E-01    2.96       1.0  T
   6    -71.1851512 -0.195682E-03  0.798E-02    2.94       1.0  T
   7    -71.1852286 -0.773243E-04  0.356E-02    2.96       1.0  T
   8    -71.1852422 -0.136534E-04  0.207E-02    2.95       1.0  T
   9    -71.1852440 -0.181085E-05  0.840E-03    2.95       1.8  T
  10    -71.1852452 -0.120041E-05  0.336E-03    2.95       4.5  T
  11    -71.1852453 -0.756331E-07  0.184E-03    2.95       8.3  T
  12    -71.1852453 -0.300433E-07  0.679E-04    2.95      22.5  T
  13    -71.1852453 -0.698046E-08  0.243E-04    2.95      62.8  T

   *** convergence criteria satisfied after 13 iterations ***

         #    Occupation            Energy/Eh            Energy/eV
      -------------------------------------------------------------
         1        2.0000           -0.7566487             -20.5895
       ...           ...                  ...                  ...
        57        2.0000           -0.4123538             -11.2207
        58        2.0000           -0.4041353             -10.9971
        59        2.0000           -0.3957017             -10.7676
        60        2.0000           -0.3864707             -10.5164
        61        2.0000           -0.3833198             -10.4307
        62        2.0000           -0.3767837             -10.2528
        63        2.0000           -0.3710961             -10.0980 (HOMO)
        64                         -0.2626282              -7.1465 (LUMO)
        65                         -0.2520524              -6.8587
        66                         -0.2396570              -6.5214
        67                         -0.2041697              -5.5557
        68                         -0.1963409              -5.3427
       ...                                ...                  ...
       120                          0.8021207              21.8268
      -------------------------------------------------------------
                  HL-Gap            0.1084679 Eh            2.9516 eV
             Fermi-level           -0.3168621 Eh           -8.6223 eV

 SCC (total)                   0 d,  0 h,  0 min,  0.157 sec
 SCC setup                      ...        0 min,  0.000 sec (  0.240%)
 Dispersion                     ...        0 min,  0.000 sec (  0.313%)
 classical contributions        ...        0 min,  0.000 sec (  0.098%)
 integral evaluation            ...        0 min,  0.009 sec (  5.496%)
 iterations                     ...        0 min,  0.075 sec ( 47.417%)
 molecular gradient             ...        0 min,  0.073 sec ( 46.305%)
 printout                       ...        0 min,  0.000 sec (  0.126%)

         :::::::::::::::::::::::::::::::::::::::::::::::::::::
         ::                     SUMMARY                     ::
         :::::::::::::::::::::::::::::::::::::::::::::::::::::
         :: total energy             -70.301323866675 Eh    ::
         :: gradient norm              0.099848774039 Eh/a0 ::
         :: HOMO-LUMO gap              2.951562565734 eV    ::
         ::.................................................::
         :: SCC energy               -71.184794561451 Eh    ::
         :: -> isotropic ES            0.095936240581 Eh    ::
         :: -> anisotropic ES          0.008347367117 Eh    ::
         :: -> anisotropic XC          0.030583306542 Eh    ::
         :: -> dispersion             -0.048899243260 Eh    ::
         :: repulsion energy           0.883470694777 Eh    ::
         :: add. restraining           0.000000000000 Eh    ::
         :: total charge              -0.000000000000 e     ::
         :::::::::::::::::::::::::::::::::::::::::::::::::::::

      ----------------------------------------------------------- 
     |                   =====================                   |
     |                        A N C O P T                        |
     |                   =====================                   |
     |               Approximate Normal Coordinate               |
     |                Rational Function Optimizer                |
      ----------------------------------------------------------- 
      ----------------------------------------------------------- 
     |                   =====================                   |
     |                        A N C O P T                        |
     |                   =====================                   |
     |               Approximate Normal Coordinate               |
     |                Rational Function Optimizer                |
      ----------------------------------------------------------- 

          ...................................................
          :                      SETUP                      :
          :.................................................:
          :   optimization level            normal          :
          :   max. optcycles                   200          :
          :   ANC micro-cycles                  20          :
          :   degrees of freedom               123          :
          :.................................................:
          :   RF solver                   davidson          :
          :   write xtbopt.log                true          :
          :   linear?                        false          :
          :   energy convergence         0.5000000E-05 Eh   :
          :   grad. convergence          0.1000000E-02 Eh/α :
          :   maxmium RF displ.          1.0000000          :
          :   Hlow (freq-cutoff)         0.1000000E-01      :
          :   Hmax (freq-cutoff)         5.0000000          :
          :   S6 in model hess.         20.0000000          :
          ...................................................

generating ANC from exact Hessian ...
Using Lindh-Hessian (1995)
 Shifting diagonal of input Hessian by    9.8811241923757696E-003
 Lowest  eigenvalues of input Hessian
    0.000000    0.000000    0.000000    0.000000    0.000000    0.000000
    0.010000    0.010166    0.010396    0.010998    0.011251    0.012125
    0.012404    0.013167    0.014659    0.015104    0.015621    0.016103
 Highest eigenvalues
    1.987249    2.032666    2.040867    2.106062    2.229089    2.269752


........................................................................
.............................. CYCLE    1 ..............................
........................................................................

 iter      E             dE          RMSdq      gap      omega  full diag
   1    -71.1852453 -0.711852E+02  0.104E-04    2.95       0.0  T
   2    -71.1852453 -0.692495E-10  0.594E-05    2.95     256.6  T
   3    -71.1852453 -0.320881E-10  0.404E-05    2.95     377.0  T
     SCC iter.                  ...        0 min,  0.008 sec
     gradient                   ...        0 min,  0.068 sec
 * total energy  :   -70.3013239 Eh     change       -0.6813252E-09 Eh
   gradient norm :     0.0998482 Eh/α   predicted     0.0000000E+00 (-100.00%)
   displ. norm   :     0.2771715 α      lambda       -0.1284162E-01
   maximum displ.:     0.0788561 α      in ANC's #37, #21, #46, ...

........................................................................
.............................. CYCLE    2 ..............................
........................................................................

 iter      E             dE          RMSdq      gap      omega  full diag
   1    -71.2209330 -0.712209E+02  0.194E-01    3.02       0.0  T
   2    -71.2210415 -0.108468E-03  0.123E-01    3.00       1.0  T
   3    -71.2209917  0.497858E-04  0.670E-02    3.02       1.0  T
   4    -71.2211183 -0.126626E-03  0.157E-02    3.01       1.0  T
   5    -71.2211218 -0.349929E-05  0.778E-03    3.01       2.0  T
   6    -71.2211221 -0.296256E-06  0.315E-03    3.01       4.8  T
   7    -71.2211223 -0.158658E-06  0.169E-03    3.01       9.0  T
   8    -71.2211223 -0.134233E-07  0.803E-04    3.01      19.0  T
   9    -71.2211223 -0.453666E-08  0.301E-04    3.01      50.6  T
     SCC iter.                  ...        0 min,  0.021 sec
     gradient                   ...        0 min,  0.070 sec
 * total energy  :   -70.3102723 Eh     change       -0.8948426E-02 Eh
   gradient norm :     0.0472922 Eh/α   predicted    -0.6918839E-02 ( -22.68%)
   displ. norm   :     0.2562377 α      lambda       -0.4217546E-02
   maximum displ.:     0.0949430 α      in ANC's #11, #9, #13, ...

........................................................................
.............................. CYCLE    3 ..............................
........................................................................

 iter      E             dE          RMSdq      gap      omega  full diag
   1    -71.2411249 -0.712411E+02  0.130E-01    3.04       0.0  T
   2    -71.2411918 -0.668540E-04  0.850E-02    3.03       1.0  T
   3    -71.2411932 -0.142283E-05  0.445E-02    3.04       1.0  T
   4    -71.2412230 -0.298569E-04  0.126E-02    3.03       1.2  T
   5    -71.2412272 -0.420264E-05  0.435E-03    3.03       3.5  T
   6    -71.2412273 -0.588524E-07  0.215E-03    3.03       7.1  T
   7    -71.2412274 -0.494071E-07  0.102E-03    3.03      15.0  T
   8    -71.2412274 -0.108042E-07  0.556E-04    3.03      27.4  T
   9    -71.2412274 -0.168448E-08  0.173E-04    3.03      88.2  T
     SCC iter.                  ...        0 min,  0.021 sec
     gradient                   ...        0 min,  0.027 sec
 * total energy  :   -70.3127507 Eh     change       -0.2478406E-02 Eh
   gradient norm :     0.0140757 Eh/α   predicted    -0.2247875E-02 (  -9.30%)
   displ. norm   :     0.2011613 α      lambda       -0.7488391E-03
   maximum displ.:     0.0957975 α      in ANC's #11, #9, #13, ...

........................................................................
.............................. CYCLE    4 ..............................
........................................................................

 iter      E             dE          RMSdq      gap      omega  full diag
   1    -71.2425446 -0.712425E+02  0.590E-02    3.02       0.0  T
   2    -71.2425504 -0.574412E-05  0.370E-02    3.02       1.0  T
   3    -71.2425471  0.328370E-05  0.151E-02    3.02       1.0  T
   4    -71.2425521 -0.500698E-05  0.377E-03    3.02       4.0  T
   5    -71.2425523 -0.198757E-06  0.189E-03    3.02       8.1  T
   6    -71.2425523 -0.286385E-07  0.670E-04    3.02      22.8  T
   7    -71.2425523 -0.699191E-08  0.254E-04    3.02      60.1  T
     SCC iter.                  ...        0 min,  0.016 sec
     gradient                   ...        0 min,  0.079 sec
 * total energy  :   -70.3133349 Eh     change       -0.5841673E-03 Eh
   gradient norm :     0.0089004 Eh/α   predicted    -0.3895839E-03 ( -33.31%)
   displ. norm   :     0.3456968 α      lambda       -0.8292920E-03
   maximum displ.:     0.1630888 α      in ANC's #11, #9, #6, ...

........................................................................
.............................. CYCLE    5 ..............................
........................................................................

 iter      E             dE          RMSdq      gap      omega  full diag
   1    -71.2408629 -0.712409E+02  0.885E-02    3.00       0.0  T
   2    -71.2408677 -0.476611E-05  0.532E-02    3.00       1.0  T
   3    -71.2408618  0.588503E-05  0.159E-02    3.00       1.0  T
   4    -71.2408696 -0.774520E-05  0.400E-03    3.00       3.8  T
   5    -71.2408696 -0.282928E-07  0.196E-03    3.00       7.8  T
   6    -71.2408696 -0.378668E-07  0.536E-04    3.00      28.4  T
   7    -71.2408696 -0.261804E-08  0.316E-04    3.00      48.3  T
     SCC iter.                  ...        0 min,  0.016 sec
     gradient                   ...        0 min,  0.027 sec
 * total energy  :   -70.3138832 Eh     change       -0.5483366E-03 Eh
   gradient norm :     0.0075347 Eh/α   predicted    -0.4642012E-03 ( -15.34%)
   displ. norm   :     0.2227062 α      lambda       -0.2877616E-03
   maximum displ.:     0.0919429 α      in ANC's #11, #6, #3, ...

........................................................................
.............................. CYCLE    6 ..............................
........................................................................

 iter      E             dE          RMSdq      gap      omega  full diag
   1    -71.2405229 -0.712405E+02  0.489E-02    2.99       0.0  T
   2    -71.2405243 -0.143512E-05  0.279E-02    2.99       1.0  T
   3    -71.2405237  0.596465E-06  0.666E-03    2.99       2.3  T
   4    -71.2405246 -0.883509E-06  0.253E-03    2.99       6.0  T
   5    -71.2405247 -0.138180E-06  0.102E-03    2.99      14.9  T
   6    -71.2405247 -0.780581E-08  0.402E-04    2.99      38.0  T
   7    -71.2405248 -0.181832E-08  0.191E-04    2.99      79.9  T
     SCC iter.                  ...        0 min,  0.016 sec
     gradient                   ...        0 min,  0.028 sec
 * total energy  :   -70.3140902 Eh     change       -0.2069922E-03 Eh
   gradient norm :     0.0067412 Eh/α   predicted    -0.1510465E-03 ( -27.03%)
   displ. norm   :     0.2074419 α      lambda       -0.2235045E-03
   maximum displ.:     0.0925951 α      in ANC's #6, #3, #17, ...

........................................................................
.............................. CYCLE    7 ..............................
........................................................................

 iter      E             dE          RMSdq      gap      omega  full diag
   1    -71.2414420 -0.712414E+02  0.395E-02    2.99       0.0  T
   2    -71.2414437 -0.170291E-05  0.228E-02    2.99       1.0  T
   3    -71.2414430  0.732913E-06  0.807E-03    2.99       1.9  T
   4    -71.2414441 -0.113291E-05  0.250E-03    2.99       6.1  T
   5    -71.2414442 -0.837294E-07  0.116E-03    2.99      13.2  T
   6    -71.2414442 -0.133245E-07  0.452E-04    2.99      33.8  T
   7    -71.2414442 -0.347519E-08  0.209E-04    2.99      73.0  T
     SCC iter.                  ...        0 min,  0.016 sec
     gradient                   ...        0 min,  0.028 sec
 * total energy  :   -70.3142516 Eh     change       -0.1614441E-03 Eh
   gradient norm :     0.0048974 Eh/α   predicted    -0.1165664E-03 ( -27.80%)
   displ. norm   :     0.1940473 α      lambda       -0.1625161E-03
   maximum displ.:     0.0879592 α      in ANC's #3, #6, #1, ...

........................................................................
.............................. CYCLE    8 ..............................
........................................................................

 iter      E             dE          RMSdq      gap      omega  full diag
   1    -71.2424706 -0.712425E+02  0.350E-02    3.00       0.0  T
   2    -71.2424719 -0.126068E-05  0.205E-02    3.00       1.0  T
   3    -71.2424712  0.684723E-06  0.695E-03    3.00       2.2  T
   4    -71.2424722 -0.101687E-05  0.243E-03    3.00       6.3  T
   5    -71.2424723 -0.467678E-07  0.110E-03    3.00      13.8  T
   6    -71.2424723 -0.161006E-07  0.394E-04    3.00      38.7  T
   7    -71.2424723 -0.217537E-08  0.208E-04    3.00      73.1  T
     SCC iter.                  ...        0 min,  0.016 sec
     gradient                   ...        0 min,  0.028 sec
 * total energy  :   -70.3143690 Eh     change       -0.1173969E-03 Eh
   gradient norm :     0.0042240 Eh/α   predicted    -0.8431878E-04 ( -28.18%)
   displ. norm   :     0.1848513 α      lambda       -0.1161684E-03
   maximum displ.:     0.0887634 α      in ANC's #1, #3, #6, ...

........................................................................
.............................. CYCLE    9 ..............................
........................................................................

 iter      E             dE          RMSdq      gap      omega  full diag
   1    -71.2430994 -0.712431E+02  0.336E-02    3.01       0.0  T
   2    -71.2431001 -0.754555E-06  0.197E-02    3.01       1.0  T
   3    -71.2430997  0.407685E-06  0.514E-03    3.01       3.0  T
   4    -71.2431003 -0.571227E-06  0.209E-03    3.01       7.3  T
   5    -71.2431003 -0.409218E-07  0.934E-04    3.01      16.3  T
   6    -71.2431003 -0.212692E-07  0.333E-04    3.01      45.8  T
     SCC iter.                  ...        0 min,  0.054 sec
     gradient                   ...        0 min,  0.028 sec
 * total energy  :   -70.3144542 Eh     change       -0.8517556E-04 Eh
   gradient norm :     0.0040629 Eh/α   predicted    -0.6007100E-04 ( -29.47%)
   displ. norm   :     0.1792624 α      lambda       -0.9027933E-04
   maximum displ.:     0.0954670 α      in ANC's #1, #3, #17, ...

........................................................................
.............................. CYCLE   10 ..............................
........................................................................

 iter      E             dE          RMSdq      gap      omega  full diag
   1    -71.2432912 -0.712433E+02  0.332E-02    3.02       0.0  T
   2    -71.2432917 -0.462689E-06  0.195E-02    3.01       1.0  T
   3    -71.2432911  0.535458E-06  0.478E-03    3.02       3.2  T
   4    -71.2432918 -0.679859E-06  0.165E-03    3.01       9.2  T
   5    -71.2432919 -0.343950E-07  0.695E-04    3.01      21.9  T
   6    -71.2432919 -0.936448E-08  0.258E-04    3.01      59.0  T
     SCC iter.                  ...        0 min,  0.059 sec
     gradient                   ...        0 min,  0.028 sec
 * total energy  :   -70.3145216 Eh     change       -0.6736396E-04 Eh
   gradient norm :     0.0035920 Eh/α   predicted    -0.4659180E-04 ( -30.84%)
   displ. norm   :     0.1718530 α      lambda       -0.7332132E-04
   maximum displ.:     0.0993962 α      in ANC's #1, #3, #15, ...

........................................................................
.............................. CYCLE   11 ..............................
........................................................................

 iter      E             dE          RMSdq      gap      omega  full diag
   1    -71.2432113 -0.712432E+02  0.320E-02    3.02       0.0  T
   2    -71.2432116 -0.353138E-06  0.187E-02    3.02       1.0  T
   3    -71.2432111  0.556328E-06  0.452E-03    3.02       3.4  T
   4    -71.2432118 -0.709956E-06  0.117E-03    3.02      13.0  T
   5    -71.2432118 -0.824696E-08  0.486E-04    3.02      31.4  T
   6    -71.2432118 -0.519208E-08  0.190E-04    3.02      80.4  T
     SCC iter.                  ...        0 min,  0.014 sec
     gradient                   ...        0 min,  0.060 sec
 * total energy  :   -70.3145769 Eh     change       -0.5531308E-04 Eh
   gradient norm :     0.0031621 Eh/α   predicted    -0.3774589E-04 ( -31.76%)
   displ. norm   :     0.1630918 α      lambda       -0.5968670E-04
   maximum displ.:     0.1007602 α      in ANC's #1, #3, #15, ...

........................................................................
.............................. CYCLE   12 ..............................
........................................................................

 iter      E             dE          RMSdq      gap      omega  full diag
   1    -71.2430024 -0.712430E+02  0.300E-02    3.02       0.0  T
   2    -71.2430027 -0.368559E-06  0.174E-02    3.02       1.0  T
   3    -71.2430024  0.346350E-06  0.386E-03    3.02       3.9  T
   4    -71.2430029 -0.469899E-06  0.110E-03    3.02      13.9  T
   5    -71.2430029 -0.712106E-08  0.442E-04    3.02      34.5  T
   6    -71.2430029 -0.291698E-08  0.188E-04    3.02      81.2  T
     SCC iter.                  ...        0 min,  0.014 sec
     gradient                   ...        0 min,  0.066 sec
 * total energy  :   -70.3146227 Eh     change       -0.4580410E-04 Eh
   gradient norm :     0.0029031 Eh/α   predicted    -0.3063844E-04 ( -33.11%)
   displ. norm   :     0.1538126 α      lambda       -0.5027165E-04
   maximum displ.:     0.1002908 α      in ANC's #1, #3, #15, ...

........................................................................
.............................. CYCLE   13 ..............................
........................................................................

 iter      E             dE          RMSdq      gap      omega  full diag
   1    -71.2429180 -0.712429E+02  0.274E-02    3.01       0.0  T
   2    -71.2429184 -0.388981E-06  0.160E-02    3.02       1.0  T
   3    -71.2429181  0.264115E-06  0.362E-03    3.02       4.2  T
   4    -71.2429185 -0.361051E-06  0.119E-03    3.02      12.8  T
   5    -71.2429185 -0.154757E-07  0.534E-04    3.02      28.6  T
   6    -71.2429185 -0.392312E-08  0.226E-04    3.02      67.6  T
     SCC iter.                  ...        0 min,  0.014 sec
     gradient                   ...        0 min,  0.028 sec
 * total energy  :   -70.3146620 Eh     change       -0.3929187E-04 Eh
   gradient norm :     0.0025173 Eh/α   predicted    -0.2573276E-04 ( -34.51%)
   displ. norm   :     0.1538778 α      lambda       -0.4499541E-04
   maximum displ.:     0.1031723 α      in ANC's #1, #3, #8, ...

........................................................................
.............................. CYCLE   14 ..............................
........................................................................

 iter      E             dE          RMSdq      gap      omega  full diag
   1    -71.2427947 -0.712428E+02  0.261E-02    3.01       0.0  T
   2    -71.2427950 -0.330805E-06  0.153E-02    3.01       1.0  T
   3    -71.2427948  0.258143E-06  0.348E-03    3.01       4.4  T
   4    -71.2427951 -0.344371E-06  0.119E-03    3.01      12.8  T
   5    -71.2427951 -0.162631E-07  0.512E-04    3.01      29.8  T
   6    -71.2427951 -0.290677E-08  0.204E-04    3.01      74.6  T
     SCC iter.                  ...        0 min,  0.014 sec
     gradient                   ...        0 min,  0.028 sec
 * total energy  :   -70.3146981 Eh     change       -0.3612875E-04 Eh
   gradient norm :     0.0021053 Eh/α   predicted    -0.2303332E-04 ( -36.25%)
   displ. norm   :     0.1646375 α      lambda       -0.4728241E-04
   maximum displ.:     0.1108357 α      in ANC's #1, #3, #8, ...

........................................................................
.............................. CYCLE   15 ..............................
........................................................................

 iter      E             dE          RMSdq      gap      omega  full diag
   1    -71.2433161 -0.712433E+02  0.292E-02    3.01       0.0  T
   2    -71.2433165 -0.345119E-06  0.173E-02    3.01       1.0  T
   3    -71.2433163  0.237816E-06  0.333E-03    3.01       4.6  T
   4    -71.2433166 -0.324918E-06  0.126E-03    3.01      12.1  T
   5    -71.2433166 -0.226428E-07  0.508E-04    3.01      30.0  T
   6    -71.2433166 -0.226419E-08  0.209E-04    3.01      73.0  T
     SCC iter.                  ...        0 min,  0.014 sec
     gradient                   ...        0 min,  0.028 sec
 * total energy  :   -70.3147353 Eh     change       -0.3715992E-04 Eh
   gradient norm :     0.0025290 Eh/α   predicted    -0.2428508E-04 ( -34.65%)
   displ. norm   :     0.2255778 α      lambda       -0.6211283E-04
   maximum displ.:     0.1481177 α      in ANC's #1, #3, #8, ...

........................................................................
.............................. CYCLE   16 ..............................
........................................................................

 iter      E             dE          RMSdq      gap      omega  full diag
   1    -71.2424982 -0.712425E+02  0.384E-02    3.00       0.0  T
   2    -71.2424988 -0.608929E-06  0.229E-02    3.00       1.0  T
   3    -71.2424981  0.746143E-06  0.461E-03    3.00       3.3  T
   4    -71.2424990 -0.948702E-06  0.142E-03    3.00      10.7  T
   5    -71.2424990 -0.263529E-07  0.622E-04    3.00      24.5  T
   6    -71.2424990 -0.342814E-08  0.220E-04    3.00      69.4  T
     SCC iter.                  ...        0 min,  0.059 sec
     gradient                   ...        0 min,  0.028 sec
 * total energy  :   -70.3147778 Eh     change       -0.4248937E-04 Eh
   gradient norm :     0.0035986 Eh/α   predicted    -0.3263970E-04 ( -23.18%)
   displ. norm   :     0.2138055 α      lambda       -0.6117629E-04
   maximum displ.:     0.1410474 α      in ANC's #1, #3, #7, ...

........................................................................
.............................. CYCLE   17 ..............................
........................................................................

 iter      E             dE          RMSdq      gap      omega  full diag
   1    -71.2431089 -0.712431E+02  0.396E-02    3.00       0.0  T
   2    -71.2431093 -0.438599E-06  0.237E-02    3.00       1.0  T
   3    -71.2431085  0.826873E-06  0.469E-03    3.00       3.3  T
   4    -71.2431096 -0.103844E-05  0.126E-03    3.00      12.1  T
   5    -71.2431096 -0.957051E-08  0.527E-04    3.00      29.0  T
   6    -71.2431096 -0.277488E-08  0.204E-04    3.00      74.7  T
     SCC iter.                  ...        0 min,  0.059 sec
     gradient                   ...        0 min,  0.028 sec
 * total energy  :   -70.3148264 Eh     change       -0.4859320E-04 Eh
   gradient norm :     0.0037136 Eh/α   predicted    -0.3198825E-04 ( -34.17%)
   displ. norm   :     0.2200677 α      lambda       -0.6278746E-04
   maximum displ.:     0.1486969 α      in ANC's #1, #3, #7, ...

........................................................................
.............................. CYCLE   18 ..............................
........................................................................

 iter      E             dE          RMSdq      gap      omega  full diag
   1    -71.2435151 -0.712435E+02  0.405E-02    3.01       0.0  T
   2    -71.2435156 -0.538301E-06  0.243E-02    3.01       1.0  T
   3    -71.2435137  0.189672E-05  0.701E-03    3.01       2.2  T
   4    -71.2435160 -0.224864E-05  0.129E-03    3.01      11.8  T
   5    -71.2435160 -0.535712E-08  0.620E-04    3.01      24.6  T
   6    -71.2435160 -0.306068E-08  0.215E-04    3.01      71.0  T
     SCC iter.                  ...        0 min,  0.014 sec
     gradient                   ...        0 min,  0.056 sec
 * total energy  :   -70.3148775 Eh     change       -0.5114499E-04 Eh
   gradient norm :     0.0030241 Eh/α   predicted    -0.3291835E-04 ( -35.64%)
   displ. norm   :     0.2181998 α      lambda       -0.5588479E-04
   maximum displ.:     0.1529095 α      in ANC's #1, #3, #7, ...

........................................................................
.............................. CYCLE   19 ..............................
........................................................................

 iter      E             dE          RMSdq      gap      omega  full diag
   1    -71.2435097 -0.712435E+02  0.395E-02    3.01       0.0  T
   2    -71.2435103 -0.611703E-06  0.237E-02    3.01       1.0  T
   3    -71.2435083  0.202604E-05  0.753E-03    3.01       2.0  T
   4    -71.2435107 -0.240977E-05  0.134E-03    3.01      11.4  T
   5    -71.2435107 -0.149128E-07  0.687E-04    3.01      22.2  T
   6    -71.2435107 -0.309636E-08  0.239E-04    3.01      63.7  T
     SCC iter.                  ...        0 min,  0.014 sec
     gradient                   ...        0 min,  0.061 sec
 * total energy  :   -70.3149204 Eh     change       -0.4294523E-04 Eh
   gradient norm :     0.0020326 Eh/α   predicted    -0.2927540E-04 ( -31.83%)
   displ. norm   :     0.1531395 α      lambda       -0.3062783E-04
   maximum displ.:     0.1136741 α      in ANC's #1, #3, #7, ...

........................................................................
.............................. CYCLE   20 ..............................
........................................................................

 iter      E             dE          RMSdq      gap      omega  full diag
   1    -71.2435885 -0.712436E+02  0.276E-02    3.01       0.0  T
   2    -71.2435888 -0.285264E-06  0.164E-02    3.01       1.0  T
   3    -71.2435881  0.662707E-06  0.440E-03    3.01       3.5  T
   4    -71.2435889 -0.802683E-06  0.925E-04    3.01      16.5  T
   5    -71.2435889 -0.107652E-07  0.461E-04    3.01      33.1  T
     SCC iter.                  ...        0 min,  0.012 sec
     gradient                   ...        0 min,  0.028 sec
 * total energy  :   -70.3149447 Eh     change       -0.2423261E-04 Eh
   gradient norm :     0.0017064 Eh/α   predicted    -0.1567474E-04 ( -35.32%)
   displ. norm   :     0.1499005 α      lambda       -0.1942622E-04
   maximum displ.:     0.1168121 α      in ANC's #1, #3, #7, ...
 * RMSD in coord.:     0.4507153 α      energy gain  -0.1362081E-01 Eh

generating ANC from exact Hessian ...
Using Lindh-Hessian (1995)
 Shifting diagonal of input Hessian by    9.8638347486253095E-003
 Lowest  eigenvalues of input Hessian
    0.000000    0.000000    0.000000    0.000000    0.000000    0.000000
    0.010000    0.010171    0.010468    0.011077    0.011337    0.012152
    0.012506    0.013234    0.014862    0.015377    0.015772    0.015935
 Highest eigenvalues
    2.054779    2.084047    2.150577    2.150943    2.254377    2.468020


........................................................................
.............................. CYCLE   21 ..............................
........................................................................

 iter      E             dE          RMSdq      gap      omega  full diag
   1    -71.2433000 -0.712433E+02  0.269E-02    3.01       0.0  T
   2    -71.2433002 -0.216806E-06  0.158E-02    3.01       1.0  T
   3    -71.2433001  0.142143E-06  0.248E-03    3.01       6.2  T
   4    -71.2433003 -0.212900E-06  0.775E-04    3.01      19.7  T
   5    -71.2433003 -0.813024E-08  0.377E-04    3.01      40.4  T
     SCC iter.                  ...        0 min,  0.033 sec
     gradient                   ...        0 min,  0.028 sec
 * total energy  :   -70.3149674 Eh     change       -0.2270315E-04 Eh
   gradient norm :     0.0017991 Eh/α   predicted     0.0000000E+00 (-100.00%)
   displ. norm   :     0.0381324 α      lambda       -0.1055096E-04
   maximum displ.:     0.0302404 α      in ANC's #1, #4, #9, ...

........................................................................
.............................. CYCLE   22 ..............................
........................................................................

 iter      E             dE          RMSdq      gap      omega  full diag
   1    -71.2435912 -0.712436E+02  0.761E-03    3.01       0.0  T
   2    -71.2435913 -0.755244E-07  0.460E-03    3.01       3.3  T
   3    -71.2435912  0.102681E-06  0.221E-03    3.01       6.9  T
   4    -71.2435913 -0.143123E-06  0.382E-04    3.01      39.9  T
   5    -71.2435913 -0.209847E-08  0.185E-04    3.01      82.6  T
     SCC iter.                  ...        0 min,  0.012 sec
     gradient                   ...        0 min,  0.061 sec
 * total energy  :   -70.3149810 Eh     change       -0.1360935E-04 Eh
   gradient norm :     0.0006587 Eh/α   predicted    -0.5611243E-05 ( -58.77%)
   displ. norm   :     0.0793282 α      lambda       -0.1509303E-04
   maximum displ.:     0.0594993 α      in ANC's #1, #4, #7, ...

........................................................................
.............................. CYCLE   23 ..............................
........................................................................

 iter      E             dE          RMSdq      gap      omega  full diag
   1    -71.2435759 -0.712436E+02  0.134E-02    3.01       0.0  T
   2    -71.2435761 -0.171232E-06  0.817E-03    3.01       1.9  T
   3    -71.2435757  0.322648E-06  0.367E-03    3.01       4.2  T
   4    -71.2435762 -0.419243E-06  0.661E-04    3.01      23.1  T
   5    -71.2435762 -0.790045E-08  0.313E-04    3.01      48.7  T
     SCC iter.                  ...        0 min,  0.012 sec
     gradient                   ...        0 min,  0.061 sec
 * total energy  :   -70.3149989 Eh     change       -0.1794312E-04 Eh
   gradient norm :     0.0011093 Eh/α   predicted    -0.7568019E-05 ( -57.82%)
   displ. norm   :     0.0927909 α      lambda       -0.1276694E-04
   maximum displ.:     0.0693688 α      in ANC's #1, #4, #8, ...

........................................................................
.............................. CYCLE   24 ..............................
........................................................................

 iter      E             dE          RMSdq      gap      omega  full diag
   1    -71.2435274 -0.712435E+02  0.146E-02    3.00       0.0  T
   2    -71.2435275 -0.680824E-07  0.874E-03    3.00       1.7  T
   3    -71.2435274  0.149997E-06  0.218E-03    3.00       7.0  T
   4    -71.2435275 -0.180842E-06  0.479E-04    3.00      31.8  T
   5    -71.2435275 -0.302383E-08  0.240E-04    3.00      63.6  T
     SCC iter.                  ...        0 min,  0.012 sec
     gradient                   ...        0 min,  0.027 sec
 * total energy  :   -70.3150152 Eh     change       -0.1629685E-04 Eh
   gradient norm :     0.0015257 Eh/α   predicted    -0.6412702E-05 ( -60.65%)
   displ. norm   :     0.0955527 α      lambda       -0.1231103E-04
   maximum displ.:     0.0719337 α      in ANC's #1, #4, #8, ...

........................................................................
.............................. CYCLE   25 ..............................
........................................................................

 iter      E             dE          RMSdq      gap      omega  full diag
   1    -71.2435287 -0.712435E+02  0.150E-02    3.00       0.0  T
   2    -71.2435287 -0.436816E-07  0.894E-03    3.00       1.7  T
   3    -71.2435287  0.199944E-07  0.103E-03    3.00      14.8  T
   4    -71.2435287 -0.328588E-07  0.466E-04    3.00      32.7  T
   5    -71.2435288 -0.441511E-08  0.171E-04    3.00      88.9  T
     SCC iter.                  ...        0 min,  0.012 sec
     gradient                   ...        0 min,  0.054 sec
 * total energy  :   -70.3150316 Eh     change       -0.1637756E-04 Eh
   gradient norm :     0.0012669 Eh/α   predicted    -0.6185627E-05 ( -62.23%)
   displ. norm   :     0.1010056 α      lambda       -0.1289131E-04
   maximum displ.:     0.0774815 α      in ANC's #1, #4, #8, ...

........................................................................
.............................. CYCLE   26 ..............................
........................................................................

 iter      E             dE          RMSdq      gap      omega  full diag
   1    -71.2434929 -0.712435E+02  0.157E-02    3.01       0.0  T
   2    -71.2434929 -0.666700E-07  0.949E-03    3.01       1.6  T
   3    -71.2434929  0.849726E-07  0.185E-03    3.01       8.3  T
   4    -71.2434930 -0.108446E-06  0.536E-04    3.01      28.5  T
   5    -71.2434930 -0.399338E-08  0.233E-04    3.01      65.6  T
     SCC iter.                  ...        0 min,  0.012 sec
     gradient                   ...        0 min,  0.063 sec
 * total energy  :   -70.3150485 Eh     change       -0.1691736E-04 Eh
   gradient norm :     0.0006874 Eh/α   predicted    -0.6479398E-05 ( -61.70%)
   displ. norm   :     0.0981868 α      lambda       -0.1151515E-04
   maximum displ.:     0.0781827 α      in ANC's #1, #4, #12, ...

........................................................................
.............................. CYCLE   27 ..............................
........................................................................

 iter      E             dE          RMSdq      gap      omega  full diag
   1    -71.2435390 -0.712435E+02  0.155E-02    3.01       0.0  T
   2    -71.2435391 -0.664582E-07  0.932E-03    3.01       1.6  T
   3    -71.2435390  0.117188E-06  0.212E-03    3.01       7.2  T
   4    -71.2435391 -0.146297E-06  0.558E-04    3.01      27.3  T
   5    -71.2435391 -0.303918E-08  0.241E-04    3.01      63.2  T
     SCC iter.                  ...        0 min,  0.012 sec
     gradient                   ...        0 min,  0.028 sec
 * total energy  :   -70.3150636 Eh     change       -0.1506112E-04 Eh
   gradient norm :     0.0004178 Eh/α   predicted    -0.5784029E-05 ( -61.60%)
   displ. norm   :     0.0802032 α      lambda       -0.8514013E-05
   maximum displ.:     0.0665790 α      in ANC's #1, #5, #12, ...

........................................................................
.............................. CYCLE   28 ..............................
........................................................................

 iter      E             dE          RMSdq      gap      omega  full diag
   1    -71.2435992 -0.712436E+02  0.122E-02    3.01       0.0  T
   2    -71.2435992 -0.339339E-07  0.733E-03    3.01       2.1  T
   3    -71.2435992  0.628150E-07  0.151E-03    3.01      10.1  T
   4    -71.2435992 -0.812807E-07  0.415E-04    3.01      36.8  T
   5    -71.2435992 -0.419732E-09  0.160E-04    3.01      95.1  T
     SCC iter.                  ...        0 min,  0.039 sec
     gradient                   ...        0 min,  0.028 sec
 * total energy  :   -70.3150751 Eh     change       -0.1155068E-04 Eh
   gradient norm :     0.0005527 Eh/α   predicted    -0.4272764E-05 ( -63.01%)
   displ. norm   :     0.0613313 α      lambda       -0.6545290E-05
   maximum displ.:     0.0529189 α      in ANC's #1, #5, #2, ...

........................................................................
.............................. CYCLE   29 ..............................
........................................................................

 iter      E             dE          RMSdq      gap      omega  full diag
   1    -71.2436775 -0.712437E+02  0.877E-03    3.01       0.0  T
   2    -71.2436775 -0.241094E-07  0.524E-03    3.01       2.9  T
   3    -71.2436775  0.303695E-07  0.112E-03    3.01      13.6  T
   4    -71.2436775 -0.403064E-07  0.356E-04    3.01      42.9  T
   5    -71.2436775 -0.145057E-08  0.141E-04    3.01     107.8  T
     SCC iter.                  ...        0 min,  0.012 sec
     gradient                   ...        0 min,  0.056 sec
 * total energy  :   -70.3150843 Eh     change       -0.9183514E-05 Eh
   gradient norm :     0.0005513 Eh/α   predicted    -0.3278511E-05 ( -64.30%)
   displ. norm   :     0.0516807 α      lambda       -0.5848410E-05
   maximum displ.:     0.0451712 α      in ANC's #1, #5, #2, ...

........................................................................
.............................. CYCLE   30 ..............................
........................................................................

 iter      E             dE          RMSdq      gap      omega  full diag
   1    -71.2437471 -0.712437E+02  0.702E-03    3.01       0.0  T
   2    -71.2437471 -0.285381E-07  0.407E-03    3.01       3.7  T
   3    -71.2437471  0.852233E-08  0.906E-04    3.01      16.8  T
   4    -71.2437471 -0.120215E-07  0.409E-04    3.01      37.3  T
     SCC iter.                  ...        0 min,  0.010 sec
     gradient                   ...        0 min,  0.027 sec
 * total energy  :   -70.3150926 Eh     change       -0.8316168E-05 Eh
   gradient norm :     0.0004478 Eh/α   predicted    -0.2927944E-05 ( -64.79%)
   displ. norm   :     0.0519219 α      lambda       -0.6013067E-05
   maximum displ.:     0.0442434 α      in ANC's #1, #5, #4, ...

........................................................................
.............................. CYCLE   31 ..............................
........................................................................

 iter      E             dE          RMSdq      gap      omega  full diag
   1    -71.2437719 -0.712438E+02  0.632E-03    3.01       0.0  T
   2    -71.2437719 -0.314868E-07  0.369E-03    3.01       4.1  T
   3    -71.2437719  0.123062E-07  0.999E-04    3.01      15.3  T
   4    -71.2437719 -0.171530E-07  0.410E-04    3.01      37.2  T
     SCC iter.                  ...        0 min,  0.009 sec
     gradient                   ...        0 min,  0.028 sec
 * total energy  :   -70.3151012 Eh     change       -0.8577747E-05 Eh
   gradient norm :     0.0003215 Eh/α   predicted    -0.3010361E-05 ( -64.90%)
   displ. norm   :     0.0584169 α      lambda       -0.6623990E-05
   maximum displ.:     0.0479149 α      in ANC's #1, #4, #2, ...

........................................................................
.............................. CYCLE   32 ..............................
........................................................................

 iter      E             dE          RMSdq      gap      omega  full diag
   1    -71.2437909 -0.712438E+02  0.684E-03    3.01       0.0  T
   2    -71.2437909 -0.358084E-07  0.390E-03    3.01       3.9  T
   3    -71.2437909  0.162312E-07  0.102E-03    3.01      14.9  T
   4    -71.2437909 -0.216414E-07  0.445E-04    3.01      34.3  T
   5    -71.2437909 -0.439519E-08  0.178E-04    3.01      85.5  T
     SCC iter.                  ...        0 min,  0.051 sec
     gradient                   ...        0 min,  0.028 sec
 * total energy  :   -70.3151107 Eh     change       -0.9454300E-05 Eh
   gradient norm :     0.0002973 Eh/α   predicted    -0.3317336E-05 ( -64.91%)
   displ. norm   :     0.0673424 α      lambda       -0.7301664E-05
   maximum displ.:     0.0536488 α      in ANC's #1, #4, #2, ...

........................................................................
.............................. CYCLE   33 ..............................
........................................................................

 iter      E             dE          RMSdq      gap      omega  full diag
   1    -71.2437760 -0.712438E+02  0.775E-03    3.01       0.0  T
   2    -71.2437761 -0.398446E-07  0.443E-03    3.01       3.4  T
   3    -71.2437761  0.222243E-07  0.110E-03    3.01      13.8  T
   4    -71.2437761 -0.312961E-07  0.451E-04    3.01      33.8  T
   5    -71.2437761 -0.324737E-08  0.190E-04    3.01      80.3  T
     SCC iter.                  ...        0 min,  0.012 sec
     gradient                   ...        0 min,  0.067 sec
 * total energy  :   -70.3151210 Eh     change       -0.1037642E-04 Eh
   gradient norm :     0.0003387 Eh/α   predicted    -0.3658477E-05 ( -64.74%)
   displ. norm   :     0.0730073 α      lambda       -0.7522540E-05
   maximum displ.:     0.0577043 α      in ANC's #1, #4, #2, ...

........................................................................
.............................. CYCLE   34 ..............................
........................................................................

 iter      E             dE          RMSdq      gap      omega  full diag
   1    -71.2437509 -0.712438E+02  0.834E-03    3.01       0.0  T
   2    -71.2437509 -0.370101E-07  0.480E-03    3.01       3.2  T
   3    -71.2437509  0.253817E-07  0.106E-03    3.01      14.4  T
   4    -71.2437509 -0.368635E-07  0.396E-04    3.01      38.5  T
   5    -71.2437509 -0.162406E-08  0.163E-04    3.01      93.4  T
     SCC iter.                  ...        0 min,  0.012 sec
     gradient                   ...        0 min,  0.061 sec
 * total energy  :   -70.3151317 Eh     change       -0.1068334E-04 Eh
   gradient norm :     0.0003549 Eh/α   predicted    -0.3773642E-05 ( -64.68%)
   displ. norm   :     0.0724650 α      lambda       -0.7181538E-05
   maximum displ.:     0.0577454 α      in ANC's #1, #2, #4, ...

........................................................................
.............................. CYCLE   35 ..............................
........................................................................

 iter      E             dE          RMSdq      gap      omega  full diag
   1    -71.2437252 -0.712437E+02  0.848E-03    3.01       0.0  T
   2    -71.2437252 -0.356242E-07  0.490E-03    3.01       3.1  T
   3    -71.2437252  0.337827E-07  0.111E-03    3.01      13.7  T
   4    -71.2437253 -0.469135E-07  0.376E-04    3.01      40.6  T
   5    -71.2437253 -0.104134E-08  0.167E-04    3.01      91.3  T
     SCC iter.                  ...        0 min,  0.012 sec
     gradient                   ...        0 min,  0.027 sec
 * total energy  :   -70.3151420 Eh     change       -0.1022260E-04 Eh
   gradient norm :     0.0003445 Eh/α   predicted    -0.3600157E-05 ( -64.78%)
   displ. norm   :     0.0672886 α      lambda       -0.6572604E-05
   maximum displ.:     0.0544583 α      in ANC's #1, #2, #4, ...

........................................................................
.............................. CYCLE   36 ..............................
........................................................................

 iter      E             dE          RMSdq      gap      omega  full diag
   1    -71.2437088 -0.712437E+02  0.790E-03    3.01       0.0  T
   2    -71.2437088 -0.305480E-07  0.460E-03    3.01       3.3  T
   3    -71.2437088  0.297310E-07  0.102E-03    3.01      14.9  T
   4    -71.2437088 -0.409232E-07  0.308E-04    3.01      49.4  T
   5    -71.2437088 -0.111592E-08  0.160E-04    3.01      95.5  T
     SCC iter.                  ...        0 min,  0.045 sec
     gradient                   ...        0 min,  0.028 sec
 * total energy  :   -70.3151514 Eh     change       -0.9444855E-05 Eh
   gradient norm :     0.0002972 Eh/α   predicted    -0.3293724E-05 ( -65.13%)
   displ. norm   :     0.0627401 α      lambda       -0.6183291E-05
   maximum displ.:     0.0512574 α      in ANC's #1, #2, #4, ...

........................................................................
.............................. CYCLE   37 ..............................
........................................................................

 iter      E             dE          RMSdq      gap      omega  full diag
   1    -71.2437024 -0.712437E+02  0.751E-03    3.01       0.0  T
   2    -71.2437024 -0.283079E-07  0.439E-03    3.01       3.5  T
   3    -71.2437024  0.294207E-07  0.102E-03    3.01      15.0  T
   4    -71.2437024 -0.397400E-07  0.296E-04    3.01      51.5  T
   5    -71.2437024 -0.142373E-08  0.159E-04    3.01      96.2  T
     SCC iter.                  ...        0 min,  0.012 sec
     gradient                   ...        0 min,  0.058 sec
 * total energy  :   -70.3151604 Eh     change       -0.8988343E-05 Eh
   gradient norm :     0.0002541 Eh/α   predicted    -0.3097848E-05 ( -65.53%)
   displ. norm   :     0.0623806 α      lambda       -0.6264826E-05
   maximum displ.:     0.0508449 α      in ANC's #1, #2, #3, ...

........................................................................
.............................. CYCLE   38 ..............................
........................................................................

 iter      E             dE          RMSdq      gap      omega  full diag
   1    -71.2436985 -0.712437E+02  0.764E-03    3.01       0.0  T
   2    -71.2436985 -0.290082E-07  0.448E-03    3.01       3.4  T
   3    -71.2436985  0.298017E-07  0.105E-03    3.01      14.6  T
   4    -71.2436985 -0.399648E-07  0.311E-04    3.01      49.1  T
   5    -71.2436985 -0.194075E-08  0.163E-04    3.01      93.7  T
     SCC iter.                  ...        0 min,  0.012 sec
     gradient                   ...        0 min,  0.029 sec
 * total energy  :   -70.3151696 Eh     change       -0.9167753E-05 Eh
   gradient norm :     0.0002338 Eh/α   predicted    -0.3138731E-05 ( -65.76%)
   displ. norm   :     0.0670803 α      lambda       -0.6790218E-05
   maximum displ.:     0.0539273 α      in ANC's #1, #2, #5, ...

........................................................................
.............................. CYCLE   39 ..............................
........................................................................

 iter      E             dE          RMSdq      gap      omega  full diag
   1    -71.2437025 -0.712437E+02  0.838E-03    3.01       0.0  T
   2    -71.2437025 -0.344005E-07  0.491E-03    3.01       3.1  T
   3    -71.2437025  0.370560E-07  0.117E-03    3.01      13.0  T
   4    -71.2437025 -0.491872E-07  0.354E-04    3.01      43.1  T
   5    -71.2437026 -0.241768E-08  0.183E-04    3.01      83.3  T
     SCC iter.                  ...        0 min,  0.014 sec
     gradient                   ...        0 min,  0.027 sec
 * total energy  :   -70.3151795 Eh     change       -0.9927930E-05 Eh
   gradient norm :     0.0002304 Eh/α   predicted    -0.3403649E-05 ( -65.72%)
   displ. norm   :     0.0756699 α      lambda       -0.7562249E-05
   maximum displ.:     0.0599614 α      in ANC's #1, #2, #5, ...

........................................................................
.............................. CYCLE   40 ..............................
........................................................................

 iter      E             dE          RMSdq      gap      omega  full diag
   1    -71.2437066 -0.712437E+02  0.953E-03    3.01       0.0  T
   2    -71.2437066 -0.412174E-07  0.559E-03    3.01       2.7  T
   3    -71.2437066  0.541754E-07  0.135E-03    3.01      11.3  T
   4    -71.2437066 -0.707054E-07  0.403E-04    3.01      37.9  T
   5    -71.2437066 -0.250606E-08  0.209E-04    3.01      73.0  T
     SCC iter.                  ...        0 min,  0.051 sec
     gradient                   ...        0 min,  0.028 sec
 * total energy  :   -70.3151905 Eh     change       -0.1098998E-04 Eh
   gradient norm :     0.0002429 Eh/α   predicted    -0.3792934E-05 ( -65.49%)
   displ. norm   :     0.0834976 α      lambda       -0.8079760E-05
   maximum displ.:     0.0658544 α      in ANC's #1, #2, #5, ...

........................................................................
.............................. CYCLE   41 ..............................
........................................................................

 iter      E             dE          RMSdq      gap      omega  full diag
   1    -71.2437204 -0.712437E+02  0.105E-02    3.01       0.0  T
   2    -71.2437204 -0.502340E-07  0.617E-03    3.01       2.5  T
   3    -71.2437204  0.702915E-07  0.151E-03    3.01      10.1  T
   4    -71.2437205 -0.910280E-07  0.451E-04    3.01      33.8  T
   5    -71.2437205 -0.253281E-08  0.229E-04    3.01      66.7  T
     SCC iter.                  ...        0 min,  0.012 sec
     gradient                   ...        0 min,  0.049 sec
 * total energy  :   -70.3152021 Eh     change       -0.1167582E-04 Eh
   gradient norm :     0.0002521 Eh/α   predicted    -0.4054351E-05 ( -65.28%)
   displ. norm   :     0.0855612 α      lambda       -0.7933006E-05
   maximum displ.:     0.0679386 α      in ANC's #1, #2, #5, ...

........................................................................
.............................. CYCLE   42 ..............................
........................................................................

 iter      E             dE          RMSdq      gap      omega  full diag
   1    -71.2437379 -0.712437E+02  0.106E-02    3.01       0.0  T
   2    -71.2437379 -0.509209E-07  0.622E-03    3.01       2.5  T
   3    -71.2437379  0.806569E-07  0.156E-03    3.01       9.8  T
   4    -71.2437380 -0.103274E-06  0.450E-04    3.01      33.9  T
   5    -71.2437380 -0.194635E-08  0.226E-04    3.01      67.3  T
     SCC iter.                  ...        0 min,  0.012 sec
     gradient                   ...        0 min,  0.028 sec
 * total energy  :   -70.3152136 Eh     change       -0.1144690E-04 Eh
   gradient norm :     0.0002452 Eh/α   predicted    -0.3980805E-05 ( -65.22%)
   displ. norm   :     0.0794013 α      lambda       -0.7102611E-05
   maximum displ.:     0.0641943 α      in ANC's #1, #2, #5, ...
 * RMSD in coord.:     0.2078780 α      energy gain  -0.2689149E-03 Eh

generating ANC from exact Hessian ...
Using Lindh-Hessian (1995)
 Shifting diagonal of input Hessian by    9.8624056659907360E-003
 Lowest  eigenvalues of input Hessian
    0.000000    0.000000    0.000000    0.000000    0.000000    0.000000
    0.010000    0.010170    0.010471    0.011082    0.011307    0.012175
    0.012496    0.013236    0.014869    0.015395    0.015789    0.015916
 Highest eigenvalues
    2.054850    2.084539    2.150984    2.151469    2.254810    2.467578


........................................................................
.............................. CYCLE   43 ..............................
........................................................................

 iter      E             dE          RMSdq      gap      omega  full diag
   1    -71.2437634 -0.712438E+02  0.968E-03    3.01       0.0  T
   2    -71.2437634 -0.437806E-07  0.566E-03    3.01       2.7  T
   3    -71.2437634  0.662429E-07  0.141E-03    3.01      10.8  T
   4    -71.2437634 -0.849809E-07  0.411E-04    3.01      37.1  T
   5    -71.2437634 -0.146571E-08  0.202E-04    3.01      75.6  T
     SCC iter.                  ...        0 min,  0.012 sec
     gradient                   ...        0 min,  0.028 sec
 * total energy  :   -70.3152239 Eh     change       -0.1030554E-04 Eh
   gradient norm :     0.0002357 Eh/α   predicted     0.0000000E+00 (-100.00%)
   displ. norm   :     0.0253080 α      lambda       -0.8403934E-07
   maximum displ.:     0.0246144 α      in ANC's #1, #6, #3, ...

........................................................................
.............................. CYCLE   44 ..............................
........................................................................

 iter      E             dE          RMSdq      gap      omega  full diag
   1    -71.2438258 -0.712438E+02  0.273E-03    3.01       0.0  T
   2    -71.2438258 -0.396864E-08  0.160E-03    3.01       9.5  T
   3    -71.2438258  0.101201E-08  0.313E-04    3.01      48.7  T
   4    -71.2438258 -0.133835E-08  0.126E-04    3.01     121.1  T
     SCC iter.                  ...        0 min,  0.049 sec
     gradient                   ...        0 min,  0.028 sec
 * total energy  :   -70.3152283 Eh     change       -0.4408921E-05 Eh
   gradient norm :     0.0001897 Eh/α   predicted    -0.1488933E-05 ( -66.23%)
   displ. norm   :     0.0308309 α      lambda       -0.3551019E-05
   maximum displ.:     0.0285364 α      in ANC's #1, #6, #3, ...

   *** GEOMETRY OPTIMIZATION CONVERGED AFTER 44 ITERATIONS ***

------------------------------------------------------------------------
 total energy gain   :        -0.0139044 Eh       -8.7252 kcal/mol
 total RMSD          :         0.5966341 a0        0.3157 Å
 total power (kW/mol):        -0.8296842 (step)  -10.3455 (real)
------------------------------------------------------------------------

 ANCopt (total)                0 d,  0 h,  0 min,  3.529 sec
 optimizer setup                ...        0 min,  0.000 sec (  0.002%)
 model hessian                  ...        0 min,  0.035 sec (  0.999%)
 ANC generation                 ...        0 min,  0.005 sec (  0.134%)
 coordinate transformation      ...        0 min,  0.000 sec (  0.013%)
 single point calculation       ...        0 min,  3.428 sec ( 97.141%)
 optimization log               ...        0 min,  0.054 sec (  1.517%)
 hessian update                 ...        0 min,  0.001 sec (  0.018%)
 rational function              ...        0 min,  0.003 sec (  0.073%)

================
 final structure:
================
43
 xtb: 6.7.1 (edcfbbe)
C           -1.53677294800787       -2.75706851161114       -1.95294362678660
C           -1.60500265492105       -1.33821506838650       -1.48186918666156
C           -2.82463477443481       -0.71741789330473       -1.19551671801055
O           -4.00643855433437       -1.42480533907189       -1.33352185260149
C           -4.56643877048563       -1.35228566808374       -2.62734723836491
C           -2.85341370341939        0.59830959678002       -0.72638217734598
C           -4.14601543182269        1.25136922553527       -0.34906115100256
C           -0.45729003038783       -0.57801383973132       -1.29719271729821
N           -0.46627935716409        0.67428602361329       -0.88975580455004
C           -1.62506810781227        1.25812897827776       -0.61285842104773
C           -1.52306338172276        2.64580490289911       -0.09460895799612
S           -1.33848779540933        2.57932046660226        1.77222856634601
C            0.27370760354568        1.79743625244713        1.69866977632537
N            1.39894166922152        2.38445513236973        1.42251249904000
C            2.34680356707271        1.39655340041072        1.52580172297350
C            1.72024085562386        0.17762644186987        1.89448118679976
N            0.38802724998919        0.48094385470332        2.00877437244058
C            2.45227110552382       -0.98098806533483        2.07247442656015
C            3.82029804191233       -0.91039396194399        1.88975222156785
C            4.45260619946515        0.29024387058005        1.53416814554522
O            5.80123512542275        0.41445321597401        1.35183387172540
C            6.62713352731831       -0.69922176735504        1.58154388129287
C            3.71929473430425        1.45430595704475        1.34367355811633
O           -2.21419007957206        1.49910764312451        2.24714161011710
H           -0.65448860860575       -3.24815924754071       -1.54872330378996
H           -2.42612723314353       -3.29958373172517       -1.64071132310357
H           -1.47139367590246       -2.79320603326954       -3.04120492532247
H           -5.48363158614893       -1.93763779924568       -2.59294172554373
H           -4.80297317208587       -0.31859640063832       -2.90320333043456
H           -3.89335102962791       -1.77277518185223       -3.38195348174897
H           -4.35720117972534        2.10335725918077       -0.99618763727922
H           -4.95910540587327        0.53491363965184       -0.42726915530492
H           -4.09199257900549        1.59905010461241        0.68042813468658
H            0.52222881617678       -0.99824153863663       -1.48622622751907
H           -0.61652451579675        3.13465630155239       -0.44039608069204
H           -2.40378510674679        3.24824115715814       -0.29900982465996
H           -0.38996906998561       -0.11710167219218        2.23759691118437
H            1.97967191931695       -1.91142412624814        2.34828403861439
H            4.40232395766918       -1.80745002567901        2.02848137247497
H            6.40826816978602       -1.51785403585486        0.88766935009690
H            6.54061819074262       -1.06170090454731        2.61138626401027
H            7.64414211753577       -0.34909747233296        1.41034390691876
H            4.21592590150281        2.36847486017358        1.06803905023161

 Bond Distances (Angstroems)
 ---------------------------
C1-C2=1.4966         C1-H25=1.0877        C1-H26=1.0875        C1-H27=1.0908        C2-C1=1.4966         C2-C3=1.3982         
C2-C8=1.3890         C3-C2=1.3982         C3-O4=1.3842         C3-C6=1.3972         O4-C3=1.3842         O4-C5=1.4117         
C5-O4=1.4117         C5-H28=1.0886        C5-H29=1.0957        C5-H30=1.0951        C6-C3=1.3972         C6-C7=1.4966         
C6-C10=1.3990        C7-C6=1.4966         C7-H31=1.0905        C7-H32=1.0865        C7-H33=1.0880        C8-C2=1.3890         
C8-N9=1.3169         C8-H34=1.0825        N9-C8=1.3169         N9-C10=1.3268        C10-C6=1.3990        C10-N9=1.3268        
C10-C11=1.4848       C11-C10=1.4848       C11-S12=1.8771       C11-H35=1.0864       C11-H36=1.0865       S12-C11=1.8771       
S12-C13=1.7933       S12-O24=1.4694       C13-S12=1.7933       C13-N14=1.2988       C13-N17=1.3573       N14-C13=1.2988       
N14-C15=1.3730       C15-N14=1.3730       C15-C16=1.4193       C15-C23=1.3857       C16-C15=1.4193       C16-N17=1.3711       
C16-C18=1.3820       N17-C13=1.3573       N17-C16=1.3711       N17-H37=1.0076       C18-C16=1.3820       C18-C19=1.3820       
C18-H38=1.0794       C19-C18=1.3820       C19-C20=1.4028       C19-H39=1.0783       C20-C19=1.4028       C20-O21=1.3666       
C20-C23=1.3889       O21-C20=1.3666       O21-C22=1.4054       C22-O21=1.4054       C22-H40=1.0952       C22-H41=1.0952       
C22-H42=1.0891       C23-C15=1.3857       C23-C20=1.3889       C23-H43=1.0763       O24-S12=1.4694       H25-C1=1.0877        
H26-C1=1.0875        H27-C1=1.0908        H28-C5=1.0886        H29-C5=1.0957        H30-C5=1.0951        H31-C7=1.0905        
H32-C7=1.0865        H33-C7=1.0880        H34-C8=1.0825        H35-C11=1.0864       H36-C11=1.0865       H37-N17=1.0076       
H38-C18=1.0794       H39-C19=1.0783       H40-C22=1.0952       H41-C22=1.0952       H42-C22=1.0891       H43-C23=1.0763       
 C  H  Rav=1.0877 sigma=0.0056  Rmin=1.0763  Rmax=1.0957    18
 C  C  Rav=1.4171 sigma=0.0426  Rmin=1.3820  Rmax=1.4966    13
 N  H  Rav=1.0076 sigma=0.0000  Rmin=1.0076  Rmax=1.0076     1
 N  C  Rav=1.3407 sigma=0.0281  Rmin=1.2988  Rmax=1.3730     6
 O  C  Rav=1.3920 sigma=0.0179  Rmin=1.3666  Rmax=1.4117     4
 S  C  Rav=1.8352 sigma=0.0419  Rmin=1.7933  Rmax=1.8771     2
 S  O  Rav=1.4694 sigma=0.0000  Rmin=1.4694  Rmax=1.4694     1

 selected bond angles (degree)
 --------------------
H25-C1-C2=110.37               H26-C1-C2=110.20               H26-C1-H25=109.35              H27-C1-C2=110.38               
H27-C1-H25=107.89              H27-C1-H26=108.60              C3-C2-C1=121.68                C8-C2-C1=121.54                
C8-C2-C3=116.78                O4-C3-C2=119.83                C6-C3-C2=120.32                C6-C3-O4=119.81                
C5-O4-C3=113.82                H28-C5-O4=106.12               H29-C5-O4=111.40               H29-C5-H28=109.47              
H30-C5-O4=111.59               H30-C5-H28=109.46              H30-C5-H29=108.75              C7-C6-C3=120.89                
C10-C6-C3=116.96               C10-C6-C7=122.15               H31-C7-C6=111.01               H32-C7-C6=109.90               
H32-C7-H31=109.12              H33-C7-C6=109.58               H33-C7-H31=108.75              H33-C7-H32=108.42              
N9-C8-C2=123.78                H34-C8-C2=120.80               H34-C8-N9=115.43               C10-N9-C8=119.27               
N9-C10-C6=122.85               C11-C10-C6=121.97              C11-C10-N9=115.09              

 selected dihedral angles (degree)
 ---------------------------------
C3-C2-C1-H25=215.54           C3-C2-C1-H26=336.42           C3-C2-C1-H27= 96.37           C8-C2-C1-H25= 34.98           
C8-C2-C1-H26=155.87           C8-C2-C1-H27=275.81           O4-C3-C2-C1=  0.67            O4-C3-C2-C8=181.20            
C6-C3-C2-C1=178.44            C6-C3-C2-C8=358.97            C5-O4-C3-C2=271.42            C5-O4-C3-C6= 93.64            
H28-C5-O4-C3=180.47           H29-C5-O4-C3=299.55           H30-C5-O4-C3= 61.31           C7-C6-C3-C2=183.17            
C7-C6-C3-O4=  0.94            C10-C6-C3-C2=  2.37           C10-C6-C3-O4=180.14           H31-C7-C6-C3=243.59           
H31-C7-C6-C10= 64.43          H32-C7-C6-C3=  4.40           H32-C7-C6-C10=185.25          H33-C7-C6-C3=123.44           
H33-C7-C6-C10=304.29          N9-C8-C2-C1=179.73            N9-C8-C2-C3=359.20            H34-C8-C2-C1=359.69           
H34-C8-C2-C3=179.16           C10-N9-C8-C2=  1.14           C10-N9-C8-H34=181.18          N9-C10-C6-C3=357.90           
N9-C10-C6-C7=177.08           C11-C10-C6-C3=181.56          C11-C10-C6-C7=  0.74          C6-C10-N9-C8=  0.38           
C11-C10-N9-C8=176.96          
           -------------------------------------------------
          |                Final Singlepoint                |
           -------------------------------------------------

          ...................................................
          :                      SETUP                      :
          :.................................................:
          :  # basis functions                 121          :
          :  # atomic orbitals                 120          :
          :  # shells                           68          :
          :  # electrons                       126          :
          :  max. iterations                   250          :
          :  Hamiltonian                  GFN2-xTB          :
          :  restarted?                      false          :
          :  GBSA solvation                  false          :
          :  PC potential                    false          :
          :  electronic temp.          300.0000000     K    :
          :  accuracy                    1.0000000          :
          :  -> integral cutoff          0.2500000E+02      :
          :  -> integral neglect         0.1000000E-07      :
          :  -> SCF convergence          0.1000000E-05 Eh   :
          :  -> wf. convergence          0.1000000E-03 e    :
          :  Broyden damping             0.4000000          :
          :  net charge                          0          :
          :  unpaired electrons                  0          :
          ...................................................

 iter      E             dE          RMSdq      gap      omega  full diag
   1    -71.2438258 -0.712438E+02  0.583E-05    3.01       0.0  T
   2    -71.2438258 -0.186020E-10  0.358E-05    3.01     426.5  T
   3    -71.2438258 -0.187015E-10  0.234E-05    3.01     653.0  T

   *** convergence criteria satisfied after 3 iterations ***

         #    Occupation            Energy/Eh            Energy/eV
      -------------------------------------------------------------
         1        2.0000           -0.7596061             -20.6699
       ...           ...                  ...                  ...
        57        2.0000           -0.4097858             -11.1508
        58        2.0000           -0.4033038             -10.9745
        59        2.0000           -0.3948570             -10.7446
        60        2.0000           -0.3854239             -10.4879
        61        2.0000           -0.3833788             -10.4323
        62        2.0000           -0.3733377             -10.1590
        63        2.0000           -0.3698481             -10.0641 (HOMO)
        64                         -0.2592344              -7.0541 (LUMO)
        65                         -0.2434826              -6.6255
        66                         -0.2378477              -6.4722
        67                         -0.2027393              -5.5168
        68                         -0.1980384              -5.3889
       ...                                ...                  ...
       120                          0.8982666              24.4431
      -------------------------------------------------------------
                  HL-Gap            0.1106137 Eh            3.0100 eV
             Fermi-level           -0.3145413 Eh           -8.5591 eV

 SCC (total)                   0 d,  0 h,  0 min,  0.044 sec
 SCC setup                      ...        0 min,  0.000 sec (  0.807%)
 Dispersion                     ...        0 min,  0.000 sec (  0.709%)
 classical contributions        ...        0 min,  0.000 sec (  0.350%)
 integral evaluation            ...        0 min,  0.009 sec ( 19.262%)
 iterations                     ...        0 min,  0.007 sec ( 16.037%)
 molecular gradient             ...        0 min,  0.028 sec ( 62.466%)
 printout                       ...        0 min,  0.000 sec (  0.351%)

         :::::::::::::::::::::::::::::::::::::::::::::::::::::
         ::                     SUMMARY                     ::
         :::::::::::::::::::::::::::::::::::::::::::::::::::::
         :: total energy             -70.315228308833 Eh    ::
         :: gradient norm              0.000191358234 Eh/a0 ::
         :: HOMO-LUMO gap              3.009951112909 eV    ::
         ::.................................................::
         :: SCC energy               -71.243278847938 Eh    ::
         :: -> isotropic ES            0.093321948349 Eh    ::
         :: -> anisotropic ES          0.005653980732 Eh    ::
         :: -> anisotropic XC          0.029064821570 Eh    ::
         :: -> dispersion             -0.051002258343 Eh    ::
         :: repulsion energy           0.928050539105 Eh    ::
         :: add. restraining           0.000000000000 Eh    ::
         :: total charge              -0.000000000000 e     ::
         :::::::::::::::::::::::::::::::::::::::::::::::::::::

           -------------------------------------------------
          |                Property Printout                |
           -------------------------------------------------

    * Orbital Energies and Occupations

         #    Occupation            Energy/Eh            Energy/eV
      -------------------------------------------------------------
         1        2.0000           -0.7596061             -20.6699
       ...           ...                  ...                  ...
        51        2.0000           -0.4501862             -12.2502
        52        2.0000           -0.4481805             -12.1956
        53        2.0000           -0.4370493             -11.8927
        54        2.0000           -0.4308725             -11.7246
        55        2.0000           -0.4227748             -11.5043
        56        2.0000           -0.4179782             -11.3738
        57        2.0000           -0.4097858             -11.1508
        58        2.0000           -0.4033038             -10.9745
        59        2.0000           -0.3948570             -10.7446
        60        2.0000           -0.3854239             -10.4879
        61        2.0000           -0.3833788             -10.4323
        62        2.0000           -0.3733377             -10.1590
        63        2.0000           -0.3698481             -10.0641 (HOMO)
        64                         -0.2592344              -7.0541 (LUMO)
        65                         -0.2434826              -6.6255
        66                         -0.2378477              -6.4722
        67                         -0.2027393              -5.5168
        68                         -0.1980384              -5.3889
        69                         -0.1810306              -4.9261
        70                         -0.1640678              -4.4645
        71                         -0.1153386              -3.1385
        72                         -0.0786368              -2.1398
        73                         -0.0554701              -1.5094
        74                          0.0152298               0.4144
       ...                                ...                  ...
       120                          0.8982666              24.4431
      -------------------------------------------------------------
                  HL-Gap            0.1106137 Eh            3.0100 eV
             Fermi-level           -0.3145413 Eh           -8.5591 eV

     #   Z          covCN         q      C6AA      α(0)
     1   6 C        3.757    -0.103    22.525     6.767
     2   6 C        2.957    -0.017    28.426     8.745
     3   6 C        2.896     0.136    25.034     8.203
     4   8 O        1.703    -0.307    19.111     5.902
     5   6 C        3.656     0.047    20.074     6.431
     6   6 C        2.959    -0.012    28.305     8.726
     7   6 C        3.757    -0.108    22.621     6.781
     8   6 C        2.909     0.042    27.052     8.529
     9   7 N        1.844    -0.251    27.397     7.757
    10   6 C        3.000     0.087    26.052     8.373
    11   6 C        3.801    -0.091    22.229     6.713
    12  16 S        2.875     0.418   125.183    18.831
    13   6 C        3.217     0.117    24.789     8.098
    14   7 N        1.896    -0.280    28.121     7.862
    15   6 C        3.226     0.072    25.652     8.229
    16   6 C        3.104     0.037    27.047     8.522
    17   7 N        2.798    -0.106    23.315     7.171
    18   6 C        2.907    -0.052    29.301     8.876
    19   6 C        2.924    -0.069    29.721     8.940
    20   6 C        2.865     0.136    25.021     8.199
    21   8 O        1.706    -0.270    18.471     5.803
[...]
     2021, 17, 4250-4261. DOI: 10.1021/acs.jctc.1c00471
   
   for ddCOSMO and CPCM-X implicit solvation:
   * M. Stahn, S. Ehlert, S. Grimme, J. Phys. Chem. A,
     2023, XX, XXXX-XXXX. DOI: 10.1021/acs.jpca.3c04382
   
   for DFT-D4:
   * E. Caldeweyher, C. Bannwarth and S. Grimme, J. Chem. Phys., 2017,
     147, 034112. DOI: 10.1063/1.4993215
   * E. Caldeweyher, S. Ehlert, A. Hansen, H. Neugebauer, S. Spicher,
     C. Bannwarth and S. Grimme, J. Chem. Phys., 2019, 150, 154122.
     DOI: 10.1063/1.5090222
   * E. Caldeweyher, J.-M. Mewes, S. Ehlert and S. Grimme, Phys. Chem. Chem. Phys.
     2020, 22, 8499-8512. DOI: 10.1039/D0CP00502A
   
   for sTDA-xTB:
   * S. Grimme and C. Bannwarth, J. Chem. Phys., 2016, 145, 054103.
     DOI: 10.1063/1.4959605
   
   in the mass-spec context:
   * V. Asgeirsson, C. Bauer and S. Grimme, Chem. Sci., 2017, 8, 4879.
     DOI: 10.1039/c7sc00601b
   * J. Koopman and S. Grimme, ACS Omega 2019, 4, 12, 15120-15133.
     DOI: 10.1021/acsomega.9b02011
   
   for metadynamics refer to:
   * S. Grimme, J. Chem. Theory Comput., 2019, 155, 2847-2862
     DOI: 10.1021/acs.jctc.9b00143
   
   for SPH calculations refer to:
   * S. Spicher and S. Grimme, J. Chem. Theory Comput., 2021, 17, 1701-1714
     DOI: 10.1021/acs.jctc.0c01306
   
   for ONIOM refer to:
   * C. Plett, A. Katbashev, S. Ehlert, S. Grimme, M. Bursch,
     Phys. Chem. Chem. Phys., 2023, 25, 17860-17868. DOI: 10.1039/D3CP02178E
   
   for DIPRO refer to:
   * J. Kohn, N. Gildemeister, S. Grimme, D. Fazzi, A. Hansen,
     J. Chem. Phys., 2023, just accepted.
   
   for PTB refer to:
   * S. Grimme, M. Mueller, A. Hansen, J. Chem. Phys., 2023, 158, 124111.
     DOI: 10.1063/5.0137838
   
   with help from (in alphabetical order)
   P. Atkinson, C. Bannwarth, F. Bohle, G. Brandenburg, E. Caldeweyher
   M. Checinski, S. Dohm, S. Ehlert, S. Ehrlich, I. Gerasimov, C. Hölzer
   A. Katbashev, J. Kohn, J. Koopman, C. Lavigne, S. Lehtola, F. März, M. Müller,
   F. Musil, H. Neugebauer, J. Pisarek, C. Plett, P. Pracht, F. Pultar,
   J. Seibert, P. Shushkov, S. Spicher, M. Stahn, M. Steiner, T. Strunk,
   J. Stückrath, T. Rose, and J. Unsleber
   
 * started run on 2025/05/15 at 16:34:47.928     
   ID    Z sym.   atoms
    1    6 C      1-3, 5-8, 10, 11, 13, 15, 16, 18-20, 22, 23
    2    8 O      4, 21, 24
    3    7 N      9, 14, 17
    4   16 S      12
    5    1 H      25-43

           -------------------------------------------------
          |                Calculation Setup                |
           -------------------------------------------------

          program call               : xtb /rds/general/user/hgt20/home/callum/QDESCP/Omeprazole_rdkit_conf_19/Omeprazole_rdkit_conf_19.xyz --acc 1 --gfn 2 --chrg 0 --uhf 2 --etemp 300 --input /rds/general/user/hgt20/home/callum/QDESCP/Omeprazole_rdkit_conf_19/Omeprazole_rdkit_conf_19_xtb.inp -P 1
          hostname                   : login-c
          coordinate file            : /rds/general/user/hgt20/home/callum/QDESCP/Omeprazole_rdkit_conf_19/Omeprazole_rdkit_conf_19.xyz
          omp threads                :                     1


           -------------------------------------------------
          |                 G F N 2 - x T B                 |
           -------------------------------------------------

        Reference                      10.1021/acs.jctc.8b01176
      * Hamiltonian:
        H0-scaling (s, p, d)           1.850000    2.230000    2.230000
        zeta-weighting                 0.500000
      * Dispersion:
        s8                             2.700000
        a1                             0.520000
        a2                             5.000000
        s9                             5.000000
      * Repulsion:
        kExp                           1.500000    1.000000
        rExp                           1.000000
      * Coulomb:
        alpha                          2.000000
        third order                    shell-resolved
        anisotropic                    true
        a3                             3.000000
        a5                             4.000000
        cn-shift                       1.200000
        cn-exp                         4.000000
        max-rad                        5.000000


          ...................................................
          :                      SETUP                      :
          :.................................................:
          :  # basis functions                 121          :
          :  # atomic orbitals                 120          :
          :  # shells                           68          :
          :  # electrons                       126          :
          :  max. iterations                   250          :
          :  Hamiltonian                  GFN2-xTB          :
          :  restarted?                      false          :
          :  GBSA solvation                  false          :
          :  PC potential                    false          :
          :  electronic temp.          300.0000000     K    :
          :  accuracy                    1.0000000          :
          :  -> integral cutoff          0.2500000E+02      :
          :  -> integral neglect         0.1000000E-07      :
          :  -> SCF convergence          0.1000000E-05 Eh   :
          :  -> wf. convergence          0.1000000E-03 e    :
          :  Broyden damping             0.4000000          :
          :  net charge                          0          :
          :  unpaired electrons                  2          :
          ...................................................

 iter      E             dE          RMSdq      gap      omega  full diag
   1    -70.9611780 -0.709612E+02  0.444E+00    0.40       0.0  T
   2    -70.9490640  0.121140E-01  0.305E+00    0.43       1.0  T
   3    -70.7894266  0.159637E+00  0.240E+00    1.05       1.0  T
   4    -71.0008888 -0.211462E+00  0.148E+00    0.45       1.0  T
   5    -71.0180820 -0.171932E-01  0.132E+00    0.49       1.0  T
   6    -71.1054836 -0.874016E-01  0.684E-01    0.41       1.0  T
   7    -71.1092506 -0.376700E-02  0.683E-01    0.39       1.0  T
   8    -71.1235413 -0.142907E-01  0.295E-01    0.41       1.0  T
   9    -71.1235622 -0.208461E-04  0.207E-01    0.41       1.0  T
  10    -71.1177555  0.580666E-02  0.284E-01    0.42       1.0  T
  11    -71.1145586  0.319692E-02  0.348E-01    0.38       1.0  T
  12    -71.1254172 -0.108585E-01  0.113E-01    0.41       1.0  T
  13    -71.1260564 -0.639273E-03  0.384E-02    0.40       1.0  T
  14    -71.1260664 -0.994790E-05  0.313E-02    0.40       1.0  T
  15    -71.1261392 -0.728370E-04  0.149E-02    0.40       1.0  T
  16    -71.1261464 -0.722539E-05  0.761E-03    0.40       2.0  T
  17    -71.1261494 -0.298446E-05  0.540E-03    0.40       2.8  T
  18    -71.1261516 -0.217505E-05  0.111E-03    0.40      13.8  T
  19    -71.1261514  0.232146E-06  0.177E-03    0.40       8.6  T
  20    -71.1261516 -0.274890E-06  0.277E-04    0.40      55.1  T
  21    -71.1261516 -0.608833E-08  0.762E-05    0.40     200.1  T

   *** convergence criteria satisfied after 21 iterations ***

         #    Occupation            Energy/Eh            Energy/eV
      -------------------------------------------------------------
         1        2.0000           -0.7509493             -20.4344
       ...           ...                  ...                  ...
        58        2.0000           -0.3982893             -10.8380
        59        2.0000           -0.3927611             -10.6876
        60        1.9971           -0.3824929             -10.4082
        61        1.9846           -0.3808800             -10.3643
        62        1.7661           -0.3780561             -10.2874
        63        1.2522           -0.3758964             -10.2287
        64        0.9995           -0.2532617              -6.8916 (HOMO)
        65        0.0005           -0.2386419              -6.4938 (LUMO)
        66        0.0000           -0.2326144              -6.3298
        67                         -0.2066535              -5.6233
        68                         -0.1959483              -5.3320
        69                         -0.1735948              -4.7238
       ...                                ...                  ...
       120                          0.9042994              24.6072
      -------------------------------------------------------------
                  HL-Gap            0.0146198 Eh            0.3978 eV
             Fermi-level           -0.3114409 Eh           -8.4747 eV

 transition dipole moment (au) for excitation:          63          64
     X       Y       Z   
  -0.7203   0.4672  -0.5882  total (au/Debye):    1.041   2.645
 dE (eV)             :    3.337
 oscillator strength :  0.12523E+00

 SCC (total)                   0 d,  0 h,  0 min,  0.171 sec
 SCC setup                      ...        0 min,  0.000 sec (  0.235%)
 Dispersion                     ...        0 min,  0.001 sec (  0.305%)
 classical contributions        ...        0 min,  0.000 sec (  0.093%)
 integral evaluation            ...        0 min,  0.046 sec ( 26.837%)
 iterations                     ...        0 min,  0.051 sec ( 29.663%)
 molecular gradient             ...        0 min,  0.065 sec ( 37.933%)
 printout                       ...        0 min,  0.008 sec (  4.929%)

         :::::::::::::::::::::::::::::::::::::::::::::::::::::
         ::                     SUMMARY                     ::
         :::::::::::::::::::::::::::::::::::::::::::::::::::::
         :: total energy             -70.197554153803 Eh    ::
         :: gradient norm              0.092708765444 Eh/a0 ::
         :: HOMO-LUMO gap              0.397825183432 eV    ::
         ::.................................................::
         :: SCC energy               -71.125604692908 Eh    ::
         :: -> isotropic ES            0.087517605702 Eh    ::
         :: -> anisotropic ES          0.005452116270 Eh    ::
         :: -> anisotropic XC          0.024406531042 Eh    ::
         :: -> dispersion             -0.050991696779 Eh    ::
         :: repulsion energy           0.928050539105 Eh    ::
         :: add. restraining           0.000000000000 Eh    ::
         :: total charge               0.000000000034 e     ::
         :::::::::::::::::::::::::::::::::::::::::::::::::::::

           -------------------------------------------------
          |                Property Printout                |
           -------------------------------------------------

    * Orbital Energies and Occupations

         #    Occupation            Energy/Eh            Energy/eV
      -------------------------------------------------------------
         1        2.0000           -0.7509493             -20.4344
       ...           ...                  ...                  ...
        52        2.0000           -0.4451886             -12.1142
        53        2.0000           -0.4415401             -12.0149
        54        2.0000           -0.4355832             -11.8528
        55        2.0000           -0.4184878             -11.3876
        56        2.0000           -0.4106179             -11.1735
        57        2.0000           -0.4032852             -10.9740
        58        2.0000           -0.3982893             -10.8380
        59        2.0000           -0.3927611             -10.6876
        60        1.9971           -0.3824929             -10.4082
        61        1.9846           -0.3808800             -10.3643
        62        1.7661           -0.3780561             -10.2874
        63        1.2522           -0.3758964             -10.2287
        64        0.9995           -0.2532617              -6.8916 (HOMO)
        65        0.0005           -0.2386419              -6.4938 (LUMO)
        66        0.0000           -0.2326144              -6.3298
        67                         -0.2066535              -5.6233
        68                         -0.1959483              -5.3320
        69                         -0.1735948              -4.7238
        70                         -0.1579268              -4.2974
        71                         -0.1090283              -2.9668
        72                         -0.0829155              -2.2562
        73                         -0.0489841              -1.3329
        74                          0.0118632               0.3228
        75                          0.0243130               0.6616
       ...                                ...                  ...
       120                          0.9042994              24.6072
      -------------------------------------------------------------
                  HL-Gap            0.0146198 Eh            0.3978 eV
             Fermi-level           -0.3114409 Eh           -8.4747 eV

     #   Z          covCN         q      C6AA      α(0)
     1   6 C        3.757    -0.101    22.482     6.760
     2   6 C        2.957    -0.023    28.586     8.770
     3   6 C        2.896     0.120    25.355     8.256
     4   8 O        1.703    -0.308    19.134     5.906
     5   6 C        3.656     0.047    20.079     6.432
     6   6 C        2.959    -0.006    28.177     8.707
     7   6 C        3.757    -0.107    22.599     6.778
     8   6 C        2.909     0.039    27.133     8.541
     9   7 N        1.844    -0.216    26.537     7.635
    10   6 C        3.000     0.067    26.480     8.441
    11   6 C        3.801    -0.087    22.154     6.701
    12  16 S        2.875     0.379   126.565    18.935
    13   6 C        3.217     0.099    25.166     8.159
    14   7 N        1.896    -0.287    28.292     7.886
    15   6 C        3.226     0.076    25.566     8.215
    16   6 C        3.104     0.055    26.629     8.456
    17   7 N        2.798    -0.106    23.323     7.173
    18   6 C        2.907    -0.062    29.534     8.911
    19   6 C        2.924    -0.076    29.907     8.968
    20   6 C        2.865     0.147    24.796     8.162
    21   8 O        1.706    -0.240    17.980     5.725
    22   6 C        3.642     0.032    20.378     6.490
    23   6 C        2.911    -0.074    29.841     8.958
    24   8 O        0.859    -0.477    23.276     6.468
    25   1 H        0.925     0.043     2.413     2.429
    26   1 H        0.925     0.060     2.202     2.321
    27   1 H        0.924     0.045     2.389     2.417
    28   1 H        0.925     0.056     2.251     2.346
    29   1 H        0.924     0.030     2.584     2.514
    30   1 H        0.924     0.031     2.579     2.512
    31   1 H        0.924     0.041     2.439     2.442
    32   1 H        0.925     0.062     2.177     2.308
    33   1 H        0.925     0.073     2.051     2.240
    34   1 H        0.925     0.041     2.431     2.438
    35   1 H        0.925     0.075     2.029     2.227
    36   1 H        0.925     0.062     2.178     2.308
    37   1 H        0.860     0.186     1.183     1.703
    38   1 H        0.926     0.035     2.517     2.481
    39   1 H        0.926     0.038     2.477     2.461
    40   1 H        0.924     0.050     2.324     2.384
    41   1 H        0.924     0.050     2.321     2.382
    42   1 H        0.925     0.069     2.100     2.266
    43   1 H        0.926     0.065     2.143     2.289

 Mol. C6AA /au·bohr⁶  :      23685.857976
 Mol. C8AA /au·bohr⁸  :     592402.371150
 Mol. α(0) /au        :        239.902273


Wiberg/Mayer (AO) data.
largest (>0.10) Wiberg bond orders for each atom

 ---------------------------------------------------------------------------
     #   Z sym  total        # sym  WBO       # sym  WBO       # sym  WBO
 ---------------------------------------------------------------------------
     1   6 C    3.988 --     2 C    1.024    26 H    0.979    25 H    0.979
                            27 H    0.965
     2   6 C    3.919 --     8 C    1.404     3 C    1.288     1 C    1.024
     3   6 C    3.890 --     6 C    1.394     2 C    1.288     4 O    0.994
     4   8 O    2.095 --     3 C    0.994     5 C    0.973
     5   6 C    3.945 --    28 H    0.980    29 H    0.979    30 H    0.979
                             4 O    0.973
     6   6 C    3.958 --     3 C    1.394    10 C    1.312     7 C    1.028
     7   6 C    3.987 --     6 C    1.028    32 H    0.977    31 H    0.967
                            33 H    0.964
     8   6 C    3.961 --     9 N    1.411     2 C    1.404    34 H    0.957
     9   7 N    3.083 --     8 C    1.411    10 C    1.304
    10   6 C    3.908 --     6 C    1.312     9 N    1.304    11 C    1.069
    11   6 C    3.936 --    10 C    1.069    35 H    0.967    36 H    0.965
                            12 S    0.758
    12  16 S    3.798 --    24 O    1.766    13 C    0.994    11 C    0.758
    13   6 C    3.892 --    14 N    1.446    17 N    1.139    12 S    0.994
    14   7 N    2.959 --    13 C    1.446    15 C    1.232
    15   6 C    3.954 --    23 C    1.336    14 N    1.232    16 C    1.191
    16   6 C    3.906 --    18 C    1.311    17 N    1.201    15 C    1.191
    17   7 N    3.509 --    16 C    1.201    13 C    1.139    37 H    0.933
    18   6 C    3.878 --    19 C    1.417    16 C    1.311    38 H    0.968
    19   6 C    3.882 --    18 C    1.417    20 C    1.317    39 H    0.966
    20   6 C    3.828 --    19 C    1.317    23 C    1.299    21 O    1.088
    21   8 O    2.212 --    20 C    1.088    22 C    0.986
    22   6 C    3.939 --    21 O    0.986    42 H    0.978    41 H    0.972
                            40 H    0.971
    23   6 C    3.829 --    15 C    1.336    20 C    1.299    43 H    0.964
    24   8 O    1.968 --    12 S    1.766
    25   1 H    0.995 --     1 C    0.979
    26   1 H    0.995 --     1 C    0.979
    27   1 H    0.992 --     1 C    0.965
    28   1 H    0.995 --     5 C    0.980
    29   1 H    0.999 --     5 C    0.979
    30   1 H    0.999 --     5 C    0.979
    31   1 H    0.997 --     7 C    0.967
    32   1 H    0.993 --     7 C    0.977
    33   1 H    0.994 --     7 C    0.964
    34   1 H    0.994 --     8 C    0.957
    35   1 H    0.994 --    11 C    0.967
    36   1 H    0.995 --    11 C    0.965
    37   1 H    0.965 --    17 N    0.933
    38   1 H    0.998 --    18 C    0.968
    39   1 H    0.998 --    19 C    0.966
    40   1 H    0.991 --    22 C    0.971
    41   1 H    0.991 --    22 C    0.972
    42   1 H    0.995 --    22 C    0.978
    43   1 H    0.995 --    23 C    0.964
 ---------------------------------------------------------------------------

Topologies differ in total number of bonds
Writing topology from bond orders to xtbtopo.mol

molecular dipole:
                 x           y           z       tot (Debye)
 q only:        0.851      -0.461      -0.709
   full:        0.617      -1.324      -0.976       4.465
molecular quadrupole (traceless):
                xx          xy          yy          xz          yz          zz
 q only:        9.657     -14.011      -1.036      16.413      -1.746      -8.621
  q+dip:       12.293     -17.171      -3.580      18.691      -5.947      -8.713
   full:       10.561     -17.948      -5.933      19.831      -5.983      -4.628


           -------------------------------------------------
          | TOTAL ENERGY              -70.197554153803 Eh   |
          | GRADIENT NORM               0.092708765444 Eh/α |
          | HOMO-LUMO GAP               0.397825183432 eV   |
           -------------------------------------------------

------------------------------------------------------------------------
 * finished run on 2025/05/15 at 16:34:48.114     
------------------------------------------------------------------------
 total:
 * wall-time:     0 d,  0 h,  0 min,  0.186 sec
 *  cpu-time:     0 d,  0 h,  0 min,  0.108 sec
 * ratio c/w:     0.583 speedup
 SCF:
 * wall-time:     0 d,  0 h,  0 min,  0.172 sec
 *  cpu-time:     0 d,  0 h,  0 min,  0.095 sec
 * ratio c/w:     0.554 speedup


