43
 energy: -70.315228308833 gnorm: 0.000191358234 xtb: 6.7.1 (edcfbbe)
C           -1.53677294800787       -2.75706851161114       -1.95294362678660
C           -1.60500265492105       -1.33821506838650       -1.48186918666156
C           -2.82463477443481       -0.71741789330473       -1.19551671801055
O           -4.00643855433437       -1.42480533907189       -1.33352185260149
C           -4.56643877048563       -1.35228566808374       -2.62734723836491
C           -2.85341370341939        0.59830959678002       -0.72638217734598
C           -4.14601543182269        1.25136922553527       -0.34906115100256
C           -0.45729003038783       -0.57801383973132       -1.29719271729821
N           -0.46627935716409        0.67428602361329       -0.88975580455004
C           -1.62506810781227        1.25812897827776       -0.61285842104773
C           -1.52306338172276        2.64580490289911       -0.09460895799612
S           -1.33848779540933        2.57932046660226        1.77222856634601
C            0.27370760354568        1.79743625244713        1.69866977632537
N            1.39894166922152        2.38445513236973        1.42251249904000
C            2.34680356707271        1.39655340041072        1.52580172297350
C            1.72024085562386        0.17762644186987        1.89448118679976
N            0.38802724998919        0.48094385470332        2.00877437244058
C            2.45227110552382       -0.98098806533483        2.07247442656015
C            3.82029804191233       -0.91039396194399        1.88975222156785
C            4.45260619946515        0.29024387058005        1.53416814554522
O            5.80123512542275        0.41445321597401        1.35183387172540
C            6.62713352731831       -0.69922176735504        1.58154388129287
C            3.71929473430425        1.45430595704475        1.34367355811633
O           -2.21419007957206        1.49910764312451        2.24714161011710
H           -0.65448860860575       -3.24815924754071       -1.54872330378996
H           -2.42612723314353       -3.29958373172517       -1.64071132310357
H           -1.47139367590246       -2.79320603326954       -3.04120492532247
H           -5.48363158614893       -1.93763779924568       -2.59294172554373
H           -4.80297317208587       -0.31859640063832       -2.90320333043456
H           -3.89335102962791       -1.77277518185223       -3.38195348174897
H           -4.35720117972534        2.10335725918077       -0.99618763727922
H           -4.95910540587327        0.53491363965184       -0.42726915530492
H           -4.09199257900549        1.59905010461241        0.68042813468658
H            0.52222881617678       -0.99824153863663       -1.48622622751907
H           -0.61652451579675        3.13465630155239       -0.44039608069204
H           -2.40378510674679        3.24824115715814       -0.29900982465996
H           -0.38996906998561       -0.11710167219218        2.23759691118437
H            1.97967191931695       -1.91142412624814        2.34828403861439
H            4.40232395766918       -1.80745002567901        2.02848137247497
H            6.40826816978602       -1.51785403585486        0.88766935009690
H            6.54061819074262       -1.06170090454731        2.61138626401027
H            7.64414211753577       -0.34909747233296        1.41034390691876
H            4.21592590150281        2.36847486017358        1.06803905023161
