57
 energy: -90.573743146413 gnorm: 0.000301361645 xtb: 6.7.1 (edcfbbe)
C            5.17222269248295       -1.78842045789877       -0.72289216844117
N            4.10962784083227       -0.86168137519455       -0.39114040063465
C            4.44936382440850        0.38860188941832       -0.00454224571754
N            5.72145852308576        0.71057007731215        0.03799823956624
C            6.04182784980913        1.96050485997558        0.41838570707718
C            5.14514700276808        2.92312149140963        0.75760721438391
C            3.74708559549247        2.61626503156366        0.72500894755571
N            3.48894673163351        1.28977379503356        0.32956261302889
O            2.80154156239653        3.33381501383542        0.98643834120436
C            2.75611297919330       -1.38181334756897       -0.51556636684688
C            1.91677947581765       -0.66656739039629       -1.58587726244478
C            0.55527248867459       -1.35121351739070       -1.68871828892873
C            1.99801863044988       -1.46920841547576        0.81758429792262
C            0.63229844054824       -2.11046089284273        0.58125579036776
N           -0.09418049845970       -1.30494015238671       -0.38638123330678
C           -1.46610327627149       -1.49902848443361       -0.37094443070518
N           -2.06965125208879       -2.53656759949628        0.13381730520236
C           -3.41269790413636       -2.28359008428324       -0.00343995345466
C           -3.59173225032517       -1.02557134379131       -0.62137634736922
N           -2.32241013315483       -0.54108305537009       -0.85857413172744
C           -2.01633249051484        0.81589850797733       -1.24044678159368
C           -2.37599928875961        1.77417463554333       -0.12938177855827
C           -1.78868227367508        1.61227659313753        1.12025427013655
C           -2.10706032822850        2.45848472555205        2.16449076948142
C           -3.02262927246828        3.47133529826132        1.94035895972034
F           -3.34433804932621        4.30014985464651        2.95324246976245
C           -3.62013833250618        3.65661055508653        0.70783781691538
C           -3.29066366912936        2.79810115798117       -0.32605276737647
C           -4.85020757568468       -0.51616082753230       -0.88654744380731
C           -5.93228942972514       -1.29491947525162       -0.52243294311781
C           -5.76523072088502       -2.53969792745499        0.08330710305699
C           -4.51241964379731       -3.05213799440090        0.35308108121606
H            5.13726792917421       -2.65625370367717       -0.06156591663939
H            6.12014933169319       -1.27365764193988       -0.59590783830410
H            5.07478000857287       -2.12142849900958       -1.75797585800086
H            7.10667418565263        2.15241461475381        0.43309144855846
H            5.44376940140068        3.91378944790928        1.05301163784960
H            2.50790402276840        1.04754355818790        0.31317807709584
H            2.88207756230416       -2.41375064302907       -0.86443787582076
H            2.43216462008135       -0.71919015608123       -2.54648705137007
H            1.76311597651830        0.38569338302204       -1.34854400017493
H            0.68988923792341       -2.39653398083707       -2.01228774599765
H           -0.06880846793726       -0.85273005878868       -2.43190255043944
H            2.57260385403326       -2.07220180838863        1.52204927247307
H            1.84695695607189       -0.48845603657406        1.26700358593934
H            0.75061453813526       -3.14446093161837        0.22661042080858
H            0.05266959712019       -2.13884118235163        1.50395053933813
H           -0.94537263862274        0.88608952852603       -1.44115746678484
H           -2.56725482677549        1.06436075129979       -2.15336341096688
H           -1.07993162664090        0.81188813316131        1.27379164528380
H           -1.65632905370403        2.34760997349260        3.13756147261314
H           -4.32870732188732        4.45760185754365        0.56925760584090
H           -3.74829428743831        2.93466440598117       -1.29503353212150
H           -4.98624188011867        0.44817161954102       -1.35170383918734
H           -6.93147066885002       -0.93101631859061       -0.71048118868717
H           -6.64145976937129       -3.11345396161482        0.34689310189049
H           -4.37960392854836       -4.01447349647070        0.82043308426345
