33
 energy: -50.365190965877 gnorm: 0.000853518942 xtb: 6.7.1 (edcfbbe)
C            2.59414283113496       -1.37019562740874       -2.26057258267463
N            1.66321469049827       -0.36294267023544       -1.82014322288944
C            1.96018838615946        0.70468387395633       -1.03644432381410
N            0.88875990975802        1.49483327286891       -0.74174943830822
C            0.96141153749533        2.48026820567516        0.30508003676467
C            0.88185162046118        1.88021666919651        1.70911906696954
S           -0.73768839117546        1.13856702807472        2.10575142159180
C           -0.61513415734794       -0.54205852189236        1.33569397621502
C           -1.57314489115931       -0.70329129933417        0.21972301096984
C           -2.91356786447659       -0.99704943547026        0.29178187850364
C           -3.80026555819135       -1.24562888586357        1.45369979689987
N           -3.35549390567745       -0.99892057533788       -1.00458041954797
C           -2.29836817107114       -0.71050187595639       -1.79499237655148
N           -1.21557260084466       -0.52555534014234       -1.09060205540615
N            3.11790628410148        1.07630067787871       -0.60274036662321
C            4.29125782643427        0.55895805211181       -0.75607435975089
N            5.39577386254630        0.22207937789288       -0.78291334378926
H            3.60705659529611       -0.97093015396209       -2.25031369379278
H            2.56504522142286       -2.25600185146200       -1.61529748855156
H            2.34322908578106       -1.66999758137801       -3.27946205259841
H            0.67487809381616       -0.58871627166214       -1.88550660028364
H           -0.01676032124280        1.07139553367677       -0.91115008575021
H            0.14638269518000        3.19315763285207        0.16114682051530
H            1.92002687760932        2.99760949800393        0.20928658200713
H            1.01454238638552        2.66239202767497        2.45543767952155
H            1.64871162412438        1.11927460654293        1.84979717260476
H            0.41133960753250       -0.67059360824756        1.00302667847383
H           -0.83871073593930       -1.24718909694233        2.13605021332735
H           -3.29088311795812       -1.86182821698622        2.19145525903238
H           -4.71214730618277       -1.74950715917607        1.14062156663735
H           -4.06661579685409       -0.30438941465811        1.93509809160292
H           -4.30054895962094       -1.18013015101868       -1.30151729134368
H           -2.35091735799494       -0.64440871927098       -2.86280954996150
