----- Optimization -----
      -----------------------------------------------------------      
     |                   =====================                   |     
     |                           x T B                           |     
     |                   =====================                   |     
     |                         S. Grimme                         |     
     |          Mulliken Center for Theoretical Chemistry        |     
     |                    University of Bonn                     |     
      -----------------------------------------------------------      

   * xtb version 6.7.1 (edcfbbe) compiled by 'conda@3ef47c1a292c' on 2024-11-25

   xtb is free software: you can redistribute it and/or modify it under
   the terms of the GNU Lesser General Public License as published by
   the Free Software Foundation, either version 3 of the License, or
   (at your option) any later version.
   
   xtb is distributed in the hope that it will be useful,
   but WITHOUT ANY WARRANTY; without even the implied warranty of
   MERCHANTABILITY or FITNESS FOR A PARTICULAR PURPOSE.  See the
   GNU Lesser General Public License for more details.
   
   Cite this work as:
   * C. Bannwarth, E. Caldeweyher, S. Ehlert, A. Hansen, P. Pracht,
     J. Seibert, S. Spicher, S. Grimme, WIREs Comput. Mol. Sci., 2020, 11,
     e01493. DOI: 10.1002/wcms.1493
   
   for GFN2-xTB:
   * C. Bannwarth, S. Ehlert and S. Grimme., J. Chem. Theory Comput., 2019,
     15, 1652-1671. DOI: 10.1021/acs.jctc.8b01176
   for GFN1-xTB:
   * S. Grimme, C. Bannwarth, P. Shushkov, J. Chem. Theory Comput., 2017,
     13, 1989-2009. DOI: 10.1021/acs.jctc.7b00118
   for GFN0-xTB:
   * P. Pracht, E. Caldeweyher, S. Ehlert, S. Grimme, ChemRxiv, 2019, preprint.
     DOI: 10.26434/chemrxiv.8326202.v1
   for GFN-FF:
   * S. Spicher and S. Grimme, Angew. Chem. Int. Ed., 2020, 59, 15665-15673.
     DOI: 10.1002/anie.202004239
   
   for ALPB and GBSA implicit solvation:
   * S. Ehlert, M. Stahn, S. Spicher, S. Grimme, J. Chem. Theory Comput.,
     2021, 17, 4250-4261. DOI: 10.1021/acs.jctc.1c00471
   
   for ddCOSMO and CPCM-X implicit solvation:
   * M. Stahn, S. Ehlert, S. Grimme, J. Phys. Chem. A,
     2023, XX, XXXX-XXXX. DOI: 10.1021/acs.jpca.3c04382
   
   for DFT-D4:
   * E. Caldeweyher, C. Bannwarth and S. Grimme, J. Chem. Phys., 2017,
     147, 034112. DOI: 10.1063/1.4993215
   * E. Caldeweyher, S. Ehlert, A. Hansen, H. Neugebauer, S. Spicher,
     C. Bannwarth and S. Grimme, J. Chem. Phys., 2019, 150, 154122.
     DOI: 10.1063/1.5090222
   * E. Caldeweyher, J.-M. Mewes, S. Ehlert and S. Grimme, Phys. Chem. Chem. Phys.
     2020, 22, 8499-8512. DOI: 10.1039/D0CP00502A
   
   for sTDA-xTB:
   * S. Grimme and C. Bannwarth, J. Chem. Phys., 2016, 145, 054103.
     DOI: 10.1063/1.4959605
   
   in the mass-spec context:
   * V. Asgeirsson, C. Bauer and S. Grimme, Chem. Sci., 2017, 8, 4879.
     DOI: 10.1039/c7sc00601b
   * J. Koopman and S. Grimme, ACS Omega 2019, 4, 12, 15120-15133.
     DOI: 10.1021/acsomega.9b02011
   
   for metadynamics refer to:
   * S. Grimme, J. Chem. Theory Comput., 2019, 155, 2847-2862
     DOI: 10.1021/acs.jctc.9b00143
   
   for SPH calculations refer to:
   * S. Spicher and S. Grimme, J. Chem. Theory Comput., 2021, 17, 1701-1714
     DOI: 10.1021/acs.jctc.0c01306
   
   for ONIOM refer to:
   * C. Plett, A. Katbashev, S. Ehlert, S. Grimme, M. Bursch,
     Phys. Chem. Chem. Phys., 2023, 25, 17860-17868. DOI: 10.1039/D3CP02178E
   
   for DIPRO refer to:
   * J. Kohn, N. Gildemeister, S. Grimme, D. Fazzi, A. Hansen,
     J. Chem. Phys., 2023, just accepted.
   
   for PTB refer to:
   * S. Grimme, M. Mueller, A. Hansen, J. Chem. Phys., 2023, 158, 124111.
     DOI: 10.1063/5.0137838
   
   with help from (in alphabetical order)
   P. Atkinson, C. Bannwarth, F. Bohle, G. Brandenburg, E. Caldeweyher
   M. Checinski, S. Dohm, S. Ehlert, S. Ehrlich, I. Gerasimov, C. Hölzer
   A. Katbashev, J. Kohn, J. Koopman, C. Lavigne, S. Lehtola, F. März, M. Müller,
   F. Musil, H. Neugebauer, J. Pisarek, C. Plett, P. Pracht, F. Pultar,
   J. Seibert, P. Shushkov, S. Spicher, M. Stahn, M. Steiner, T. Strunk,
   J. Stückrath, T. Rose, and J. Unsleber
   
 * started run on 2025/05/15 at 16:19:56.359     
   ID    Z sym.   atoms
    1    6 C      1, 3, 5, 6, 8-11, 13, 16
    2    7 N      2, 4, 12, 14, 15, 17
    3   16 S      7
    4    1 H      18-33

           -------------------------------------------------
          |                Calculation Setup                |
           -------------------------------------------------

          program call               : xtb /rds/general/user/hgt20/home/callum/QDESCP/Cimetadine_rdkit_conf_1/Cimetadine_rdkit_conf_1.xyz --opt normal --acc 1 --gfn 2 --chrg 0 --uhf 0 -P 1
          hostname                   : login-c
          coordinate file            : /rds/general/user/hgt20/home/callum/QDESCP/Cimetadine_rdkit_conf_1/Cimetadine_rdkit_conf_1.xyz
          omp threads                :                     1


           -------------------------------------------------
          |                 G F N 2 - x T B                 |
           -------------------------------------------------

        Reference                      10.1021/acs.jctc.8b01176
      * Hamiltonian:
        H0-scaling (s, p, d)           1.850000    2.230000    2.230000
        zeta-weighting                 0.500000
      * Dispersion:
        s8                             2.700000
        a1                             0.520000
        a2                             5.000000
        s9                             5.000000
      * Repulsion:
        kExp                           1.500000    1.000000
        rExp                           1.000000
      * Coulomb:
        alpha                          2.000000
        third order                    shell-resolved
        anisotropic                    true
        a3                             3.000000
        a5                             4.000000
        cn-shift                       1.200000
        cn-exp                         4.000000
        max-rad                        5.000000


          ...................................................
          :                      SETUP                      :
          :.................................................:
          :  # basis functions                  90          :
          :  # atomic orbitals                  89          :
          :  # shells                           51          :
          :  # electrons                        92          :
          :  max. iterations                   250          :
          :  Hamiltonian                  GFN2-xTB          :
          :  restarted?                      false          :
          :  GBSA solvation                  false          :
          :  PC potential                    false          :
          :  electronic temp.          300.0000000     K    :
          :  accuracy                    1.0000000          :
          :  -> integral cutoff          0.2500000E+02      :
          :  -> integral neglect         0.1000000E-07      :
          :  -> SCF convergence          0.1000000E-05 Eh   :
          :  -> wf. convergence          0.1000000E-03 e    :
          :  Broyden damping             0.4000000          :
          :  net charge                          0          :
          :  unpaired electrons                  0          :
          ...................................................

 iter      E             dE          RMSdq      gap      omega  full diag
   1    -50.9061367 -0.509061E+02  0.418E+00    3.75       0.0  T
   2    -51.0001305 -0.939938E-01  0.266E+00    3.58       1.0  T
   3    -51.0014865 -0.135599E-02  0.153E+00    3.42       1.0  T
   4    -51.0149052 -0.134188E-01  0.724E-01    3.24       1.0  T
   5    -51.0267274 -0.118221E-01  0.179E-01    3.25       1.0  T
   6    -51.0267629 -0.355600E-04  0.101E-01    3.27       1.0  T
   7    -51.0268856 -0.122612E-03  0.342E-02    3.27       1.0  T
   8    -51.0268985 -0.129665E-04  0.135E-02    3.27       1.3  T
   9    -51.0268997 -0.119291E-05  0.521E-03    3.27       3.3  T
  10    -51.0268998 -0.411886E-07  0.189E-03    3.27       9.2  T
  11    -51.0268998 -0.317158E-07  0.797E-04    3.27      21.8  T
  12    -51.0268998 -0.726575E-08  0.339E-04    3.27      51.4  T

   *** convergence criteria satisfied after 12 iterations ***

         #    Occupation            Energy/Eh            Energy/eV
      -------------------------------------------------------------
         1        2.0000           -0.7172248             -19.5167
       ...           ...                  ...                  ...
        40        2.0000           -0.4207296             -11.4486
        41        2.0000           -0.4032240             -10.9723
        42        2.0000           -0.3846513             -10.4669
        43        2.0000           -0.3826501             -10.4124
        44        2.0000           -0.3664672              -9.9721
        45        2.0000           -0.3599681              -9.7952
        46        2.0000           -0.3579427              -9.7401 (HOMO)
        47                         -0.2377162              -6.4686 (LUMO)
        48                         -0.2224276              -6.0526
        49                         -0.2055796              -5.5941
        50                         -0.1954298              -5.3179
        51                         -0.1444480              -3.9306
       ...                                ...                  ...
        89                          1.1798216              32.1046
      -------------------------------------------------------------
                  HL-Gap            0.1202265 Eh            3.2715 eV
             Fermi-level           -0.2978294 Eh           -8.1044 eV

 SCC (total)                   0 d,  0 h,  0 min,  0.039 sec
 SCC setup                      ...        0 min,  0.000 sec (  0.629%)
 Dispersion                     ...        0 min,  0.000 sec (  0.715%)
 classical contributions        ...        0 min,  0.000 sec (  0.235%)
 integral evaluation            ...        0 min,  0.006 sec ( 14.513%)
 iterations                     ...        0 min,  0.017 sec ( 44.411%)
 molecular gradient             ...        0 min,  0.015 sec ( 39.177%)
 printout                       ...        0 min,  0.000 sec (  0.305%)

         :::::::::::::::::::::::::::::::::::::::::::::::::::::
         ::                     SUMMARY                     ::
         :::::::::::::::::::::::::::::::::::::::::::::::::::::
         :: total energy             -50.353765380615 Eh    ::
         :: gradient norm              0.065848459849 Eh/a0 ::
         :: HOMO-LUMO gap              3.271529910624 eV    ::
         ::.................................................::
         :: SCC energy               -51.026410499576 Eh    ::
         :: -> isotropic ES            0.059556581945 Eh    ::
         :: -> anisotropic ES          0.008578301700 Eh    ::
         :: -> anisotropic XC          0.042835799661 Eh    ::
         :: -> dispersion             -0.034671677014 Eh    ::
         :: repulsion energy           0.672645118961 Eh    ::
         :: add. restraining           0.000000000000 Eh    ::
         :: total charge              -0.000000000000 e     ::
         :::::::::::::::::::::::::::::::::::::::::::::::::::::

      ----------------------------------------------------------- 
     |                   =====================                   |
     |                        A N C O P T                        |
     |                   =====================                   |
     |               Approximate Normal Coordinate               |
     |                Rational Function Optimizer                |
      ----------------------------------------------------------- 
      ----------------------------------------------------------- 
     |                   =====================                   |
     |                        A N C O P T                        |
     |                   =====================                   |
     |               Approximate Normal Coordinate               |
     |                Rational Function Optimizer                |
      ----------------------------------------------------------- 

          ...................................................
          :                      SETUP                      :
          :.................................................:
          :   optimization level            normal          :
          :   max. optcycles                   200          :
          :   ANC micro-cycles                  20          :
          :   degrees of freedom                93          :
          :.................................................:
          :   RF solver                   davidson          :
          :   write xtbopt.log                true          :
          :   linear?                        false          :
          :   energy convergence         0.5000000E-05 Eh   :
          :   grad. convergence          0.1000000E-02 Eh/α :
          :   maxmium RF displ.          1.0000000          :
          :   Hlow (freq-cutoff)         0.1000000E-01      :
          :   Hmax (freq-cutoff)         5.0000000          :
          :   S6 in model hess.         20.0000000          :
          ...................................................

generating ANC from exact Hessian ...
Using Lindh-Hessian (1995)
 Shifting diagonal of input Hessian by    9.5799186691289881E-003
 Lowest  eigenvalues of input Hessian
    0.000000    0.000000    0.000000    0.000000    0.000000    0.000000
    0.010000    0.010418    0.010824    0.011861    0.012453    0.013262
    0.013698    0.015850    0.016787    0.017215    0.018261    0.020368
 Highest eigenvalues
    1.866642    2.027291    2.066178    2.121232    2.271551    2.734131


........................................................................
.............................. CYCLE    1 ..............................
........................................................................

 iter      E             dE          RMSdq      gap      omega  full diag
   1    -51.0268998 -0.510269E+02  0.976E-05    3.27       0.0  T
   2    -51.0268998 -0.677858E-10  0.549E-05    3.27     317.2  T
   3    -51.0268998 -0.103597E-10  0.337E-05    3.27     516.1  T
     SCC iter.                  ...        0 min,  0.005 sec
     gradient                   ...        0 min,  0.038 sec
 * total energy  :   -50.3537654 Eh     change       -0.5301999E-09 Eh
   gradient norm :     0.0658477 Eh/α   predicted     0.0000000E+00 (-100.00%)
   displ. norm   :     0.3328029 α      lambda       -0.1023011E-01
   maximum displ.:     0.1537331 α      in ANC's #12, #5, #7, ...

........................................................................
.............................. CYCLE    2 ..............................
........................................................................

 iter      E             dE          RMSdq      gap      omega  full diag
   1    -51.0541733 -0.510542E+02  0.424E-01    3.37       0.0  T
   2    -51.0543669 -0.193602E-03  0.247E-01    3.34       1.0  T
   3    -51.0539057  0.461265E-03  0.148E-01    3.35       1.0  T
   4    -51.0544876 -0.581928E-03  0.197E-02    3.35       1.0  T
   5    -51.0544953 -0.772852E-05  0.676E-03    3.35       2.6  T
   6    -51.0544955 -0.168967E-06  0.336E-03    3.35       5.2  T
   7    -51.0544956 -0.122594E-06  0.107E-03    3.35      16.2  T
   8    -51.0544956 -0.157794E-07  0.389E-04    3.35      44.8  T
   9    -51.0544956 -0.290648E-09  0.155E-04    3.35     112.6  T
     SCC iter.                  ...        0 min,  0.013 sec
     gradient                   ...        0 min,  0.015 sec
 * total energy  :   -50.3598339 Eh     change       -0.6068528E-02 Eh
   gradient norm :     0.0375115 Eh/α   predicted    -0.5681597E-02 (  -6.38%)
   displ. norm   :     0.4059038 α      lambda       -0.7461126E-02
   maximum displ.:     0.1970138 α      in ANC's #6, #11, #16, ...

........................................................................
.............................. CYCLE    3 ..............................
........................................................................

 iter      E             dE          RMSdq      gap      omega  full diag
   1    -51.0923937 -0.510924E+02  0.465E-01    3.27       0.0  T
   2    -51.0925915 -0.197790E-03  0.262E-01    3.25       1.0  T
   3    -51.0921949  0.396549E-03  0.160E-01    3.28       1.0  T
   4    -51.0927593 -0.564316E-03  0.181E-02    3.28       1.0  T
   5    -51.0927654 -0.613709E-05  0.643E-03    3.28       2.7  T
   6    -51.0927653  0.664918E-07  0.292E-03    3.28       6.0  T
   7    -51.0927655 -0.169153E-06  0.764E-04    3.28      22.8  T
   8    -51.0927655 -0.598809E-08  0.290E-04    3.28      60.0  T
     SCC iter.                  ...        0 min,  0.011 sec
     gradient                   ...        0 min,  0.015 sec
 * total energy  :   -50.3595427 Eh     change        0.2911876E-03 Eh
   gradient norm :     0.0663096 Eh/α   predicted    -0.4345262E-02 (*******%)
   displ. norm   :     0.2113790 α      lambda       -0.4891307E-02
   maximum displ.:     0.1112595 α      in ANC's #7, #5, #18, ...

........................................................................
.............................. CYCLE    4 ..............................
........................................................................

 iter      E             dE          RMSdq      gap      omega  full diag
   1    -51.0762854 -0.510763E+02  0.297E-01    3.32       0.0  T
   2    -51.0763544 -0.690671E-04  0.166E-01    3.31       1.0  T
   3    -51.0762791  0.753159E-04  0.606E-02    3.27       1.0  T
   4    -51.0763723 -0.931836E-04  0.145E-02    3.28       1.2  T
   5    -51.0763767 -0.442783E-05  0.451E-03    3.28       3.9  T
   6    -51.0763767 -0.236195E-07  0.206E-03    3.28       8.4  T
   7    -51.0763768 -0.595246E-07  0.772E-04    3.28      22.6  T
   8    -51.0763768 -0.559006E-08  0.308E-04    3.28      56.5  T
     SCC iter.                  ...        0 min,  0.011 sec
     gradient                   ...        0 min,  0.015 sec
 * total energy  :   -50.3628515 Eh     change       -0.3308742E-02 Eh
   gradient norm :     0.0113622 Eh/α   predicted    -0.2554931E-02 ( -22.78%)
   displ. norm   :     0.2716709 α      lambda       -0.1467754E-02
   maximum displ.:     0.1526448 α      in ANC's #7, #5, #12, ...

........................................................................
.............................. CYCLE    5 ..............................
........................................................................

 iter      E             dE          RMSdq      gap      omega  full diag
   1    -51.0652026 -0.510652E+02  0.275E-01    3.30       0.0  T
   2    -51.0652677 -0.650122E-04  0.154E-01    3.28       1.0  T
   3    -51.0652686 -0.895241E-06  0.215E-02    3.25       1.0  T
   4    -51.0652750 -0.645083E-05  0.121E-02    3.26       1.4  T
   5    -51.0652782 -0.320153E-05  0.395E-03    3.26       4.4  T
   6    -51.0652783 -0.798455E-07  0.180E-03    3.26       9.7  T
   7    -51.0652783 -0.467435E-07  0.563E-04    3.26      30.9  T
   8    -51.0652783 -0.292125E-08  0.266E-04    3.26      65.4  T
     SCC iter.                  ...        0 min,  0.012 sec
     gradient                   ...        0 min,  0.015 sec
 * total energy  :   -50.3634939 Eh     change       -0.6423922E-03 Eh
   gradient norm :     0.0346636 Eh/α   predicted    -0.7880497E-03 (  22.67%)
   displ. norm   :     0.1513123 α      lambda       -0.7668337E-03
   maximum displ.:     0.0701790 α      in ANC's #6, #7, #5, ...

........................................................................
.............................. CYCLE    6 ..............................
........................................................................

 iter      E             dE          RMSdq      gap      omega  full diag
   1    -51.0689938 -0.510690E+02  0.832E-02    3.24       0.0  T
   2    -51.0690024 -0.850527E-05  0.456E-02    3.24       1.0  T
   3    -51.0690006  0.172791E-05  0.134E-02    3.25       1.3  T
   4    -51.0690031 -0.249325E-05  0.567E-03    3.25       3.1  T
   5    -51.0690039 -0.778757E-06  0.177E-03    3.25       9.8  T
   6    -51.0690039 -0.152113E-07  0.429E-04    3.25      40.5  T
   7    -51.0690039 -0.175334E-08  0.221E-04    3.25      78.6  T
     SCC iter.                  ...        0 min,  0.010 sec
     gradient                   ...        0 min,  0.015 sec
 * total energy  :   -50.3640559 Eh     change       -0.5620457E-03 Eh
   gradient norm :     0.0142811 Eh/α   predicted    -0.3922026E-03 ( -30.22%)
   displ. norm   :     0.3112612 α      lambda       -0.6917146E-03
   maximum displ.:     0.1573189 α      in ANC's #5, #7, #12, ...

........................................................................
.............................. CYCLE    7 ..............................
........................................................................

 iter      E             dE          RMSdq      gap      omega  full diag
   1    -51.0714267 -0.510714E+02  0.141E-01    3.25       0.0  T
   2    -51.0714348 -0.813639E-05  0.782E-02    3.25       1.0  T
   3    -51.0714259  0.893346E-05  0.227E-02    3.25       1.0  T
   4    -51.0714382 -0.123402E-04  0.621E-03    3.25       2.8  T
   5    -51.0714385 -0.234481E-06  0.200E-03    3.24       8.7  T
   6    -51.0714385 -0.456285E-07  0.688E-04    3.25      25.3  T
   7    -51.0714385 -0.646023E-08  0.330E-04    3.25      52.8  T
     SCC iter.                  ...        0 min,  0.010 sec
     gradient                   ...        0 min,  0.015 sec
 * total energy  :   -50.3645215 Eh     change       -0.4655503E-03 Eh
   gradient norm :     0.0076160 Eh/α   predicted    -0.3793672E-03 ( -18.51%)
   displ. norm   :     0.2062387 α      lambda       -0.2632336E-03
   maximum displ.:     0.1268312 α      in ANC's #5, #7, #15, ...

........................................................................
.............................. CYCLE    8 ..............................
........................................................................

 iter      E             dE          RMSdq      gap      omega  full diag
   1    -51.0744583 -0.510745E+02  0.965E-02    3.26       0.0  T
   2    -51.0744628 -0.449042E-05  0.533E-02    3.27       1.0  T
   3    -51.0744593  0.347767E-05  0.144E-02    3.27       1.2  T
   4    -51.0744643 -0.501362E-05  0.430E-03    3.27       4.0  T
   5    -51.0744645 -0.188906E-06  0.183E-03    3.27       9.5  T
   6    -51.0744645 -0.350842E-07  0.560E-04    3.27      31.1  T
   7    -51.0744645 -0.519731E-08  0.234E-04    3.27      74.3  T
     SCC iter.                  ...        0 min,  0.010 sec
     gradient                   ...        0 min,  0.015 sec
 * total energy  :   -50.3647050 Eh     change       -0.1835261E-03 Eh
   gradient norm :     0.0042560 Eh/α   predicted    -0.1372175E-03 ( -25.23%)
   displ. norm   :     0.1557285 α      lambda       -0.1234673E-03
   maximum displ.:     0.1070754 α      in ANC's #5, #7, #15, ...

........................................................................
.............................. CYCLE    9 ..............................
........................................................................

 iter      E             dE          RMSdq      gap      omega  full diag
   1    -51.0760361 -0.510760E+02  0.739E-02    3.29       0.0  T
   2    -51.0760395 -0.338564E-05  0.408E-02    3.29       1.0  T
   3    -51.0760395 -0.651214E-07  0.664E-03    3.29       2.6  T
   4    -51.0760402 -0.669597E-06  0.270E-03    3.29       6.4  T
   5    -51.0760403 -0.814024E-07  0.142E-03    3.29      12.3  T
   6    -51.0760403 -0.236459E-07  0.467E-04    3.29      37.3  T
   7    -51.0760403 -0.398339E-08  0.206E-04    3.29      84.3  T
     SCC iter.                  ...        0 min,  0.010 sec
     gradient                   ...        0 min,  0.057 sec
 * total energy  :   -50.3647879 Eh     change       -0.8293495E-04 Eh
   gradient norm :     0.0025736 Eh/α   predicted    -0.6323231E-04 ( -23.76%)
   displ. norm   :     0.0943527 α      lambda       -0.4868073E-04
   maximum displ.:     0.0651780 α      in ANC's #5, #15, #4, ...

........................................................................
.............................. CYCLE   10 ..............................
........................................................................

 iter      E             dE          RMSdq      gap      omega  full diag
   1    -51.0768539 -0.510769E+02  0.379E-02    3.30       0.0  T
   2    -51.0768548 -0.895934E-06  0.210E-02    3.31       1.0  T
   3    -51.0768545  0.317405E-06  0.501E-03    3.31       3.5  T
   4    -51.0768550 -0.506099E-06  0.201E-03    3.31       8.7  T
   5    -51.0768550 -0.695513E-07  0.766E-04    3.31      22.7  T
   6    -51.0768550 -0.467139E-08  0.271E-04    3.31      64.2  T
     SCC iter.                  ...        0 min,  0.008 sec
     gradient                   ...        0 min,  0.015 sec
 * total energy  :   -50.3648218 Eh     change       -0.3385281E-04 Eh
   gradient norm :     0.0018924 Eh/α   predicted    -0.2456045E-04 ( -27.45%)
   displ. norm   :     0.1263500 α      lambda       -0.3065056E-04
   maximum displ.:     0.0707704 α      in ANC's #5, #2, #4, ...

........................................................................
.............................. CYCLE   11 ..............................
........................................................................

 iter      E             dE          RMSdq      gap      omega  full diag
   1    -51.0764207 -0.510764E+02  0.406E-02    3.32       0.0  T
   2    -51.0764214 -0.722963E-06  0.228E-02    3.32       1.0  T
   3    -51.0764191  0.229374E-05  0.102E-02    3.32       1.7  T
   4    -51.0764219 -0.280869E-05  0.169E-03    3.32      10.3  T
   5    -51.0764220 -0.192907E-07  0.642E-04    3.32      27.1  T
   6    -51.0764220 -0.177791E-08  0.252E-04    3.32      69.0  T
     SCC iter.                  ...        0 min,  0.009 sec
     gradient                   ...        0 min,  0.015 sec
 * total energy  :   -50.3648486 Eh     change       -0.2686019E-04 Eh
   gradient norm :     0.0021739 Eh/α   predicted    -0.1543581E-04 ( -42.53%)
   displ. norm   :     0.0527842 α      lambda       -0.2036457E-04
   maximum displ.:     0.0254006 α      in ANC's #2, #10, #6, ...

........................................................................
.............................. CYCLE   12 ..............................
........................................................................

 iter      E             dE          RMSdq      gap      omega  full diag
   1    -51.0767756 -0.510768E+02  0.140E-02    3.32       0.0  T
   2    -51.0767758 -0.163752E-06  0.789E-03    3.32       2.2  T
   3    -51.0767757  0.537359E-08  0.161E-03    3.32      10.8  T
   4    -51.0767758 -0.274355E-07  0.545E-04    3.32      32.0  T
   5    -51.0767758 -0.390202E-08  0.267E-04    3.32      65.3  T
     SCC iter.                  ...        0 min,  0.007 sec
     gradient                   ...        0 min,  0.015 sec
 * total energy  :   -50.3648653 Eh     change       -0.1670825E-04 Eh
   gradient norm :     0.0025166 Eh/α   predicted    -0.1021120E-04 ( -38.89%)
   displ. norm   :     0.1674166 α      lambda       -0.5656510E-04
   maximum displ.:     0.0844617 α      in ANC's #2, #10, #6, ...

........................................................................
.............................. CYCLE   13 ..............................
........................................................................

 iter      E             dE          RMSdq      gap      omega  full diag
   1    -51.0753483 -0.510753E+02  0.399E-02    3.32       0.0  T
   2    -51.0753496 -0.126200E-05  0.227E-02    3.31       1.0  T
   3    -51.0753492  0.390678E-06  0.574E-03    3.31       3.0  T
   4    -51.0753498 -0.607248E-06  0.220E-03    3.31       7.9  T
   5    -51.0753499 -0.834512E-07  0.980E-04    3.31      17.8  T
   6    -51.0753499 -0.725506E-08  0.372E-04    3.31      46.8  T
     SCC iter.                  ...        0 min,  0.009 sec
     gradient                   ...        0 min,  0.015 sec
 * total energy  :   -50.3649004 Eh     change       -0.3507325E-04 Eh
   gradient norm :     0.0029718 Eh/α   predicted    -0.2907565E-04 ( -17.10%)
   displ. norm   :     0.1677831 α      lambda        0.2154576E-04
   maximum displ.:     0.0846495 α      in ANC's #2, #10, #6, ...

........................................................................
.............................. CYCLE   14 ..............................
........................................................................

 iter      E             dE          RMSdq      gap      omega  full diag
   1    -51.0732569 -0.510733E+02  0.404E-02    3.31       0.0  T
   2    -51.0732582 -0.134648E-05  0.229E-02    3.31       1.0  T
   3    -51.0732579  0.356419E-06  0.570E-03    3.31       3.1  T
   4    -51.0732584 -0.567664E-06  0.226E-03    3.31       7.7  T
   5    -51.0732585 -0.898871E-07  0.994E-04    3.31      17.5  T
   6    -51.0732585 -0.682942E-08  0.389E-04    3.31      44.8  T
     SCC iter.                  ...        0 min,  0.009 sec
     gradient                   ...        0 min,  0.015 sec
 * total energy  :   -50.3648819 Eh     change        0.1855373E-04 Eh
   gradient norm :     0.0062938 Eh/α   predicted     0.1107603E-04 ( -40.30%)
   displ. norm   :     0.0909622 α      lambda       -0.6595981E-04
   maximum displ.:     0.0415278 α      in ANC's #2, #6, #10, ...

........................................................................
.............................. CYCLE   15 ..............................
........................................................................

 iter      E             dE          RMSdq      gap      omega  full diag
   1    -51.0757310 -0.510757E+02  0.229E-02    3.31       0.0  T
   2    -51.0757318 -0.804658E-06  0.130E-02    3.31       1.3  T
   3    -51.0757313  0.513526E-06  0.571E-03    3.31       3.0  T
   4    -51.0757319 -0.646426E-06  0.176E-03    3.31       9.9  T
   5    -51.0757320 -0.618150E-07  0.586E-04    3.31      29.7  T
   6    -51.0757320 -0.126888E-08  0.283E-04    3.31      61.4  T
     SCC iter.                  ...        0 min,  0.009 sec
     gradient                   ...        0 min,  0.062 sec
 * total energy  :   -50.3649204 Eh     change       -0.3854782E-04 Eh
   gradient norm :     0.0025024 Eh/α   predicted    -0.3325709E-04 ( -13.73%)
   displ. norm   :     0.0351895 α      lambda       -0.2015921E-04
   maximum displ.:     0.0139196 α      in ANC's #2, #11, #3, ...

........................................................................
.............................. CYCLE   16 ..............................
........................................................................

 iter      E             dE          RMSdq      gap      omega  full diag
   1    -51.0765761 -0.510766E+02  0.942E-03    3.32       0.0  T
   2    -51.0765762 -0.106095E-06  0.551E-03    3.32       3.2  T
   3    -51.0765760  0.175288E-06  0.309E-03    3.32       5.6  T
   4    -51.0765762 -0.219882E-06  0.620E-04    3.32      28.1  T
   5    -51.0765762 -0.652155E-08  0.218E-04    3.32      80.0  T
     SCC iter.                  ...        0 min,  0.007 sec
     gradient                   ...        0 min,  0.015 sec
 * total energy  :   -50.3649368 Eh     change       -0.1641426E-04 Eh
   gradient norm :     0.0019269 Eh/α   predicted    -0.1009271E-04 ( -38.51%)
   displ. norm   :     0.2220974 α      lambda       -0.4471209E-04
   maximum displ.:     0.1127446 α      in ANC's #2, #3, #10, ...

........................................................................
.............................. CYCLE   17 ..............................
........................................................................

 iter      E             dE          RMSdq      gap      omega  full diag
   1    -51.0772141 -0.510772E+02  0.528E-02    3.32       0.0  T
   2    -51.0772152 -0.111802E-05  0.302E-02    3.33       1.0  T
   3    -51.0772150  0.217749E-06  0.539E-03    3.33       3.2  T
   4    -51.0772154 -0.470749E-06  0.266E-03    3.33       6.5  T
   5    -51.0772155 -0.973317E-07  0.954E-04    3.33      18.2  T
   6    -51.0772155 -0.837369E-08  0.327E-04    3.33      53.3  T
     SCC iter.                  ...        0 min,  0.009 sec
     gradient                   ...        0 min,  0.058 sec
 * total energy  :   -50.3649745 Eh     change       -0.3766256E-04 Eh
   gradient norm :     0.0028317 Eh/α   predicted    -0.2284761E-04 ( -39.34%)
   displ. norm   :     0.0913444 α      lambda       -0.1684520E-04
   maximum displ.:     0.0486474 α      in ANC's #2, #10, #6, ...

........................................................................
.............................. CYCLE   18 ..............................
........................................................................

 iter      E             dE          RMSdq      gap      omega  full diag
   1    -51.0766894 -0.510767E+02  0.197E-02    3.33       0.0  T
   2    -51.0766895 -0.153214E-06  0.112E-02    3.33       1.6  T
   3    -51.0766895  0.573800E-07  0.234E-03    3.33       7.4  T
   4    -51.0766895 -0.859988E-07  0.106E-03    3.33      16.4  T
   5    -51.0766896 -0.145716E-07  0.452E-04    3.33      38.5  T
   6    -51.0766896 -0.280810E-08  0.130E-04    3.33     134.4  T
     SCC iter.                  ...        0 min,  0.009 sec
     gradient                   ...        0 min,  0.015 sec
 * total energy  :   -50.3649883 Eh     change       -0.1384014E-04 Eh
   gradient norm :     0.0025707 Eh/α   predicted    -0.8504909E-05 ( -38.55%)
   displ. norm   :     0.1766191 α      lambda       -0.3756444E-04
   maximum displ.:     0.0914057 α      in ANC's #2, #10, #6, ...

........................................................................
.............................. CYCLE   19 ..............................
........................................................................

 iter      E             dE          RMSdq      gap      omega  full diag
   1    -51.0754853 -0.510755E+02  0.367E-02    3.32       0.0  T
   2    -51.0754859 -0.602948E-06  0.209E-02    3.32       1.0  T
   3    -51.0754851  0.816371E-06  0.669E-03    3.32       2.6  T
   4    -51.0754861 -0.969466E-06  0.227E-03    3.32       7.7  T
   5    -51.0754861 -0.585201E-07  0.936E-04    3.32      18.6  T
   6    -51.0754861 -0.981945E-08  0.266E-04    3.32      65.4  T
     SCC iter.                  ...        0 min,  0.008 sec
     gradient                   ...        0 min,  0.015 sec
 * total energy  :   -50.3650112 Eh     change       -0.2292644E-04 Eh
   gradient norm :     0.0024933 Eh/α   predicted    -0.1936941E-04 ( -15.51%)
   displ. norm   :     0.0520998 α      lambda       -0.1838711E-04
   maximum displ.:     0.0238650 α      in ANC's #7, #2, #6, ...

........................................................................
.............................. CYCLE   20 ..............................
........................................................................

 iter      E             dE          RMSdq      gap      omega  full diag
   1    -51.0757394 -0.510757E+02  0.130E-02    3.32       0.0  T
   2    -51.0757396 -0.160430E-06  0.729E-03    3.32       2.4  T
   3    -51.0757396  0.107791E-07  0.172E-03    3.32      10.1  T
   4    -51.0757396 -0.277941E-07  0.688E-04    3.32      25.3  T
   5    -51.0757396 -0.588741E-08  0.327E-04    3.32      53.2  T
     SCC iter.                  ...        0 min,  0.007 sec
     gradient                   ...        0 min,  0.015 sec
 * total energy  :   -50.3650246 Eh     change       -0.1338407E-04 Eh
   gradient norm :     0.0019013 Eh/α   predicted    -0.9222054E-05 ( -31.10%)
   displ. norm   :     0.3089289 α      lambda       -0.3481740E-04
   maximum displ.:     0.1241449 α      in ANC's #7, #2, #10, ...
 * RMSD in coord.:     0.3848278 α      energy gain  -0.1125925E-01 Eh

generating ANC from exact Hessian ...
Using Lindh-Hessian (1995)
 Shifting diagonal of input Hessian by    9.7677822020195877E-003
 Lowest  eigenvalues of input Hessian
    0.000000    0.000000    0.000000    0.000000    0.000000    0.000000
    0.010000    0.010323    0.010687    0.011684    0.011706    0.012220
    0.013574    0.015720    0.016201    0.017185    0.017745    0.018824
 Highest eigenvalues
    1.919510    2.086633    2.149083    2.191808    2.294629    2.876179


........................................................................
.............................. CYCLE   21 ..............................
........................................................................

 iter      E             dE          RMSdq      gap      omega  full diag
   1    -51.0744562 -0.510745E+02  0.619E-02    3.32       0.0  T
   2    -51.0744578 -0.160000E-05  0.361E-02    3.33       1.0  T
   3    -51.0744568  0.989925E-06  0.816E-03    3.33       2.1  T
   4    -51.0744581 -0.129058E-05  0.331E-03    3.33       5.3  T
   5    -51.0744583 -0.140949E-06  0.132E-03    3.33      13.2  T
   6    -51.0744583 -0.207304E-07  0.438E-04    3.33      39.8  T
   7    -51.0744583 -0.216145E-08  0.210E-04    3.33      82.8  T
     SCC iter.                  ...        0 min,  0.056 sec
     gradient                   ...        0 min,  0.015 sec
 * total energy  :   -50.3649916 Eh     change        0.3301494E-04 Eh
   gradient norm :     0.0070291 Eh/α   predicted     0.0000000E+00 (-100.00%)
   displ. norm   :     0.0489844 α      lambda       -0.1288500E-03
   maximum displ.:     0.0242721 α      in ANC's #5, #1, #8, ...

........................................................................
.............................. CYCLE   22 ..............................
........................................................................

 iter      E             dE          RMSdq      gap      omega  full diag
   1    -51.0756901 -0.510757E+02  0.661E-02    3.33       0.0  T
   2    -51.0756927 -0.257560E-05  0.367E-02    3.33       1.0  T
   3    -51.0756933 -0.573819E-06  0.341E-03    3.33       5.1  T
   4    -51.0756934 -0.134990E-06  0.174E-03    3.33      10.0  T
   5    -51.0756934 -0.419201E-07  0.895E-04    3.33      19.5  T
   6    -51.0756935 -0.611318E-08  0.255E-04    3.33      68.4  T
     SCC iter.                  ...        0 min,  0.008 sec
     gradient                   ...        0 min,  0.015 sec
 * total energy  :   -50.3650267 Eh     change       -0.3512534E-04 Eh
   gradient norm :     0.0037220 Eh/α   predicted    -0.6488133E-04 (  84.71%)
   displ. norm   :     0.0735835 α      lambda       -0.1622950E-03
   maximum displ.:     0.0436859 α      in ANC's #1, #4, #2, ...

........................................................................
.............................. CYCLE   23 ..............................
........................................................................

 iter      E             dE          RMSdq      gap      omega  full diag
   1    -51.0780227 -0.510780E+02  0.974E-02    3.33       0.0  T
   2    -51.0780280 -0.531461E-05  0.541E-02    3.34       1.0  T
   3    -51.0780286 -0.538091E-06  0.687E-03    3.34       2.5  T
   4    -51.0780295 -0.941849E-06  0.327E-03    3.34       5.3  T
   5    -51.0780297 -0.200855E-06  0.118E-03    3.34      14.7  T
   6    -51.0780297 -0.250385E-08  0.325E-04    3.34      53.5  T
   7    -51.0780297 -0.160082E-08  0.132E-04    3.34     131.8  T
     SCC iter.                  ...        0 min,  0.050 sec
     gradient                   ...        0 min,  0.015 sec
 * total energy  :   -50.3650065 Eh     change        0.2020017E-04 Eh
   gradient norm :     0.0059491 Eh/α   predicted    -0.8158767E-04 (-503.90%)
   displ. norm   :     0.0312485 α      lambda       -0.1292620E-03
   maximum displ.:     0.0145444 α      in ANC's #1, #4, #2, ...

........................................................................
.............................. CYCLE   24 ..............................
........................................................................

 iter      E             dE          RMSdq      gap      omega  full diag
   1    -51.0768131 -0.510768E+02  0.430E-02    3.33       0.0  T
   2    -51.0768146 -0.144584E-05  0.240E-02    3.33       1.0  T
   3    -51.0768142  0.348907E-06  0.545E-03    3.33       3.2  T
   4    -51.0768149 -0.647446E-06  0.206E-03    3.33       8.4  T
   5    -51.0768149 -0.873181E-07  0.708E-04    3.33      24.6  T
   6    -51.0768149 -0.290697E-09  0.205E-04    3.33      84.8  T
     SCC iter.                  ...        0 min,  0.008 sec
     gradient                   ...        0 min,  0.015 sec
 * total energy  :   -50.3650730 Eh     change       -0.6643705E-04 Eh
   gradient norm :     0.0010634 Eh/α   predicted    -0.6469541E-04 (  -2.62%)
   displ. norm   :     0.0274651 α      lambda       -0.5437214E-05
   maximum displ.:     0.0112900 α      in ANC's #11, #8, #2, ...

........................................................................
.............................. CYCLE   25 ..............................
........................................................................

 iter      E             dE          RMSdq      gap      omega  full diag
   1    -51.0765406 -0.510765E+02  0.750E-03    3.33       0.0  T
   2    -51.0765407 -0.562605E-07  0.420E-03    3.33       4.1  T
   3    -51.0765406  0.378144E-07  0.152E-03    3.33      11.5  T
   4    -51.0765407 -0.453773E-07  0.518E-04    3.33      33.6  T
   5    -51.0765407 -0.519365E-08  0.187E-04    3.33      93.2  T
     SCC iter.                  ...        0 min,  0.007 sec
     gradient                   ...        0 min,  0.048 sec
 * total energy  :   -50.3650798 Eh     change       -0.6844137E-05 Eh
   gradient norm :     0.0005731 Eh/α   predicted    -0.2719917E-05 ( -60.26%)
   displ. norm   :     0.1329470 α      lambda       -0.1913593E-04
   maximum displ.:     0.0546070 α      in ANC's #2, #11, #1, ...

........................................................................
.............................. CYCLE   26 ..............................
........................................................................

 iter      E             dE          RMSdq      gap      omega  full diag
   1    -51.0764823 -0.510765E+02  0.401E-02    3.34       0.0  T
   2    -51.0764830 -0.697089E-06  0.224E-02    3.34       1.0  T
   3    -51.0764819  0.104441E-05  0.726E-03    3.34       2.4  T
   4    -51.0764832 -0.132709E-05  0.180E-03    3.34       9.7  T
   5    -51.0764833 -0.302957E-07  0.767E-04    3.34      22.7  T
   6    -51.0764833 -0.337317E-08  0.255E-04    3.34      68.3  T
     SCC iter.                  ...        0 min,  0.009 sec
     gradient                   ...        0 min,  0.015 sec
 * total energy  :   -50.3650974 Eh     change       -0.1762056E-04 Eh
   gradient norm :     0.0014345 Eh/α   predicted    -0.9646436E-05 ( -45.25%)
   displ. norm   :     0.0803565 α      lambda       -0.7051868E-05
   maximum displ.:     0.0355728 α      in ANC's #2, #1, #11, ...

........................................................................
.............................. CYCLE   27 ..............................
........................................................................

 iter      E             dE          RMSdq      gap      omega  full diag
   1    -51.0763910 -0.510764E+02  0.254E-02    3.34       0.0  T
   2    -51.0763912 -0.266665E-06  0.142E-02    3.34       1.2  T
   3    -51.0763912  0.258616E-07  0.235E-03    3.34       7.4  T
   4    -51.0763913 -0.970018E-07  0.104E-03    3.33      16.7  T
   5    -51.0763913 -0.156838E-07  0.387E-04    3.34      45.0  T
   6    -51.0763913 -0.130476E-08  0.126E-04    3.34     137.9  T
     SCC iter.                  ...        0 min,  0.009 sec
     gradient                   ...        0 min,  0.052 sec
 * total energy  :   -50.3651061 Eh     change       -0.8614627E-05 Eh
   gradient norm :     0.0016808 Eh/α   predicted    -0.3538392E-05 ( -58.93%)
   displ. norm   :     0.1742772 α      lambda       -0.1552744E-04
   maximum displ.:     0.0785581 α      in ANC's #2, #1, #11, ...

........................................................................
.............................. CYCLE   28 ..............................
........................................................................

 iter      E             dE          RMSdq      gap      omega  full diag
   1    -51.0763004 -0.510763E+02  0.521E-02    3.34       0.0  T
   2    -51.0763014 -0.101354E-05  0.291E-02    3.34       1.0  T
   3    -51.0763015 -0.114251E-06  0.381E-03    3.34       4.6  T
   4    -51.0763018 -0.209915E-06  0.187E-03    3.33       9.3  T
   5    -51.0763018 -0.392690E-07  0.732E-04    3.33      23.8  T
   6    -51.0763018 -0.817375E-08  0.256E-04    3.33      68.0  T
     SCC iter.                  ...        0 min,  0.009 sec
     gradient                   ...        0 min,  0.015 sec
 * total energy  :   -50.3651214 Eh     change       -0.1534411E-04 Eh
   gradient norm :     0.0012702 Eh/α   predicted    -0.7882389E-05 ( -48.63%)
   displ. norm   :     0.0891094 α      lambda       -0.8514875E-05
   maximum displ.:     0.0405873 α      in ANC's #2, #1, #12, ...

........................................................................
.............................. CYCLE   29 ..............................
........................................................................

 iter      E             dE          RMSdq      gap      omega  full diag
   1    -51.0764957 -0.510765E+02  0.284E-02    3.33       0.0  T
   2    -51.0764962 -0.417778E-06  0.159E-02    3.34       1.1  T
   3    -51.0764962 -0.789439E-07  0.171E-03    3.34      10.2  T
   4    -51.0764963 -0.394540E-07  0.822E-04    3.33      21.2  T
   5    -51.0764963 -0.636337E-08  0.356E-04    3.33      48.9  T
     SCC iter.                  ...        0 min,  0.007 sec
     gradient                   ...        0 min,  0.059 sec
 * total energy  :   -50.3651299 Eh     change       -0.8526168E-05 Eh
   gradient norm :     0.0009931 Eh/α   predicted    -0.4296668E-05 ( -49.61%)
   displ. norm   :     0.0934422 α      lambda       -0.5643146E-05
   maximum displ.:     0.0391311 α      in ANC's #2, #8, #1, ...

........................................................................
.............................. CYCLE   30 ..............................
........................................................................

 iter      E             dE          RMSdq      gap      omega  full diag
   1    -51.0763245 -0.510763E+02  0.257E-02    3.33       0.0  T
   2    -51.0763249 -0.305750E-06  0.146E-02    3.34       1.2  T
   3    -51.0763248  0.160703E-07  0.224E-03    3.34       7.8  T
   4    -51.0763249 -0.110125E-06  0.931E-04    3.34      18.7  T
   5    -51.0763250 -0.822345E-08  0.419E-04    3.34      41.6  T
     SCC iter.                  ...        0 min,  0.007 sec
     gradient                   ...        0 min,  0.015 sec
 * total energy  :   -50.3651354 Eh     change       -0.5483853E-05 Eh
   gradient norm :     0.0010778 Eh/α   predicted    -0.2834489E-05 ( -48.31%)
   displ. norm   :     0.0541035 α      lambda       -0.6090815E-05
   maximum displ.:     0.0212122 α      in ANC's #6, #12, #16, ...

........................................................................
.............................. CYCLE   31 ..............................
........................................................................

 iter      E             dE          RMSdq      gap      omega  full diag
   1    -51.0767424 -0.510767E+02  0.166E-02    3.33       0.0  T
   2    -51.0767426 -0.249805E-06  0.941E-03    3.34       1.9  T
   3    -51.0767426  0.150792E-07  0.177E-03    3.34       9.8  T
   4    -51.0767427 -0.355717E-07  0.955E-04    3.34      18.2  T
   5    -51.0767427 -0.184205E-07  0.318E-04    3.34      54.8  T
     SCC iter.                  ...        0 min,  0.007 sec
     gradient                   ...        0 min,  0.060 sec
 * total energy  :   -50.3651411 Eh     change       -0.5642200E-05 Eh
   gradient norm :     0.0014371 Eh/α   predicted    -0.3049759E-05 ( -45.95%)
   displ. norm   :     0.0890482 α      lambda       -0.5582843E-05
   maximum displ.:     0.0318046 α      in ANC's #12, #8, #6, ...

........................................................................
.............................. CYCLE   32 ..............................
........................................................................

 iter      E             dE          RMSdq      gap      omega  full diag
   1    -51.0761058 -0.510761E+02  0.224E-02    3.34       0.0  T
   2    -51.0761060 -0.174400E-06  0.129E-02    3.34       1.4  T
   3    -51.0761060  0.117272E-07  0.191E-03    3.34       9.1  T
   4    -51.0761060 -0.690235E-07  0.856E-04    3.34      20.3  T
   5    -51.0761061 -0.765807E-08  0.344E-04    3.34      50.6  T
     SCC iter.                  ...        0 min,  0.007 sec
     gradient                   ...        0 min,  0.015 sec
 * total energy  :   -50.3651461 Eh     change       -0.5019623E-05 Eh
   gradient norm :     0.0009948 Eh/α   predicted    -0.2801972E-05 ( -44.18%)
   displ. norm   :     0.0659577 α      lambda       -0.6935358E-05
   maximum displ.:     0.0302833 α      in ANC's #6, #5, #1, ...

........................................................................
.............................. CYCLE   33 ..............................
........................................................................

 iter      E             dE          RMSdq      gap      omega  full diag
   1    -51.0762683 -0.510763E+02  0.171E-02    3.33       0.0  T
   2    -51.0762685 -0.192802E-06  0.947E-03    3.33       1.8  T
   3    -51.0762685  0.589987E-07  0.246E-03    3.34       7.1  T
   4    -51.0762686 -0.975777E-07  0.101E-03    3.34      17.2  T
   5    -51.0762686 -0.133836E-07  0.434E-04    3.34      40.1  T
   6    -51.0762686 -0.237952E-08  0.126E-04    3.34     137.7  T
     SCC iter.                  ...        0 min,  0.008 sec
     gradient                   ...        0 min,  0.054 sec
 * total energy  :   -50.3651538 Eh     change       -0.7720091E-05 Eh
   gradient norm :     0.0009799 Eh/α   predicted    -0.3476178E-05 ( -54.97%)
   displ. norm   :     0.0887045 α      lambda       -0.7496705E-05
   maximum displ.:     0.0384921 α      in ANC's #5, #6, #12, ...

........................................................................
.............................. CYCLE   34 ..............................
........................................................................

 iter      E             dE          RMSdq      gap      omega  full diag
   1    -51.0763958 -0.510764E+02  0.224E-02    3.33       0.0  T
   2    -51.0763962 -0.349794E-06  0.126E-02    3.33       1.4  T
   3    -51.0763959  0.266244E-06  0.409E-03    3.33       4.3  T
   4    -51.0763963 -0.363370E-06  0.130E-03    3.33      13.4  T
   5    -51.0763963 -0.228137E-07  0.530E-04    3.33      32.8  T
   6    -51.0763963 -0.222635E-08  0.177E-04    3.33      98.2  T
     SCC iter.                  ...        0 min,  0.008 sec
     gradient                   ...        0 min,  0.015 sec
 * total energy  :   -50.3651619 Eh     change       -0.8151815E-05 Eh
   gradient norm :     0.0012195 Eh/α   predicted    -0.3765701E-05 ( -53.81%)
   displ. norm   :     0.0971214 α      lambda       -0.7063616E-05
   maximum displ.:     0.0466164 α      in ANC's #5, #12, #1, ...

........................................................................
.............................. CYCLE   35 ..............................
........................................................................

 iter      E             dE          RMSdq      gap      omega  full diag
   1    -51.0764448 -0.510764E+02  0.258E-02    3.33       0.0  T
   2    -51.0764452 -0.423094E-06  0.146E-02    3.33       1.2  T
   3    -51.0764451  0.627556E-07  0.297E-03    3.33       5.9  T
   4    -51.0764453 -0.162379E-06  0.125E-03    3.33      13.9  T
   5    -51.0764453 -0.197561E-07  0.568E-04    3.33      30.7  T
   6    -51.0764453 -0.327383E-08  0.194E-04    3.33      89.7  T
     SCC iter.                  ...        0 min,  0.060 sec
     gradient                   ...        0 min,  0.015 sec
 * total energy  :   -50.3651696 Eh     change       -0.7684565E-05 Eh
   gradient norm :     0.0013453 Eh/α   predicted    -0.3549278E-05 ( -53.81%)
   displ. norm   :     0.1146426 α      lambda       -0.6955062E-05
   maximum displ.:     0.0492950 α      in ANC's #12, #5, #11, ...

........................................................................
.............................. CYCLE   36 ..............................
........................................................................

 iter      E             dE          RMSdq      gap      omega  full diag
   1    -51.0762894 -0.510763E+02  0.276E-02    3.34       0.0  T
   2    -51.0762898 -0.332500E-06  0.159E-02    3.33       1.1  T
   3    -51.0762898 -0.337521E-08  0.235E-03    3.33       7.4  T
   4    -51.0762898 -0.771595E-07  0.122E-03    3.33      14.3  T
   5    -51.0762899 -0.196109E-07  0.526E-04    3.33      33.1  T
   6    -51.0762899 -0.233797E-08  0.137E-04    3.33     127.4  T
     SCC iter.                  ...        0 min,  0.009 sec
     gradient                   ...        0 min,  0.067 sec
 * total energy  :   -50.3651760 Eh     change       -0.6415972E-05 Eh
   gradient norm :     0.0017678 Eh/α   predicted    -0.3502038E-05 ( -45.42%)
   displ. norm   :     0.1756309 α      lambda       -0.1811990E-04
   maximum displ.:     0.1074935 α      in ANC's #5, #1, #4, ...

........................................................................
.............................. CYCLE   37 ..............................
........................................................................

 iter      E             dE          RMSdq      gap      omega  full diag
   1    -51.0773901 -0.510774E+02  0.658E-02    3.34       0.0  T
   2    -51.0773925 -0.245429E-05  0.370E-02    3.34       1.0  T
   3    -51.0773924  0.173243E-06  0.646E-03    3.34       2.7  T
   4    -51.0773933 -0.918708E-06  0.248E-03    3.34       7.0  T
   5    -51.0773934 -0.809909E-07  0.105E-03    3.34      16.6  T
   6    -51.0773934 -0.298770E-08  0.395E-04    3.34      44.1  T
   7    -51.0773934 -0.263027E-08  0.145E-04    3.34     120.0  T
     SCC iter.                  ...        0 min,  0.010 sec
     gradient                   ...        0 min,  0.015 sec
 * total energy  :   -50.3651631 Eh     change        0.1290829E-04 Eh
   gradient norm :     0.0030259 Eh/α   predicted    -0.9184836E-05 (-171.15%)
   displ. norm   :     0.0626548 α      lambda       -0.2823713E-04
   maximum displ.:     0.0272373 α      in ANC's #2, #1, #8, ...

........................................................................
.............................. CYCLE   38 ..............................
........................................................................

 iter      E             dE          RMSdq      gap      omega  full diag
   1    -51.0767802 -0.510768E+02  0.217E-02    3.34       0.0  T
   2    -51.0767805 -0.292047E-06  0.123E-02    3.34       1.4  T
   3    -51.0767804  0.149157E-06  0.311E-03    3.34       5.6  T
   4    -51.0767806 -0.246293E-06  0.862E-04    3.34      20.2  T
   5    -51.0767806 -0.782364E-08  0.407E-04    3.34      42.8  T
     SCC iter.                  ...        0 min,  0.007 sec
     gradient                   ...        0 min,  0.065 sec
 * total energy  :   -50.3651825 Eh     change       -0.1938644E-04 Eh
   gradient norm :     0.0010897 Eh/α   predicted    -0.1417416E-04 ( -26.89%)
   displ. norm   :     0.0872446 α      lambda       -0.9335227E-05
   maximum displ.:     0.0445923 α      in ANC's #1, #5, #2, ...

........................................................................
.............................. CYCLE   39 ..............................
........................................................................

 iter      E             dE          RMSdq      gap      omega  full diag
   1    -51.0764316 -0.510764E+02  0.337E-02    3.34       0.0  T
   2    -51.0764323 -0.684692E-06  0.189E-02    3.34       1.0  T
   3    -51.0764324 -0.644115E-07  0.257E-03    3.34       6.8  T
   4    -51.0764325 -0.139430E-06  0.109E-03    3.34      16.0  T
   5    -51.0764325 -0.112670E-07  0.522E-04    3.34      33.3  T
   6    -51.0764325 -0.180135E-08  0.240E-04    3.34      72.5  T
     SCC iter.                  ...        0 min,  0.009 sec
     gradient                   ...        0 min,  0.015 sec
 * total energy  :   -50.3651879 Eh     change       -0.5389244E-05 Eh
   gradient norm :     0.0014078 Eh/α   predicted    -0.4687238E-05 ( -13.03%)
   displ. norm   :     0.0090687 α      lambda        0.7992537E-06
   maximum displ.:     0.0038970 α      in ANC's #11, #6, #12, ...

........................................................................
.............................. CYCLE   40 ..............................
........................................................................

 iter      E             dE          RMSdq      gap      omega  full diag
   1    -51.0768173 -0.510768E+02  0.764E-03    3.34       0.0  T
   2    -51.0768174 -0.497925E-07  0.429E-03    3.34       4.1  T
   3    -51.0768174  0.389354E-07  0.143E-03    3.34      12.2  T
   4    -51.0768174 -0.517709E-07  0.391E-04    3.34      44.5  T
   5    -51.0768174 -0.248447E-08  0.144E-04    3.34     120.7  T
     SCC iter.                  ...        0 min,  0.052 sec
     gradient                   ...        0 min,  0.015 sec
 * total energy  :   -50.3651878 Eh     change        0.1238333E-06 Eh
   gradient norm :     0.0015216 Eh/α   predicted     0.3990176E-06 ( 222.22%)
   displ. norm   :     0.0432103 α      lambda       -0.3077274E-05
   maximum displ.:     0.0215841 α      in ANC's #5, #12, #14, ...

........................................................................
.............................. CYCLE   41 ..............................
........................................................................

 iter      E             dE          RMSdq      gap      omega  full diag
   1    -51.0765816 -0.510766E+02  0.127E-02    3.34       0.0  T
   2    -51.0765817 -0.805315E-07  0.726E-03    3.34       2.4  T
   3    -51.0765816  0.775674E-07  0.200E-03    3.34       8.7  T
   4    -51.0765817 -0.105310E-06  0.520E-04    3.34      33.5  T
   5    -51.0765817 -0.272242E-08  0.218E-04    3.34      80.0  T
     SCC iter.                  ...        0 min,  0.007 sec
     gradient                   ...        0 min,  0.015 sec
 * total energy  :   -50.3651910 Eh     change       -0.3178468E-05 Eh
   gradient norm :     0.0008521 Eh/α   predicted    -0.1542047E-05 ( -51.48%)
   displ. norm   :     0.0538123 α      lambda       -0.2687031E-05
   maximum displ.:     0.0282467 α      in ANC's #12, #5, #14, ...

   *** GEOMETRY OPTIMIZATION CONVERGED AFTER 41 ITERATIONS ***

------------------------------------------------------------------------
 total energy gain   :        -0.0114256 Eh       -7.1697 kcal/mol
 total RMSD          :         0.4796232 a0        0.2538 Å
 total power (kW/mol):        -0.7316554 (step)  -14.2491 (real)
------------------------------------------------------------------------

 ANCopt (total)                0 d,  0 h,  0 min,  2.105 sec
 optimizer setup                ...        0 min,  0.000 sec (  0.003%)
 model hessian                  ...        0 min,  0.024 sec (  1.154%)
 ANC generation                 ...        0 min,  0.002 sec (  0.090%)
 coordinate transformation      ...        0 min,  0.000 sec (  0.010%)
 single point calculation       ...        0 min,  2.065 sec ( 98.095%)
 optimization log               ...        0 min,  0.006 sec (  0.268%)
 hessian update                 ...        0 min,  0.000 sec (  0.019%)
 rational function              ...        0 min,  0.003 sec (  0.159%)

================
 final structure:
================
33
 xtb: 6.7.1 (edcfbbe)
C            2.59414283113496       -1.37019562740874       -2.26057258267463
N            1.66321469049827       -0.36294267023544       -1.82014322288944
C            1.96018838615946        0.70468387395633       -1.03644432381410
N            0.88875990975802        1.49483327286891       -0.74174943830822
C            0.96141153749533        2.48026820567516        0.30508003676467
C            0.88185162046118        1.88021666919651        1.70911906696954
S           -0.73768839117546        1.13856702807472        2.10575142159180
C           -0.61513415734794       -0.54205852189236        1.33569397621502
C           -1.57314489115931       -0.70329129933417        0.21972301096984
C           -2.91356786447659       -0.99704943547026        0.29178187850364
C           -3.80026555819135       -1.24562888586357        1.45369979689987
N           -3.35549390567745       -0.99892057533788       -1.00458041954797
C           -2.29836817107114       -0.71050187595639       -1.79499237655148
N           -1.21557260084466       -0.52555534014234       -1.09060205540615
N            3.11790628410148        1.07630067787871       -0.60274036662321
C            4.29125782643427        0.55895805211181       -0.75607435975089
N            5.39577386254630        0.22207937789288       -0.78291334378926
H            3.60705659529611       -0.97093015396209       -2.25031369379278
H            2.56504522142286       -2.25600185146200       -1.61529748855156
H            2.34322908578106       -1.66999758137801       -3.27946205259841
H            0.67487809381616       -0.58871627166214       -1.88550660028364
H           -0.01676032124280        1.07139553367677       -0.91115008575021
H            0.14638269518000        3.19315763285207        0.16114682051530
H            1.92002687760932        2.99760949800393        0.20928658200713
H            1.01454238638552        2.66239202767497        2.45543767952155
H            1.64871162412438        1.11927460654293        1.84979717260476
H            0.41133960753250       -0.67059360824756        1.00302667847383
H           -0.83871073593930       -1.24718909694233        2.13605021332735
H           -3.29088311795812       -1.86182821698622        2.19145525903238
H           -4.71214730618277       -1.74950715917607        1.14062156663735
H           -4.06661579685409       -0.30438941465811        1.93509809160292
H           -4.30054895962094       -1.18013015101868       -1.30151729134368
H           -2.35091735799494       -0.64440871927098       -2.86280954996150

 Bond Distances (Angstroems)
 ---------------------------
C1-N2=1.4405         C1-H18=1.0888        C1-H19=1.0963        C1-H20=1.0913        N2-C1=1.4405         N2-C3=1.3573         
N2-H21=1.0159        C3-N2=1.3573         C3-N4=1.3635         C3-N15=1.2909        N4-C3=1.3635         N4-C5=1.4395         
N4-H22=1.0139        C5-N4=1.4395         C5-C6=1.5290         C5-H23=1.0923        C5-H24=1.0935        C6-C5=1.5290         
C6-S7=1.8249         C6-H25=1.0892        C6-H26=1.0894        S7-C6=1.8249         S7-C8=1.8527         C8-S7=1.8527         
C8-C9=1.4796         C8-H27=1.0867        C8-H28=1.0898        C9-C8=1.4796         C9-C10=1.3741        C9-N14=1.3698        
C10-C9=1.3741        C10-C11=1.4826       C10-N12=1.3696       C11-C10=1.4826       C11-H29=1.0879       C11-H30=1.0879       
C11-H31=1.0902       N12-C10=1.3696       N12-C13=1.3511       N12-H32=1.0070       C13-N12=1.3511       C13-N14=1.3049       
C13-H33=1.0712       N14-C9=1.3698        N14-C13=1.3049       N15-C3=1.2909        N15-C16=1.2915       C16-N15=1.2915       
C16-N17=1.1551       N17-C16=1.1551       H18-C1=1.0888        H19-C1=1.0963        H20-C1=1.0913        H21-N2=1.0159        
H22-N4=1.0139        H23-C5=1.0923        H24-C5=1.0935        H25-C6=1.0892        H26-C6=1.0894        H27-C8=1.0867        
H28-C8=1.0898        H29-C11=1.0879       H30-C11=1.0879       H31-C11=1.0902       H32-N12=1.0070       H33-C13=1.0712       
 C  H  Rav=1.0888 sigma=0.0057  Rmin=1.0712  Rmax=1.0963    13
 C  C  Rav=1.4663 sigma=0.0567  Rmin=1.3741  Rmax=1.5290     4
 N  H  Rav=1.0123 sigma=0.0038  Rmin=1.0070  Rmax=1.0159     3
 N  C  Rav=1.3394 sigma=0.0756  Rmin=1.1551  Rmax=1.4405    11
 S  C  Rav=1.8388 sigma=0.0139  Rmin=1.8249  Rmax=1.8527     2

 selected bond angles (degree)
 --------------------
H18-C1-N2=109.99               H19-C1-N2=111.58               H19-C1-H18=108.39              H20-C1-N2=109.21               
H20-C1-H18=108.87              H20-C1-H19=108.75              C3-N2-C1=125.81                H21-N2-C1=116.98               
H21-N2-C3=115.14               N4-C3-N2=114.12                N15-C3-N2=128.07               N15-C3-N4=117.73               
C5-N4-C3=120.95                H22-N4-C3=115.07               H22-N4-C5=116.90               C6-C5-N4=113.36                
H23-C5-N4=108.26               H23-C5-C6=109.77               H24-C5-N4=107.72               H24-C5-C6=108.16               
H24-C5-H23=109.50              S7-C6-C5=113.91                H25-C6-C5=109.94               H25-C6-S7=104.54               
H26-C6-C5=110.86               H26-C6-S7=108.23               H26-C6-H25=109.11              C8-S7-C6=102.69                
C9-C8-S7=111.69                H27-C8-S7=107.28               H27-C8-C9=111.58               H28-C8-S7=105.55               
H28-C8-C9=110.52               H28-C8-H27=110.00              C10-C9-C8=127.98               N14-C9-C8=122.57               
N14-C9-C10=109.42              C11-C10-C9=131.33              N12-C10-C9=105.39              N12-C10-C11=123.27             

 selected dihedral angles (degree)
 ---------------------------------
C3-N2-C1-H18=336.24           C3-N2-C1-H19= 96.57           C3-N2-C1-H20=216.83           H21-N2-C1-H18=173.47          
H21-N2-C1-H19=293.80          H21-N2-C1-H20= 54.05          N4-C3-N2-C1=181.25            N4-C3-N2-H21=344.30           
N15-C3-N2-C1=  4.57           N15-C3-N2-H21=167.62          C5-N4-C3-N2=165.92            C5-N4-C3-N15=342.97           
H22-N4-C3-N2= 16.28           H22-N4-C3-N15=193.33          C6-C5-N4-C3=284.11            C6-C5-N4-H22= 73.22           
H23-C5-N4-C3=162.07           H23-C5-N4-H22=311.18          H24-C5-N4-C3= 43.75           H24-C5-N4-H22=192.86          
S7-C6-C5-N4=292.83            S7-C6-C5-H23= 54.02           S7-C6-C5-H24=173.44           H25-C6-C5-N4=175.90           
H25-C6-C5-H23=297.09          H25-C6-C5-H24= 56.51          H26-C6-C5-N4= 55.18           H26-C6-C5-H23=176.37          
H26-C6-C5-H24=295.79          C8-S7-C6-C5= 82.39            C8-S7-C6-H25=202.41           C8-S7-C6-H26=318.61           
C9-C8-S7-C6=245.65            H27-C8-S7-C6=  8.21           H28-C8-S7-C6=125.50           C10-C9-C8-S7=279.41           
C10-C9-C8-H27=159.34          C10-C9-C8-H28= 36.60          N14-C9-C8-S7= 97.21           N14-C9-C8-H27=337.14          
N14-C9-C8-H28=214.40          C11-C10-C9-C8=359.61          C11-C10-C9-N14=181.58         N12-C10-C9-C8=178.31          
N12-C10-C9-N14=  0.28         
           -------------------------------------------------
          |                Final Singlepoint                |
           -------------------------------------------------

          ...................................................
          :                      SETUP                      :
          :.................................................:
          :  # basis functions                  90          :
          :  # atomic orbitals                  89          :
          :  # shells                           51          :
          :  # electrons                        92          :
          :  max. iterations                   250          :
          :  Hamiltonian                  GFN2-xTB          :
          :  restarted?                      false          :
          :  GBSA solvation                  false          :
          :  PC potential                    false          :
          :  electronic temp.          300.0000000     K    :
          :  accuracy                    1.0000000          :
          :  -> integral cutoff          0.2500000E+02      :
          :  -> integral neglect         0.1000000E-07      :
          :  -> SCF convergence          0.1000000E-05 Eh   :
          :  -> wf. convergence          0.1000000E-03 e    :
          :  Broyden damping             0.4000000          :
          :  net charge                          0          :
          :  unpaired electrons                  0          :
          ...................................................

 iter      E             dE          RMSdq      gap      omega  full diag
   1    -51.0765817 -0.510766E+02  0.707E-05    3.34       0.0  T
   2    -51.0765817 -0.375309E-10  0.394E-05    3.34     441.5  T
   3    -51.0765817 -0.131593E-10  0.248E-05    3.34     702.2  T

   *** convergence criteria satisfied after 3 iterations ***

         #    Occupation            Energy/Eh            Energy/eV
      -------------------------------------------------------------
         1        2.0000           -0.7174977             -19.5241
       ...           ...                  ...                  ...
        40        2.0000           -0.4172529             -11.3540
        41        2.0000           -0.4011259             -10.9152
        42        2.0000           -0.3904410             -10.6244
        43        2.0000           -0.3719686             -10.1218
        44        2.0000           -0.3654597              -9.9447
        45        2.0000           -0.3581944              -9.7470
        46        2.0000           -0.3540625              -9.6345 (HOMO)
        47                         -0.2311927              -6.2911 (LUMO)
        48                         -0.2203404              -5.9958
        49                         -0.2053840              -5.5888
        50                         -0.1894003              -5.1538
        51                         -0.1453377              -3.9548
       ...                                ...                  ...
        89                          1.2606151              34.3031
      -------------------------------------------------------------
                  HL-Gap            0.1228698 Eh            3.3435 eV
             Fermi-level           -0.2926276 Eh           -7.9628 eV

 SCC (total)                   0 d,  0 h,  0 min,  0.071 sec
 SCC setup                      ...        0 min,  0.000 sec (  0.279%)
 Dispersion                     ...        0 min,  0.000 sec (  0.262%)
 classical contributions        ...        0 min,  0.000 sec (  0.129%)
 integral evaluation            ...        0 min,  0.005 sec (  7.650%)
 iterations                     ...        0 min,  0.050 sec ( 69.982%)
 molecular gradient             ...        0 min,  0.015 sec ( 21.528%)
 printout                       ...        0 min,  0.000 sec (  0.160%)

         :::::::::::::::::::::::::::::::::::::::::::::::::::::
         ::                     SUMMARY                     ::
         :::::::::::::::::::::::::::::::::::::::::::::::::::::
         :: total energy             -50.365190965877 Eh    ::
         :: gradient norm              0.000853518942 Eh/a0 ::
         :: HOMO-LUMO gap              3.343456580172 eV    ::
         ::.................................................::
         :: SCC energy               -51.076122022998 Eh    ::
         :: -> isotropic ES            0.061434370076 Eh    ::
         :: -> anisotropic ES          0.006853279483 Eh    ::
         :: -> anisotropic XC          0.041090921868 Eh    ::
         :: -> dispersion             -0.034415278715 Eh    ::
         :: repulsion energy           0.710931057122 Eh    ::
         :: add. restraining           0.000000000000 Eh    ::
         :: total charge               0.000000000000 e     ::
         :::::::::::::::::::::::::::::::::::::::::::::::::::::

           -------------------------------------------------
          |                Property Printout                |
           -------------------------------------------------

    * Orbital Energies and Occupations

         #    Occupation            Energy/Eh            Energy/eV
      -------------------------------------------------------------
         1        2.0000           -0.7174977             -19.5241
       ...           ...                  ...                  ...
        34        2.0000           -0.4716796             -12.8351
        35        2.0000           -0.4697986             -12.7839
        36        2.0000           -0.4561391             -12.4122
        37        2.0000           -0.4419473             -12.0260
        38        2.0000           -0.4405833             -11.9889
        39        2.0000           -0.4372476             -11.8981
        40        2.0000           -0.4172529             -11.3540
        41        2.0000           -0.4011259             -10.9152
        42        2.0000           -0.3904410             -10.6244
        43        2.0000           -0.3719686             -10.1218
        44        2.0000           -0.3654597              -9.9447
        45        2.0000           -0.3581944              -9.7470
        46        2.0000           -0.3540625              -9.6345 (HOMO)
        47                         -0.2311927              -6.2911 (LUMO)
        48                         -0.2203404              -5.9958
        49                         -0.2053840              -5.5888
        50                         -0.1894003              -5.1538
        51                         -0.1453377              -3.9548
        52                         -0.1243205              -3.3829
        53                         -0.0783783              -2.1328
        54                         -0.0188046              -0.5117
        55                         -0.0083981              -0.2285
        56                         -0.0049461              -0.1346
        57                          0.0017388               0.0473
       ...                                ...                  ...
        89                          1.2606151              34.3031
      -------------------------------------------------------------
                  HL-Gap            0.1228698 Eh            3.3435 eV
             Fermi-level           -0.2926276 Eh           -7.9628 eV

     #   Z          covCN         q      C6AA      α(0)
     1   6 C        3.685    -0.035    21.396     6.622
     2   7 N        2.695    -0.198    25.299     7.470
     3   6 C        2.775     0.228    23.204     7.889
     4   7 N        2.710    -0.197    25.267     7.465
     5   6 C        3.760     0.006    20.515     6.457
     6   6 C        3.794    -0.013    20.807     6.496
     7  16 S        1.988    -0.220   150.425    20.643
     8   6 C        3.795    -0.011    20.776     6.490
     9   6 C        3.215     0.044    26.345     8.350
    10   6 C        3.068     0.031    27.236     8.557
    11   6 C        3.754    -0.113    22.722     6.797
    12   7 N        2.817    -0.097    23.130     7.143
    13   6 C        3.118     0.087    25.896     8.335
    14   7 N        1.917    -0.293    28.451     7.909
    15   7 N        1.841    -0.286    28.270     7.880
    16   6 C        1.851     0.166    27.147     8.417
    17   7 N        0.912    -0.376    29.691     7.880
    18   1 H        0.925     0.077     2.015     2.220
    19   1 H        0.924     0.040     2.454     2.450
    20   1 H        0.924     0.048     2.350     2.397
    21   1 H        0.860     0.186     1.181     1.702
    22   1 H        0.860     0.188     1.170     1.694
    23   1 H        0.924     0.054     2.265     2.354
    24   1 H        0.924     0.076     2.024     2.225
    25   1 H        0.925     0.060     2.195     2.317
    26   1 H        0.925     0.056     2.240     2.341
    27   1 H        0.925     0.059     2.210     2.325
    28   1 H        0.925     0.050     2.322     2.383
    29   1 H        0.925     0.058     2.217     2.329
    30   1 H        0.925     0.048     2.351     2.398
    31   1 H        0.924     0.065     2.139     2.287
    32   1 H        0.860     0.169     1.276     1.770
    33   1 H        0.926     0.039     2.456     2.451

 Mol. C6AA /au·bohr⁶  :      13066.157719
 Mol. C8AA /au·bohr⁸  :     325160.512809
 Mol. α(0) /au        :        176.442245


Wiberg/Mayer (AO) data.
largest (>0.10) Wiberg bond orders for each atom

 ---------------------------------------------------------------------------
     #   Z sym  total        # sym  WBO       # sym  WBO       # sym  WBO
 ---------------------------------------------------------------------------
     1   6 C    3.969 --     2 N    1.013    20 H    0.980    19 H    0.975
                            18 H    0.968
     2   7 N    3.397 --     3 C    1.208     1 C    1.013    21 H    0.907
                            15 N    0.113
     3   6 C    3.968 --    15 N    1.440     2 N    1.208     4 N    1.188
     4   7 N    3.369 --     3 C    1.188     5 C    1.008    22 H    0.906
     5   6 C    3.974 --     4 N    1.008     6 C    0.997    23 H    0.972
                            24 H    0.958
     6   6 C    3.975 --     5 C    0.997     7 S    0.993    26 H    0.970
                            25 H    0.967
     7  16 S    2.084 --     6 C    0.993     8 C    0.955
     8   6 C    3.983 --     9 C    1.039    28 H    0.969    27 H    0.968
                             7 S    0.955
     9   6 C    3.970 --    10 C    1.511    14 N    1.251     8 C    1.039
    10   6 C    3.944 --     9 C    1.511    12 N    1.196    11 C    1.035
                            13 C    0.111
    11   6 C    3.994 --    10 C    1.035    30 H    0.982    29 H    0.973
                            31 H    0.964
    12   7 N    3.590 --    13 C    1.261    10 C    1.196    32 H    0.941
                            14 N    0.105
    13   6 C    3.956 --    14 N    1.533    12 N    1.261    33 H    0.965
                            10 C    0.111
    14   7 N    3.064 --    13 C    1.533     9 C    1.251    12 N    0.105
    15   7 N    3.198 --     3 C    1.440    16 C    1.316    17 N    0.198
                             2 N    0.113
    16   6 C    3.951 --    17 N    2.585    15 N    1.316
    17   7 N    2.943 --    16 C    2.585    15 N    0.198
    18   1 H    0.994 --     1 C    0.968
    19   1 H    0.998 --     1 C    0.975
    20   1 H    0.997 --     1 C    0.980
    21   1 H    0.965 --     2 N    0.907
    22   1 H    0.964 --     4 N    0.906
    23   1 H    0.996 --     5 C    0.972
    24   1 H    0.994 --     5 C    0.958
    25   1 H    0.995 --     6 C    0.967
    26   1 H    0.997 --     6 C    0.970
    27   1 H    0.997 --     8 C    0.968
    28   1 H    0.997 --     8 C    0.969
    29   1 H    0.997 --    11 C    0.973
    30   1 H    0.998 --    11 C    0.982
    31   1 H    0.996 --    11 C    0.964
    32   1 H    0.971 --    12 N    0.941
    33   1 H    0.998 --    13 C    0.965
 ---------------------------------------------------------------------------

[...]
   MERCHANTABILITY or FITNESS FOR A PARTICULAR PURPOSE.  See the
   GNU Lesser General Public License for more details.
   
   Cite this work as:
   * C. Bannwarth, E. Caldeweyher, S. Ehlert, A. Hansen, P. Pracht,
     J. Seibert, S. Spicher, S. Grimme, WIREs Comput. Mol. Sci., 2020, 11,
     e01493. DOI: 10.1002/wcms.1493
   
   for GFN2-xTB:
   * C. Bannwarth, S. Ehlert and S. Grimme., J. Chem. Theory Comput., 2019,
     15, 1652-1671. DOI: 10.1021/acs.jctc.8b01176
   for GFN1-xTB:
   * S. Grimme, C. Bannwarth, P. Shushkov, J. Chem. Theory Comput., 2017,
     13, 1989-2009. DOI: 10.1021/acs.jctc.7b00118
   for GFN0-xTB:
   * P. Pracht, E. Caldeweyher, S. Ehlert, S. Grimme, ChemRxiv, 2019, preprint.
     DOI: 10.26434/chemrxiv.8326202.v1
   for GFN-FF:
   * S. Spicher and S. Grimme, Angew. Chem. Int. Ed., 2020, 59, 15665-15673.
     DOI: 10.1002/anie.202004239
   
   for ALPB and GBSA implicit solvation:
   * S. Ehlert, M. Stahn, S. Spicher, S. Grimme, J. Chem. Theory Comput.,
     2021, 17, 4250-4261. DOI: 10.1021/acs.jctc.1c00471
   
   for ddCOSMO and CPCM-X implicit solvation:
   * M. Stahn, S. Ehlert, S. Grimme, J. Phys. Chem. A,
     2023, XX, XXXX-XXXX. DOI: 10.1021/acs.jpca.3c04382
   
   for DFT-D4:
   * E. Caldeweyher, C. Bannwarth and S. Grimme, J. Chem. Phys., 2017,
     147, 034112. DOI: 10.1063/1.4993215
   * E. Caldeweyher, S. Ehlert, A. Hansen, H. Neugebauer, S. Spicher,
     C. Bannwarth and S. Grimme, J. Chem. Phys., 2019, 150, 154122.
     DOI: 10.1063/1.5090222
   * E. Caldeweyher, J.-M. Mewes, S. Ehlert and S. Grimme, Phys. Chem. Chem. Phys.
     2020, 22, 8499-8512. DOI: 10.1039/D0CP00502A
   
   for sTDA-xTB:
   * S. Grimme and C. Bannwarth, J. Chem. Phys., 2016, 145, 054103.
     DOI: 10.1063/1.4959605
   
   in the mass-spec context:
   * V. Asgeirsson, C. Bauer and S. Grimme, Chem. Sci., 2017, 8, 4879.
     DOI: 10.1039/c7sc00601b
   * J. Koopman and S. Grimme, ACS Omega 2019, 4, 12, 15120-15133.
     DOI: 10.1021/acsomega.9b02011
   
   for metadynamics refer to:
   * S. Grimme, J. Chem. Theory Comput., 2019, 155, 2847-2862
     DOI: 10.1021/acs.jctc.9b00143
   
   for SPH calculations refer to:
   * S. Spicher and S. Grimme, J. Chem. Theory Comput., 2021, 17, 1701-1714
     DOI: 10.1021/acs.jctc.0c01306
   
   for ONIOM refer to:
   * C. Plett, A. Katbashev, S. Ehlert, S. Grimme, M. Bursch,
     Phys. Chem. Chem. Phys., 2023, 25, 17860-17868. DOI: 10.1039/D3CP02178E
   
   for DIPRO refer to:
   * J. Kohn, N. Gildemeister, S. Grimme, D. Fazzi, A. Hansen,
     J. Chem. Phys., 2023, just accepted.
   
   for PTB refer to:
   * S. Grimme, M. Mueller, A. Hansen, J. Chem. Phys., 2023, 158, 124111.
     DOI: 10.1063/5.0137838
   
   with help from (in alphabetical order)
   P. Atkinson, C. Bannwarth, F. Bohle, G. Brandenburg, E. Caldeweyher
   M. Checinski, S. Dohm, S. Ehlert, S. Ehrlich, I. Gerasimov, C. Hölzer
   A. Katbashev, J. Kohn, J. Koopman, C. Lavigne, S. Lehtola, F. März, M. Müller,
   F. Musil, H. Neugebauer, J. Pisarek, C. Plett, P. Pracht, F. Pultar,
   J. Seibert, P. Shushkov, S. Spicher, M. Stahn, M. Steiner, T. Strunk,
   J. Stückrath, T. Rose, and J. Unsleber
   
 * started run on 2025/05/15 at 16:20:00.782     
   ID    Z sym.   atoms
    1    6 C      1, 3, 5, 6, 8-11, 13, 16
    2    7 N      2, 4, 12, 14, 15, 17
    3   16 S      7
    4    1 H      18-33

           -------------------------------------------------
          |                Calculation Setup                |
           -------------------------------------------------

          program call               : xtb /rds/general/user/hgt20/home/callum/QDESCP/Cimetadine_rdkit_conf_1/Cimetadine_rdkit_conf_1.xyz --acc 1 --gfn 2 --chrg 0 --uhf 2 --etemp 300 --input /rds/general/user/hgt20/home/callum/QDESCP/Cimetadine_rdkit_conf_1/Cimetadine_rdkit_conf_1_xtb.inp -P 1
          hostname                   : login-c
          coordinate file            : /rds/general/user/hgt20/home/callum/QDESCP/Cimetadine_rdkit_conf_1/Cimetadine_rdkit_conf_1.xyz
          omp threads                :                     1


           -------------------------------------------------
          |                 G F N 2 - x T B                 |
           -------------------------------------------------

        Reference                      10.1021/acs.jctc.8b01176
      * Hamiltonian:
        H0-scaling (s, p, d)           1.850000    2.230000    2.230000
        zeta-weighting                 0.500000
      * Dispersion:
        s8                             2.700000
        a1                             0.520000
        a2                             5.000000
        s9                             5.000000
      * Repulsion:
        kExp                           1.500000    1.000000
        rExp                           1.000000
      * Coulomb:
        alpha                          2.000000
        third order                    shell-resolved
        anisotropic                    true
        a3                             3.000000
        a5                             4.000000
        cn-shift                       1.200000
        cn-exp                         4.000000
        max-rad                        5.000000


          ...................................................
          :                      SETUP                      :
          :.................................................:
          :  # basis functions                  90          :
          :  # atomic orbitals                  89          :
          :  # shells                           51          :
          :  # electrons                        92          :
          :  max. iterations                   250          :
          :  Hamiltonian                  GFN2-xTB          :
          :  restarted?                      false          :
          :  GBSA solvation                  false          :
          :  PC potential                    false          :
          :  electronic temp.          300.0000000     K    :
          :  accuracy                    1.0000000          :
          :  -> integral cutoff          0.2500000E+02      :
          :  -> integral neglect         0.1000000E-07      :
          :  -> SCF convergence          0.1000000E-05 Eh   :
          :  -> wf. convergence          0.1000000E-03 e    :
          :  Broyden damping             0.4000000          :
          :  net charge                          0          :
          :  unpaired electrons                  2          :
          ...................................................

 iter      E             dE          RMSdq      gap      omega  full diag
   1    -50.6249621 -0.506250E+02  0.442E+00    0.49       0.0  T
   2    -50.6162093  0.875276E-02  0.358E+00    1.65       1.0  T
   3    -50.7166232 -0.100414E+00  0.282E+00    0.33       1.0  T
   4    -50.7365686 -0.199454E-01  0.191E+00    0.60       1.0  T
   5    -50.7275509  0.901770E-02  0.224E+00    0.20       1.0  T
   6    -50.7668550 -0.393041E-01  0.182E+00    0.45       1.0  T
   7    -50.8479220 -0.810671E-01  0.120E+00    0.13       1.0  T
   8    -50.8831785 -0.352565E-01  0.910E-01    0.12       1.0  T
   9    -50.8024087  0.807699E-01  0.135E+00    0.19       1.0  T
  10    -50.8599877 -0.575791E-01  0.998E-01    0.11       1.0  T
  11    -50.9173742 -0.573864E-01  0.514E-01    0.07       1.0  T
  12    -50.8819512  0.354230E-01  0.830E-01    0.13       1.0  T
  13    -50.9243685 -0.424173E-01  0.176E-01    0.07       1.0  T
  14    -50.9246171 -0.248617E-03  0.854E-02    0.07       1.0  T
  15    -50.9250078 -0.390623E-03  0.423E-02    0.07       1.0  T
  16    -50.9247271  0.280642E-03  0.698E-02    0.07       1.0  T
  17    -50.9243310  0.396130E-03  0.101E-01    0.07       1.0  T
  18    -50.9249675 -0.636462E-03  0.330E-02    0.07       1.0  T
  19    -50.9250012 -0.337599E-04  0.223E-02    0.07       1.0  T
  20    -50.9250301 -0.288383E-04  0.969E-03    0.07       1.8  T
  21    -50.9250345 -0.442788E-05  0.406E-03    0.07       4.3  T
  22    -50.9250352 -0.678108E-06  0.266E-03    0.07       6.6  T
  23    -50.9250356 -0.425375E-06  0.364E-04    0.07      47.8  T
  24    -50.9250356 -0.329166E-09  0.253E-04    0.07      68.8  T

   *** convergence criteria satisfied after 24 iterations ***

         #    Occupation            Energy/Eh            Energy/eV
      -------------------------------------------------------------
         1        2.0000           -0.7209086             -19.6169
       ...           ...                  ...                  ...
        41        2.0000           -0.3980779             -10.8323
        42        2.0000           -0.3937802             -10.7153
        43        1.9997           -0.3844791             -10.4622
        44        1.9847           -0.3807214             -10.3600
        45        1.7930           -0.3780432             -10.2871
        46        1.2226           -0.3755788             -10.2200
        47        0.7789           -0.2141920              -5.8285 (HOMO)
        48        0.1838           -0.2115791              -5.7574 (LUMO)
        49        0.0372           -0.2099056              -5.7118
        50                         -0.1860750              -5.0634
        51                         -0.1460477              -3.9742
        52                         -0.1435048              -3.9050
       ...                                ...                  ...
        89                          1.2388761              33.7115
      -------------------------------------------------------------
                  HL-Gap            0.0026129 Eh            0.0711 eV
             Fermi-level           -0.2948812 Eh           -8.0241 eV

 transition dipole moment (au) for excitation:          46          47
     X       Y       Z   
  -0.9208  -0.0931   0.0555  total (au/Debye):    0.927   2.357
 dE (eV)             :    4.392
 oscillator strength :  0.13079E+00

 SCC (total)                   0 d,  0 h,  0 min,  0.101 sec
 SCC setup                      ...        0 min,  0.000 sec (  0.252%)
 Dispersion                     ...        0 min,  0.000 sec (  0.294%)
 classical contributions        ...        0 min,  0.000 sec (  0.092%)
 integral evaluation            ...        0 min,  0.006 sec (  5.671%)
 iterations                     ...        0 min,  0.034 sec ( 33.434%)
 molecular gradient             ...        0 min,  0.055 sec ( 54.633%)
 printout                       ...        0 min,  0.006 sec (  5.618%)

         :::::::::::::::::::::::::::::::::::::::::::::::::::::
         ::                     SUMMARY                     ::
         :::::::::::::::::::::::::::::::::::::::::::::::::::::
         :: total energy             -50.213644872292 Eh    ::
         :: gradient norm              0.112026184335 Eh/a0 ::
         :: HOMO-LUMO gap              0.071101561687 eV    ::
         ::.................................................::
         :: SCC energy               -50.924575929414 Eh    ::
         :: -> isotropic ES            0.050159293416 Eh    ::
         :: -> anisotropic ES          0.004249952552 Eh    ::
         :: -> anisotropic XC          0.036267318354 Eh    ::
         :: -> dispersion             -0.034518074911 Eh    ::
         :: repulsion energy           0.710931057122 Eh    ::
         :: add. restraining           0.000000000000 Eh    ::
         :: total charge               0.000000000017 e     ::
         :::::::::::::::::::::::::::::::::::::::::::::::::::::

           -------------------------------------------------
          |                Property Printout                |
           -------------------------------------------------

    * Orbital Energies and Occupations

         #    Occupation            Energy/Eh            Energy/eV
      -------------------------------------------------------------
         1        2.0000           -0.7209086             -19.6169
       ...           ...                  ...                  ...
        35        2.0000           -0.4672539             -12.7146
        36        2.0000           -0.4615175             -12.5585
        37        2.0000           -0.4544439             -12.3660
        38        2.0000           -0.4482046             -12.1963
        39        2.0000           -0.4343596             -11.8195
        40        2.0000           -0.4040161             -10.9938
        41        2.0000           -0.3980779             -10.8323
        42        2.0000           -0.3937802             -10.7153
        43        1.9997           -0.3844791             -10.4622
        44        1.9847           -0.3807214             -10.3600
        45        1.7930           -0.3780432             -10.2871
        46        1.2226           -0.3755788             -10.2200
        47        0.7789           -0.2141920              -5.8285 (HOMO)
        48        0.1838           -0.2115791              -5.7574 (LUMO)
        49        0.0372           -0.2099056              -5.7118
        50                         -0.1860750              -5.0634
        51                         -0.1460477              -3.9742
        52                         -0.1435048              -3.9050
        53                         -0.0977599              -2.6602
        54                         -0.0247385              -0.6732
        55                         -0.0132964              -0.3618
        56                         -0.0067677              -0.1842
        57                          0.0046505               0.1265
        58                          0.0186270               0.5069
       ...                                ...                  ...
        89                          1.2388761              33.7115
      -------------------------------------------------------------
                  HL-Gap            0.0026129 Eh            0.0711 eV
             Fermi-level           -0.2948812 Eh           -8.0241 eV

     #   Z          covCN         q      C6AA      α(0)
     1   6 C        3.685    -0.036    21.419     6.626
     2   7 N        2.695    -0.194    25.210     7.457
     3   6 C        2.775     0.191    23.925     8.011
     4   7 N        2.710    -0.182    24.944     7.418
     5   6 C        3.760     0.009    20.467     6.449
     6   6 C        3.794    -0.024    21.010     6.527
     7  16 S        1.988    -0.158   147.728    20.457
     8   6 C        3.795    -0.031    21.125     6.545
     9   6 C        3.215     0.037    26.497     8.374
    10   6 C        3.068     0.013    27.663     8.624
    11   6 C        3.754    -0.109    22.636     6.784
    12   7 N        2.817    -0.113    23.469     7.195
    13   6 C        3.118     0.085    25.956     8.345
    14   7 N        1.917    -0.313    28.967     7.980
    15   7 N        1.841    -0.233    26.954     7.694
    16   6 C        1.851     0.165    27.174     8.421
    17   7 N        0.912    -0.334    28.586     7.732
    18   1 H        0.925     0.072     2.061     2.245
    19   1 H        0.924     0.043     2.406     2.426
    20   1 H        0.924     0.053     2.287     2.365
    21   1 H        0.860     0.192     1.146     1.677
    22   1 H        0.860     0.195     1.129     1.665
    23   1 H        0.924     0.059     2.208     2.324
    24   1 H        0.924     0.078     2.001     2.212
    25   1 H        0.925     0.065     2.137     2.286
    26   1 H        0.925     0.055     2.262     2.352
    27   1 H        0.925     0.043     2.406     2.426
    28   1 H        0.925     0.043     2.409     2.427
    29   1 H        0.925     0.050     2.318     2.381
    30   1 H        0.925     0.040     2.446     2.446
    31   1 H        0.924     0.055     2.255     2.348
    32   1 H        0.860     0.158     1.351     1.821
    33   1 H        0.926     0.025     2.654     2.548

 Mol. C6AA /au·bohr⁶  :      13086.039719
 Mol. C8AA /au·bohr⁸  :     325210.938732
 Mol. α(0) /au        :        176.586608


Wiberg/Mayer (AO) data.
largest (>0.10) Wiberg bond orders for each atom

 ---------------------------------------------------------------------------
     #   Z sym  total        # sym  WBO       # sym  WBO       # sym  WBO
 ---------------------------------------------------------------------------
     1   6 C    3.966 --     2 N    1.018    20 H    0.975    19 H    0.971
                            18 H    0.968
     2   7 N    3.295 --     3 C    1.167     1 C    1.018    21 H    0.902
     3   6 C    3.773 --    15 N    1.309     2 N    1.167     4 N    1.142
     4   7 N    3.337 --     3 C    1.142     5 C    1.025    22 H    0.900
     5   6 C    3.961 --     4 N    1.025    23 H    0.970     6 C    0.965
                            24 H    0.954
     6   6 C    3.945 --     7 S    0.975    26 H    0.967    25 H    0.967
                             5 C    0.965
     7  16 S    2.197 --     6 C    0.975     8 C    0.829
     8   6 C    3.923 --     9 C    1.060    27 H    0.970    28 H    0.967
                             7 S    0.829
     9   6 C    3.909 --    10 C    1.391    14 N    1.241     8 C    1.060
    10   6 C    3.801 --     9 C    1.391    12 N    1.156    11 C    1.035
    11   6 C    3.994 --    10 C    1.035    30 H    0.982    29 H    0.973
                            31 H    0.964
    12   7 N    3.514 --    13 C    1.224    10 C    1.156    32 H    0.945
                            14 N    0.103
    13   6 C    3.891 --    14 N    1.511    12 N    1.224    33 H    0.966
    14   7 N    3.037 --    13 C    1.511     9 C    1.241    12 N    0.103
    15   7 N    3.082 --    16 C    1.390     3 C    1.309    17 N    0.166
    16   6 C    3.873 --    17 N    2.410    15 N    1.390
    17   7 N    2.649 --    16 C    2.410    15 N    0.166
    18   1 H    0.994 --     1 C    0.968
    19   1 H    0.989 --     1 C    0.971
    20   1 H    0.991 --     1 C    0.975
    21   1 H    0.962 --     2 N    0.902
    22   1 H    0.960 --     4 N    0.900
    23   1 H    0.994 --     5 C    0.970
    24   1 H    0.990 --     5 C    0.954
    25   1 H    0.992 --     6 C    0.967
    26   1 H    0.992 --     6 C    0.967
    27   1 H    0.997 --     8 C    0.970
    28   1 H    0.995 --     8 C    0.967
    29   1 H    0.994 --    11 C    0.973
    30   1 H    0.997 --    11 C    0.982
    31   1 H    0.989 --    11 C    0.964
    32   1 H    0.975 --    12 N    0.945
    33   1 H    0.999 --    13 C    0.966
 ---------------------------------------------------------------------------

Topologies differ in total number of bonds
Writing topology from bond orders to xtbtopo.mol

molecular dipole:
                 x           y           z       tot (Debye)
 q only:       -2.679      -0.170      -0.270
   full:       -3.448      -0.751      -0.527       9.069
molecular quadrupole (traceless):
                xx          xy          yy          xz          yz          zz
 q only:      -21.871       1.325      12.262       6.106       3.280       9.608
  q+dip:      -21.868       4.790      12.202      13.319       1.200       9.666
   full:      -24.247       5.046      13.751      12.947       1.564      10.496


           -------------------------------------------------
          | TOTAL ENERGY              -50.213644872292 Eh   |
          | GRADIENT NORM               0.112026184335 Eh/α |
          | HOMO-LUMO GAP               0.071101561687 eV   |
           -------------------------------------------------

------------------------------------------------------------------------
 * finished run on 2025/05/15 at 16:20:00.894     
------------------------------------------------------------------------
 total:
 * wall-time:     0 d,  0 h,  0 min,  0.112 sec
 *  cpu-time:     0 d,  0 h,  0 min,  0.072 sec
 * ratio c/w:     0.642 speedup
 SCF:
 * wall-time:     0 d,  0 h,  0 min,  0.102 sec
 *  cpu-time:     0 d,  0 h,  0 min,  0.062 sec
 * ratio c/w:     0.613 speedup


