29
 energy: -55.290408210343 gnorm: 0.000403054191 xtb: 6.7.1 (edcfbbe)
O            1.37377061616648        0.19131244701335        1.84215966690871
C            2.27109578082842       -0.48447978356898        1.01384039524402
C            2.30884910104687        0.04437357962465       -0.43933903874658
C            2.06787690887920        1.55822358366785       -0.51054064658796
C            0.54485095657650        1.65687385698724       -0.73726612320593
C            0.20506787839935        0.28974727939570       -1.40198555934998
N           -0.95472687493519       -0.31908772248291       -0.79469945275211
C           -2.10910523899994       -0.71972538777298       -1.36105459281771
N           -2.89765317050889       -1.24488365358485       -0.45997081128138
C           -2.17553936676817       -1.15959785899537        0.68677167827013
C           -2.67152098352830       -1.65943500439559        1.99323289863893
N           -3.94423236484778       -2.09981711721115        1.90831675095943
O           -2.00832181924664       -1.66774354263307        3.00527838241361
N           -0.99796488931589       -0.59951403067026        0.50867135171013
O            1.31456452658696       -0.54546963961727       -1.27500430573858
O            0.15960391798223        2.74126837045684       -1.51135811191670
O            2.69237490652929        2.16504954643482       -1.62063741051211
H            0.47401291220148       -0.15161204598089        1.69207673831698
H            2.06281875461654       -1.55969680656583        0.97493055934206
H            3.26358203483689       -0.33582097768987        1.45098400102273
H            3.26847314815153       -0.23337307421945       -0.88982644934060
H            2.36088729694277        2.04695279165949        0.42434063203520
H            0.02743920402306        1.72567443278903        0.22450670165847
H           -0.03284865447858        0.42544162043630       -2.46643639735344
H           -2.33302466194771       -0.60993904981774       -2.40158122601050
H           -4.39527354545569       -2.48033664307792        2.72253440543159
H           -4.41696488489303       -2.08077410021589        1.02088869141856
H            0.89643162884936        2.94871966981740       -2.10619985804893
H            3.64547688230891        2.15756926021893       -1.49263286970669
