----- Optimization -----
      -----------------------------------------------------------      
     |                   =====================                   |     
     |                           x T B                           |     
     |                   =====================                   |     
     |                         S. Grimme                         |     
     |          Mulliken Center for Theoretical Chemistry        |     
     |                    University of Bonn                     |     
      -----------------------------------------------------------      

   * xtb version 6.7.1 (edcfbbe) compiled by 'conda@3ef47c1a292c' on 2024-11-25

   xtb is free software: you can redistribute it and/or modify it under
   the terms of the GNU Lesser General Public License as published by
   the Free Software Foundation, either version 3 of the License, or
   (at your option) any later version.
   
   xtb is distributed in the hope that it will be useful,
   but WITHOUT ANY WARRANTY; without even the implied warranty of
   MERCHANTABILITY or FITNESS FOR A PARTICULAR PURPOSE.  See the
   GNU Lesser General Public License for more details.
   
   Cite this work as:
   * C. Bannwarth, E. Caldeweyher, S. Ehlert, A. Hansen, P. Pracht,
     J. Seibert, S. Spicher, S. Grimme, WIREs Comput. Mol. Sci., 2020, 11,
     e01493. DOI: 10.1002/wcms.1493
   
   for GFN2-xTB:
   * C. Bannwarth, S. Ehlert and S. Grimme., J. Chem. Theory Comput., 2019,
     15, 1652-1671. DOI: 10.1021/acs.jctc.8b01176
   for GFN1-xTB:
   * S. Grimme, C. Bannwarth, P. Shushkov, J. Chem. Theory Comput., 2017,
     13, 1989-2009. DOI: 10.1021/acs.jctc.7b00118
   for GFN0-xTB:
   * P. Pracht, E. Caldeweyher, S. Ehlert, S. Grimme, ChemRxiv, 2019, preprint.
     DOI: 10.26434/chemrxiv.8326202.v1
   for GFN-FF:
   * S. Spicher and S. Grimme, Angew. Chem. Int. Ed., 2020, 59, 15665-15673.
     DOI: 10.1002/anie.202004239
   
   for ALPB and GBSA implicit solvation:
   * S. Ehlert, M. Stahn, S. Spicher, S. Grimme, J. Chem. Theory Comput.,
     2021, 17, 4250-4261. DOI: 10.1021/acs.jctc.1c00471
   
   for ddCOSMO and CPCM-X implicit solvation:
   * M. Stahn, S. Ehlert, S. Grimme, J. Phys. Chem. A,
     2023, XX, XXXX-XXXX. DOI: 10.1021/acs.jpca.3c04382
   
   for DFT-D4:
   * E. Caldeweyher, C. Bannwarth and S. Grimme, J. Chem. Phys., 2017,
     147, 034112. DOI: 10.1063/1.4993215
   * E. Caldeweyher, S. Ehlert, A. Hansen, H. Neugebauer, S. Spicher,
     C. Bannwarth and S. Grimme, J. Chem. Phys., 2019, 150, 154122.
     DOI: 10.1063/1.5090222
   * E. Caldeweyher, J.-M. Mewes, S. Ehlert and S. Grimme, Phys. Chem. Chem. Phys.
     2020, 22, 8499-8512. DOI: 10.1039/D0CP00502A
   
   for sTDA-xTB:
   * S. Grimme and C. Bannwarth, J. Chem. Phys., 2016, 145, 054103.
     DOI: 10.1063/1.4959605
   
   in the mass-spec context:
   * V. Asgeirsson, C. Bauer and S. Grimme, Chem. Sci., 2017, 8, 4879.
     DOI: 10.1039/c7sc00601b
   * J. Koopman and S. Grimme, ACS Omega 2019, 4, 12, 15120-15133.
     DOI: 10.1021/acsomega.9b02011
   
   for metadynamics refer to:
   * S. Grimme, J. Chem. Theory Comput., 2019, 155, 2847-2862
     DOI: 10.1021/acs.jctc.9b00143
   
   for SPH calculations refer to:
   * S. Spicher and S. Grimme, J. Chem. Theory Comput., 2021, 17, 1701-1714
     DOI: 10.1021/acs.jctc.0c01306
   
   for ONIOM refer to:
   * C. Plett, A. Katbashev, S. Ehlert, S. Grimme, M. Bursch,
     Phys. Chem. Chem. Phys., 2023, 25, 17860-17868. DOI: 10.1039/D3CP02178E
   
   for DIPRO refer to:
   * J. Kohn, N. Gildemeister, S. Grimme, D. Fazzi, A. Hansen,
     J. Chem. Phys., 2023, just accepted.
   
   for PTB refer to:
   * S. Grimme, M. Mueller, A. Hansen, J. Chem. Phys., 2023, 158, 124111.
     DOI: 10.1063/5.0137838
   
   with help from (in alphabetical order)
   P. Atkinson, C. Bannwarth, F. Bohle, G. Brandenburg, E. Caldeweyher
   M. Checinski, S. Dohm, S. Ehlert, S. Ehrlich, I. Gerasimov, C. Hölzer
   A. Katbashev, J. Kohn, J. Koopman, C. Lavigne, S. Lehtola, F. März, M. Müller,
   F. Musil, H. Neugebauer, J. Pisarek, C. Plett, P. Pracht, F. Pultar,
   J. Seibert, P. Shushkov, S. Spicher, M. Stahn, M. Steiner, T. Strunk,
   J. Stückrath, T. Rose, and J. Unsleber
   
 * started run on 2025/05/15 at 16:32:31.613     
   ID    Z sym.   atoms
    1    8 O      1, 31, 35, 43, 44
    2    6 C      2, 4-14, 16, 17, 19, 21-24, 26-29, 32-34, 36-42, 45-47, 49
    3    7 N      3, 15, 18, 20, 30, 48
    4   16 S      25, 50
    5    1 H      51-98

           -------------------------------------------------
          |                Calculation Setup                |
           -------------------------------------------------

          program call               : xtb /rds/general/user/hgt20/home/callum/QDESCP/Ritonavir_rdkit_conf_11/Ritonavir_rdkit_conf_11.xyz --opt normal --acc 1 --gfn 2 --chrg 0 --uhf 0 -P 1
          hostname                   : login-c
          coordinate file            : /rds/general/user/hgt20/home/callum/QDESCP/Ritonavir_rdkit_conf_11/Ritonavir_rdkit_conf_11.xyz
          omp threads                :                     1


           -------------------------------------------------
          |                 G F N 2 - x T B                 |
           -------------------------------------------------

        Reference                      10.1021/acs.jctc.8b01176
      * Hamiltonian:
        H0-scaling (s, p, d)           1.850000    2.230000    2.230000
        zeta-weighting                 0.500000
      * Dispersion:
        s8                             2.700000
        a1                             0.520000
        a2                             5.000000
        s9                             5.000000
      * Repulsion:
        kExp                           1.500000    1.000000
        rExp                           1.000000
      * Coulomb:
        alpha                          2.000000
        third order                    shell-resolved
        anisotropic                    true
        a3                             3.000000
        a5                             4.000000
        cn-shift                       1.200000
        cn-exp                         4.000000
        max-rad                        5.000000


          ...................................................
          :                      SETUP                      :
          :.................................................:
          :  # basis functions                 260          :
          :  # atomic orbitals                 258          :
          :  # shells                          150          :
          :  # electrons                       268          :
          :  max. iterations                   250          :
          :  Hamiltonian                  GFN2-xTB          :
          :  restarted?                      false          :
          :  GBSA solvation                  false          :
          :  PC potential                    false          :
          :  electronic temp.          300.0000000     K    :
          :  accuracy                    1.0000000          :
          :  -> integral cutoff          0.2500000E+02      :
          :  -> integral neglect         0.1000000E-07      :
          :  -> SCF convergence          0.1000000E-05 Eh   :
          :  -> wf. convergence          0.1000000E-03 e    :
          :  Broyden damping             0.4000000          :
          :  net charge                          0          :
          :  unpaired electrons                  0          :
          ...................................................

 iter      E             dE          RMSdq      gap      omega  full diag
   1   -149.8115554 -0.149812E+03  0.384E+00    2.83       0.0  T
   2   -150.0259883 -0.214433E+00  0.216E+00    2.96       1.0  T
   3   -150.0255256  0.462713E-03  0.980E-01    2.83       1.0  T
   4   -150.0279919 -0.246633E-02  0.421E-01    2.57       1.0  T
   5   -150.0405653 -0.125733E-01  0.128E-01    2.54       1.0  T
   6   -150.0411570 -0.591773E-03  0.573E-02    2.57       1.0  T
   7   -150.0412413 -0.842198E-04  0.258E-02    2.56       1.0  T
   8   -150.0412658 -0.245696E-04  0.105E-02    2.57       1.0  T
   9   -150.0412679 -0.211325E-05  0.418E-03    2.57       2.4  T
  10   -150.0412682 -0.259452E-06  0.156E-03    2.57       6.5  T
  11   -150.0412683 -0.625061E-07  0.772E-04    2.57      13.1  T
  12   -150.0412683 -0.173979E-07  0.378E-04    2.57      26.7  T

   *** convergence criteria satisfied after 12 iterations ***

         #    Occupation            Energy/Eh            Energy/eV
      -------------------------------------------------------------
         1        2.0000           -0.7550993             -20.5473
       ...           ...                  ...                  ...
       128        2.0000           -0.3978972             -10.8273
       129        2.0000           -0.3961826             -10.7807
       130        2.0000           -0.3923600             -10.6767
       131        2.0000           -0.3913921             -10.6503
       132        2.0000           -0.3886705             -10.5763
       133        2.0000           -0.3784991             -10.2995
       134        2.0000           -0.3706111             -10.0848 (HOMO)
       135                         -0.2762464              -7.5170 (LUMO)
       136                         -0.2596024              -7.0641
       137                         -0.2316534              -6.3036
       138                         -0.2309198              -6.2836
       139                         -0.2215944              -6.0299
       ...                                ...                  ...
       258                          0.6448404              17.5470
      -------------------------------------------------------------
                  HL-Gap            0.0943647 Eh            2.5678 eV
             Fermi-level           -0.3234287 Eh           -8.8009 eV

 SCC (total)                   0 d,  0 h,  0 min,  0.686 sec
 SCC setup                      ...        0 min,  0.002 sec (  0.219%)
 Dispersion                     ...        0 min,  0.002 sec (  0.345%)
 classical contributions        ...        0 min,  0.046 sec (  6.673%)
 integral evaluation            ...        0 min,  0.029 sec (  4.154%)
 iterations                     ...        0 min,  0.309 sec ( 44.961%)
 molecular gradient             ...        0 min,  0.298 sec ( 43.485%)
 printout                       ...        0 min,  0.001 sec (  0.162%)

         :::::::::::::::::::::::::::::::::::::::::::::::::::::
         ::                     SUMMARY                     ::
         :::::::::::::::::::::::::::::::::::::::::::::::::::::
         :: total energy            -148.161351084868 Eh    ::
         :: gradient norm              0.113518519792 Eh/a0 ::
         :: HOMO-LUMO gap              2.567793677397 eV    ::
         ::.................................................::
         :: SCC energy              -150.037595008475 Eh    ::
         :: -> isotropic ES            0.191282524661 Eh    ::
         :: -> anisotropic ES          0.014696216205 Eh    ::
         :: -> anisotropic XC          0.065984024517 Eh    ::
         :: -> dispersion             -0.113217391690 Eh    ::
         :: repulsion energy           1.876243923607 Eh    ::
         :: add. restraining           0.000000000000 Eh    ::
         :: total charge               0.000000000000 e     ::
         :::::::::::::::::::::::::::::::::::::::::::::::::::::

      ----------------------------------------------------------- 
     |                   =====================                   |
     |                        A N C O P T                        |
     |                   =====================                   |
     |               Approximate Normal Coordinate               |
     |                Rational Function Optimizer                |
      ----------------------------------------------------------- 
      ----------------------------------------------------------- 
     |                   =====================                   |
     |                        A N C O P T                        |
     |                   =====================                   |
     |               Approximate Normal Coordinate               |
     |                Rational Function Optimizer                |
      ----------------------------------------------------------- 

          ...................................................
          :                      SETUP                      :
          :.................................................:
          :   optimization level            normal          :
          :   max. optcycles                   294          :
          :   ANC micro-cycles                  20          :
          :   degrees of freedom               288          :
          :.................................................:
          :   RF solver                   davidson          :
          :   write xtbopt.log                true          :
          :   linear?                        false          :
          :   energy convergence         0.5000000E-05 Eh   :
          :   grad. convergence          0.1000000E-02 Eh/α :
          :   maxmium RF displ.          1.0000000          :
          :   Hlow (freq-cutoff)         0.1000000E-01      :
          :   Hmax (freq-cutoff)         5.0000000          :
          :   S6 in model hess.         20.0000000          :
          ...................................................

generating ANC from exact Hessian ...
Using Lindh-Hessian (1995)
 Shifting diagonal of input Hessian by    9.9677608311118486E-003
 Lowest  eigenvalues of input Hessian
    0.000000    0.000000    0.000000    0.000000    0.000000    0.000000
    0.010000    0.010026    0.010060    0.010099    0.010136    0.010191
    0.010227    0.010299    0.010367    0.010499    0.010643    0.010717
 Highest eigenvalues
    1.945138    2.040239    2.090565    2.210164    2.363228    2.478382


........................................................................
.............................. CYCLE    1 ..............................
........................................................................

 iter      E             dE          RMSdq      gap      omega  full diag
   1   -150.0412683 -0.150041E+03  0.122E-04    2.57       0.0  T
   2   -150.0412683 -0.341743E-09  0.808E-05    2.57     125.0  T
   3   -150.0412683 -0.326764E-09  0.486E-05    2.57     208.0  T
     SCC iter.                  ...        0 min,  0.094 sec
     gradient                   ...        0 min,  0.237 sec
 * total energy  :  -148.1613511 Eh     change       -0.3742969E-08 Eh
   gradient norm :     0.1135241 Eh/α   predicted     0.0000000E+00 (-100.00%)
   displ. norm   :     0.3400852 α      lambda       -0.2138907E-01
   maximum displ.:     0.0947193 α      in ANC's #67, #29, #102, ...

........................................................................
.............................. CYCLE    2 ..............................
........................................................................

 iter      E             dE          RMSdq      gap      omega  full diag
   1   -150.1390310 -0.150139E+03  0.160E-01    2.60       0.0  T
   2   -150.1393027 -0.271750E-03  0.100E-01    2.58       1.0  T
   3   -150.1392658  0.368959E-04  0.576E-02    2.59       1.0  T
   4   -150.1393733 -0.107459E-03  0.256E-02    2.60       1.0  T
   5   -150.1394127 -0.394164E-04  0.508E-03    2.60       2.0  T
   6   -150.1394131 -0.402960E-06  0.267E-03    2.59       3.8  T
   7   -150.1394133 -0.230114E-06  0.102E-03    2.60       9.9  T
   8   -150.1394134 -0.266454E-07  0.419E-04    2.60      24.1  T
   9   -150.1394134 -0.287162E-08  0.190E-04    2.60      53.0  T
     SCC iter.                  ...        0 min,  0.212 sec
     gradient                   ...        0 min,  0.292 sec
 * total energy  :  -148.1757881 Eh     change       -0.1443701E-01 Eh
   gradient norm :     0.0453822 Eh/α   predicted    -0.1193927E-01 ( -17.30%)
   displ. norm   :     0.3412102 α      lambda       -0.5882741E-02
   maximum displ.:     0.1231495 α      in ANC's #29, #34, #67, ...

........................................................................
.............................. CYCLE    3 ..............................
........................................................................

 iter      E             dE          RMSdq      gap      omega  full diag
   1   -150.1844114 -0.150184E+03  0.967E-02    2.59       0.0  T
   2   -150.1845743 -0.162899E-03  0.607E-02    2.58       1.0  T
   3   -150.1845911 -0.168013E-04  0.342E-02    2.59       1.0  T
   4   -150.1846055 -0.144779E-04  0.188E-02    2.59       1.0  T
   5   -150.1846264 -0.208543E-04  0.315E-03    2.59       3.2  T
   6   -150.1846266 -0.256723E-06  0.165E-03    2.59       6.1  T
   7   -150.1846267 -0.957911E-07  0.558E-04    2.59      18.1  T
   8   -150.1846267 -0.633989E-08  0.228E-04    2.59      44.4  T
     SCC iter.                  ...        0 min,  0.200 sec
     gradient                   ...        0 min,  0.228 sec
 * total energy  :  -148.1794501 Eh     change       -0.3662005E-02 Eh
   gradient norm :     0.0170201 Eh/α   predicted    -0.3287348E-02 ( -10.23%)
   displ. norm   :     0.3007199 α      lambda       -0.1610536E-02
   maximum displ.:     0.1177183 α      in ANC's #29, #14, #22, ...

........................................................................
.............................. CYCLE    4 ..............................
........................................................................

 iter      E             dE          RMSdq      gap      omega  full diag
   1   -150.1914460 -0.150191E+03  0.513E-02    2.57       0.0  T
   2   -150.1914826 -0.366149E-04  0.298E-02    2.57       1.0  T
   3   -150.1914816  0.106370E-05  0.152E-02    2.58       1.0  T
   4   -150.1914840 -0.247431E-05  0.802E-03    2.58       1.3  T
   5   -150.1914887 -0.465646E-05  0.143E-03    2.58       7.1  T
   6   -150.1914887 -0.463168E-07  0.787E-04    2.58      12.8  T
   7   -150.1914888 -0.219925E-07  0.270E-04    2.58      37.4  T
     SCC iter.                  ...        0 min,  0.127 sec
     gradient                   ...        0 min,  0.259 sec
 * total energy  :  -148.1806789 Eh     change       -0.1228767E-02 Eh
   gradient norm :     0.0124802 Eh/α   predicted    -0.8781118E-03 ( -28.54%)
   displ. norm   :     0.4348803 α      lambda       -0.1529798E-02
   maximum displ.:     0.1495861 α      in ANC's #14, #29, #22, ...

........................................................................
.............................. CYCLE    5 ..............................
........................................................................

 iter      E             dE          RMSdq      gap      omega  full diag
   1   -150.1899597 -0.150190E+03  0.665E-02    2.55       0.0  T
   2   -150.1900000 -0.402490E-04  0.375E-02    2.57       1.0  T
   3   -150.1899993  0.701866E-06  0.145E-02    2.57       1.0  T
   4   -150.1900015 -0.226826E-05  0.537E-03    2.58       1.9  T
   5   -150.1900037 -0.219272E-05  0.165E-03    2.57       6.1  T
   6   -150.1900038 -0.375822E-07  0.937E-04    2.57      10.8  T
   7   -150.1900038 -0.312639E-07  0.360E-04    2.57      28.1  T
     SCC iter.                  ...        0 min,  0.164 sec
     gradient                   ...        0 min,  0.221 sec
 * total energy  :  -148.1817888 Eh     change       -0.1109935E-02 Eh
   gradient norm :     0.0121412 Eh/α   predicted    -0.9095634E-03 ( -18.05%)
   displ. norm   :     0.4297792 α      lambda       -0.1008601E-02
   maximum displ.:     0.1689288 α      in ANC's #14, #32, #22, ...

........................................................................
.............................. CYCLE    6 ..............................
........................................................................

 iter      E             dE          RMSdq      gap      omega  full diag
   1   -150.1864395 -0.150186E+03  0.610E-02    2.56       0.0  T
   2   -150.1864611 -0.216560E-04  0.349E-02    2.57       1.0  T
   3   -150.1864602  0.944158E-06  0.105E-02    2.57       1.0  T
   4   -150.1864618 -0.159706E-05  0.424E-03    2.58       2.4  T
   5   -150.1864631 -0.133123E-05  0.149E-03    2.58       6.8  T
   6   -150.1864632 -0.452070E-07  0.688E-04    2.58      14.7  T
   7   -150.1864632 -0.151354E-07  0.257E-04    2.58      39.3  T
     SCC iter.                  ...        0 min,  0.166 sec
     gradient                   ...        0 min,  0.219 sec
 * total energy  :  -148.1825665 Eh     change       -0.7776767E-03 Eh
   gradient norm :     0.0139025 Eh/α   predicted    -0.5974544E-03 ( -23.17%)
   displ. norm   :     0.4895464 α      lambda       -0.1007679E-02
   maximum displ.:     0.2078396 α      in ANC's #14, #9, #32, ...

........................................................................
.............................. CYCLE    7 ..............................
........................................................................

 iter      E             dE          RMSdq      gap      omega  full diag
   1   -150.1838431 -0.150184E+03  0.681E-02    2.58       0.0  T
   2   -150.1838586 -0.155613E-04  0.395E-02    2.59       1.0  T
   3   -150.1838537  0.491345E-05  0.109E-02    2.59       1.0  T
   4   -150.1838591 -0.535227E-05  0.492E-03    2.59       2.1  T
   5   -150.1838609 -0.186361E-05  0.151E-03    2.59       6.7  T
   6   -150.1838610 -0.259144E-07  0.719E-04    2.59      14.1  T
   7   -150.1838610 -0.214296E-07  0.271E-04    2.59      37.3  T
     SCC iter.                  ...        0 min,  0.115 sec
     gradient                   ...        0 min,  0.220 sec
 * total energy  :  -148.1833637 Eh     change       -0.7972547E-03 Eh
   gradient norm :     0.0138082 Eh/α   predicted    -0.6247871E-03 ( -21.63%)
   displ. norm   :     0.5059539 α      lambda       -0.9910741E-03
   maximum displ.:     0.2222709 α      in ANC's #14, #9, #11, ...

........................................................................
.............................. CYCLE    8 ..............................
........................................................................

 iter      E             dE          RMSdq      gap      omega  full diag
   1   -150.1845350 -0.150185E+03  0.720E-02    2.60       0.0  T
   2   -150.1845457 -0.107586E-04  0.420E-02    2.60       1.0  T
   3   -150.1845401  0.560203E-05  0.103E-02    2.60       1.0  T
   4   -150.1845469 -0.674312E-05  0.393E-03    2.60       2.6  T
   5   -150.1845479 -0.106810E-05  0.152E-03    2.60       6.7  T
   6   -150.1845480 -0.262524E-07  0.757E-04    2.60      13.3  T
   7   -150.1845480 -0.297570E-07  0.275E-04    2.60      36.7  T
     SCC iter.                  ...        0 min,  0.126 sec
     gradient                   ...        0 min,  0.262 sec
 * total energy  :  -148.1841344 Eh     change       -0.7706105E-03 Eh
   gradient norm :     0.0112104 Eh/α   predicted    -0.6224394E-03 ( -19.23%)
   displ. norm   :     0.4876390 α      lambda       -0.7814617E-03
   maximum displ.:     0.2178359 α      in ANC's #14, #9, #11, ...

........................................................................
.............................. CYCLE    9 ..............................
........................................................................

 iter      E             dE          RMSdq      gap      omega  full diag
   1   -150.1877322 -0.150188E+03  0.726E-02    2.61       0.0  T
   2   -150.1877406 -0.834133E-05  0.422E-02    2.61       1.0  T
   3   -150.1877376  0.299194E-05  0.831E-03    2.61       1.2  T
   4   -150.1877418 -0.422821E-05  0.276E-03    2.61       3.7  T
   5   -150.1877423 -0.491416E-06  0.128E-03    2.61       7.9  T
   6   -150.1877423 -0.121003E-07  0.646E-04    2.61      15.6  T
   7   -150.1877423 -0.245516E-07  0.227E-04    2.61      44.5  T
     SCC iter.                  ...        0 min,  0.160 sec
     gradient                   ...        0 min,  0.197 sec
 * total energy  :  -148.1847211 Eh     change       -0.5867600E-03 Eh
   gradient norm :     0.0082904 Eh/α   predicted    -0.4836441E-03 ( -17.57%)
   displ. norm   :     0.4256370 α      lambda       -0.5185237E-03
   maximum displ.:     0.1945640 α      in ANC's #14, #11, #9, ...

........................................................................
.............................. CYCLE   10 ..............................
........................................................................

 iter      E             dE          RMSdq      gap      omega  full diag
   1   -150.1923228 -0.150192E+03  0.644E-02    2.61       0.0  T
   2   -150.1923289 -0.606199E-05  0.375E-02    2.61       1.0  T
   3   -150.1923248  0.405922E-05  0.888E-03    2.61       1.1  T
   4   -150.1923295 -0.469130E-05  0.315E-03    2.61       3.2  T
   5   -150.1923302 -0.722658E-06  0.114E-03    2.61       8.9  T
   6   -150.1923302 -0.131715E-07  0.579E-04    2.61      17.5  T
   7   -150.1923302 -0.212871E-07  0.187E-04    2.61      54.0  T
     SCC iter.                  ...        0 min,  0.109 sec
     gradient                   ...        0 min,  0.194 sec
 * total energy  :  -148.1850908 Eh     change       -0.3696470E-03 Eh
   gradient norm :     0.0062779 Eh/α   predicted    -0.3062325E-03 ( -17.16%)
   displ. norm   :     0.4570331 α      lambda       -0.3782474E-03
   maximum displ.:     0.2049975 α      in ANC's #14, #11, #9, ...

........................................................................
.............................. CYCLE   11 ..............................
........................................................................

 iter      E             dE          RMSdq      gap      omega  full diag
   1   -150.1915093 -0.150192E+03  0.676E-02    2.61       0.0  T
   2   -150.1915150 -0.565097E-05  0.395E-02    2.61       1.0  T
   3   -150.1915064  0.855129E-05  0.111E-02    2.61       1.0  T
   4   -150.1915164 -0.997744E-05  0.313E-03    2.61       3.2  T
   5   -150.1915170 -0.591784E-06  0.125E-03    2.61       8.1  T
   6   -150.1915170 -0.162622E-07  0.600E-04    2.61      16.8  T
   7   -150.1915170 -0.222781E-07  0.183E-04    2.61      55.1  T
     SCC iter.                  ...        0 min,  0.115 sec
     gradient                   ...        0 min,  0.184 sec
 * total energy  :  -148.1852644 Eh     change       -0.1736845E-03 Eh
   gradient norm :     0.0105292 Eh/α   predicted    -0.2286378E-03 (  31.64%)
   displ. norm   :     0.2720192 α      lambda       -0.4169053E-03
   maximum displ.:     0.1093442 α      in ANC's #11, #14, #9, ...

........................................................................
.............................. CYCLE   12 ..............................
........................................................................

 iter      E             dE          RMSdq      gap      omega  full diag
   1   -150.1989419 -0.150199E+03  0.421E-02    2.61       0.0  T
   2   -150.1989466 -0.462159E-05  0.244E-02    2.60       1.0  T
   3   -150.1989442  0.238684E-05  0.718E-03    2.61       1.4  T
   4   -150.1989468 -0.263272E-05  0.263E-03    2.61       3.8  T
   5   -150.1989474 -0.545662E-06  0.769E-04    2.61      13.1  T
   6   -150.1989474 -0.718484E-08  0.352E-04    2.61      28.7  T
     SCC iter.                  ...        0 min,  0.110 sec
     gradient                   ...        0 min,  0.176 sec
 * total energy  :  -148.1854631 Eh     change       -0.1986080E-03 Eh
   gradient norm :     0.0081746 Eh/α   predicted    -0.2238774E-03 (  12.72%)
   displ. norm   :     0.2243855 α      lambda       -0.2084754E-03
   maximum displ.:     0.0890415 α      in ANC's #11, #14, #9, ...

........................................................................
.............................. CYCLE   13 ..............................
........................................................................

 iter      E             dE          RMSdq      gap      omega  full diag
   1   -150.1963964 -0.150196E+03  0.315E-02    2.60       0.0  T
   2   -150.1963983 -0.189621E-05  0.183E-02    2.60       1.0  T
   3   -150.1963982  0.125254E-06  0.280E-03    2.61       3.6  T
   4   -150.1963985 -0.294501E-06  0.112E-03    2.61       9.0  T
   5   -150.1963986 -0.763305E-07  0.548E-04    2.61      18.4  T
   6   -150.1963986 -0.370571E-08  0.235E-04    2.61      43.0  T
     SCC iter.                  ...        0 min,  0.103 sec
     gradient                   ...        0 min,  0.204 sec
 * total energy  :  -148.1855739 Eh     change       -0.1108787E-03 Eh
   gradient norm :     0.0096501 Eh/α   predicted    -0.1094863E-03 (  -1.26%)
   displ. norm   :     0.2164711 α      lambda       -0.2479314E-03
   maximum displ.:     0.0843883 α      in ANC's #11, #24, #14, ...

........................................................................
.............................. CYCLE   14 ..............................
........................................................................

 iter      E             dE          RMSdq      gap      omega  full diag
   1   -150.1950419 -0.150195E+03  0.281E-02    2.60       0.0  T
   2   -150.1950443 -0.247181E-05  0.161E-02    2.60       1.0  T
   3   -150.1950440  0.369271E-06  0.409E-03    2.61       2.5  T
   4   -150.1950445 -0.489576E-06  0.152E-03    2.61       6.7  T
   5   -150.1950446 -0.179928E-06  0.591E-04    2.61      17.1  T
   6   -150.1950447 -0.757413E-08  0.275E-04    2.61      36.7  T
     SCC iter.                  ...        0 min,  0.105 sec
     gradient                   ...        0 min,  0.157 sec
 * total energy  :  -148.1857466 Eh     change       -0.1726314E-03 Eh
   gradient norm :     0.0046746 Eh/α   predicted    -0.1297798E-03 ( -24.82%)
   displ. norm   :     0.2947897 α      lambda       -0.2001692E-03
   maximum displ.:     0.1144706 α      in ANC's #11, #24, #22, ...

........................................................................
.............................. CYCLE   15 ..............................
........................................................................

 iter      E             dE          RMSdq      gap      omega  full diag
   1   -150.1936749 -0.150194E+03  0.357E-02    2.61       0.0  T
   2   -150.1936771 -0.221083E-05  0.208E-02    2.61       1.0  T
   3   -150.1936756  0.152412E-05  0.536E-03    2.61       1.9  T
   4   -150.1936774 -0.180110E-05  0.184E-03    2.61       5.5  T
   5   -150.1936776 -0.235994E-06  0.696E-04    2.61      14.5  T
   6   -150.1936776 -0.935853E-08  0.317E-04    2.61      31.9  T
     SCC iter.                  ...        0 min,  0.097 sec
     gradient                   ...        0 min,  0.159 sec
 * total energy  :  -148.1858754 Eh     change       -0.1288298E-03 Eh
   gradient norm :     0.0046941 Eh/α   predicted    -0.1087834E-03 ( -15.56%)
   displ. norm   :     0.2832426 α      lambda       -0.1355905E-03
   maximum displ.:     0.1051358 α      in ANC's #11, #22, #24, ...

........................................................................
.............................. CYCLE   16 ..............................
........................................................................

 iter      E             dE          RMSdq      gap      omega  full diag
   1   -150.1950348 -0.150195E+03  0.332E-02    2.61       0.0  T
   2   -150.1950403 -0.553137E-05  0.193E-02    2.61       1.0  T
   3   -150.1950392  0.111879E-05  0.589E-03    2.61       1.7  T
   4   -150.1950405 -0.137682E-05  0.207E-03    2.61       4.9  T
   5   -150.1950409 -0.367346E-06  0.642E-04    2.61      15.7  T
   6   -150.1950409 -0.123031E-07  0.345E-04    2.61      29.3  T
     SCC iter.                  ...        0 min,  0.103 sec
     gradient                   ...        0 min,  0.148 sec
 * total energy  :  -148.1859494 Eh     change       -0.7404819E-04 Eh
   gradient norm :     0.0058411 Eh/α   predicted    -0.7323695E-04 (  -1.10%)
   displ. norm   :     0.2227126 α      lambda       -0.1035361E-03
   maximum displ.:     0.0980137 α      in ANC's #11, #14, #4, ...

........................................................................
.............................. CYCLE   17 ..............................
........................................................................

 iter      E             dE          RMSdq      gap      omega  full diag
   1   -150.1949515 -0.150195E+03  0.266E-02    2.61       0.0  T
   2   -150.1949528 -0.127872E-05  0.156E-02    2.61       1.0  T
   3   -150.1949524  0.437452E-06  0.305E-03    2.61       3.3  T
   4   -150.1949529 -0.565910E-06  0.104E-03    2.61       9.7  T
   5   -150.1949530 -0.756473E-07  0.429E-04    2.61      23.6  T
   6   -150.1949530 -0.347146E-08  0.229E-04    2.61      44.2  T
     SCC iter.                  ...        0 min,  0.071 sec
     gradient                   ...        0 min,  0.172 sec
 * total energy  :  -148.1860217 Eh     change       -0.7222693E-04 Eh
   gradient norm :     0.0031079 Eh/α   predicted    -0.5433637E-04 ( -24.77%)
   displ. norm   :     0.1881049 α      lambda       -0.9182447E-04
   maximum displ.:     0.0773232 α      in ANC's #11, #7, #4, ...

........................................................................
.............................. CYCLE   18 ..............................
........................................................................

 iter      E             dE          RMSdq      gap      omega  full diag
   1   -150.1964668 -0.150196E+03  0.219E-02    2.61       0.0  T
   2   -150.1964676 -0.803201E-06  0.128E-02    2.61       1.0  T
   3   -150.1964669  0.700291E-06  0.342E-03    2.61       3.0  T
   4   -150.1964677 -0.785818E-06  0.125E-03    2.61       8.1  T
   5   -150.1964678 -0.111327E-06  0.404E-04    2.61      25.0  T
   6   -150.1964678 -0.159076E-08  0.194E-04    2.61      52.1  T
     SCC iter.                  ...        0 min,  0.074 sec
     gradient                   ...        0 min,  0.188 sec
 * total energy  :  -148.1860911 Eh     change       -0.6946069E-04 Eh
   gradient norm :     0.0034508 Eh/α   predicted    -0.4754476E-04 ( -31.55%)
   displ. norm   :     0.2618419 α      lambda       -0.1037588E-03
   maximum displ.:     0.1075184 α      in ANC's #11, #7, #4, ...

........................................................................
.............................. CYCLE   19 ..............................
........................................................................

 iter      E             dE          RMSdq      gap      omega  full diag
   1   -150.1967500 -0.150197E+03  0.290E-02    2.61       0.0  T
   2   -150.1967511 -0.103786E-05  0.170E-02    2.61       1.0  T
   3   -150.1967496  0.146056E-05  0.467E-03    2.60       2.2  T
   4   -150.1967513 -0.170413E-05  0.141E-03    2.60       7.2  T
   5   -150.1967514 -0.113220E-06  0.552E-04    2.60      18.3  T
   6   -150.1967514 -0.287346E-08  0.229E-04    2.60      44.1  T
     SCC iter.                  ...        0 min,  0.092 sec
     gradient                   ...        0 min,  0.133 sec
 * total energy  :  -148.1861706 Eh     change       -0.7948275E-04 Eh
   gradient norm :     0.0042091 Eh/α   predicted    -0.5544166E-04 ( -30.25%)
   displ. norm   :     0.3204179 α      lambda       -0.1150599E-03
   maximum displ.:     0.1262619 α      in ANC's #11, #7, #4, ...

........................................................................
.............................. CYCLE   20 ..............................
........................................................................

 iter      E             dE          RMSdq      gap      omega  full diag
   1   -150.1965261 -0.150197E+03  0.341E-02    2.60       0.0  T
   2   -150.1965275 -0.146696E-05  0.200E-02    2.60       1.0  T
   3   -150.1965257  0.181802E-05  0.528E-03    2.60       1.9  T
   4   -150.1965279 -0.219050E-05  0.163E-03    2.60       6.2  T
   5   -150.1965281 -0.131208E-06  0.704E-04    2.60      14.4  T
   6   -150.1965281 -0.641120E-08  0.259E-04    2.60      39.0  T
     SCC iter.                  ...        0 min,  0.093 sec
     gradient                   ...        0 min,  0.159 sec
 * total energy  :  -148.1862587 Eh     change       -0.8805147E-04 Eh
   gradient norm :     0.0041935 Eh/α   predicted    -0.6344101E-04 ( -27.95%)
   displ. norm   :     0.3688873 α      lambda       -0.1186991E-03
   maximum displ.:     0.1531689 α      in ANC's #11, #4, #7, ...
 * RMSD in coord.:     0.5144680 α      energy gain  -0.2490758E-01 Eh

generating ANC from exact Hessian ...
Using Lindh-Hessian (1995)
 Shifting diagonal of input Hessian by    9.9660420313510637E-003
 Lowest  eigenvalues of input Hessian
    0.000000    0.000000    0.000000    0.000000    0.000000    0.000000
    0.010000    0.010031    0.010056    0.010096    0.010148    0.010207
    0.010272    0.010342    0.010427    0.010571    0.010668    0.010749
 Highest eigenvalues
    2.064819    2.153016    2.153692    2.347795    2.435334    2.546443


........................................................................
.............................. CYCLE   21 ..............................
........................................................................

 iter      E             dE          RMSdq      gap      omega  full diag
   1   -150.1950648 -0.150195E+03  0.388E-02    2.59       0.0  T
   2   -150.1950665 -0.174260E-05  0.227E-02    2.59       1.0  T
   3   -150.1950654  0.117257E-05  0.458E-03    2.59       2.2  T
   4   -150.1950669 -0.149934E-05  0.174E-03    2.59       5.8  T
   5   -150.1950670 -0.157705E-06  0.776E-04    2.59      13.0  T
   6   -150.1950670 -0.116717E-07  0.274E-04    2.59      36.9  T
     SCC iter.                  ...        0 min,  0.089 sec
     gradient                   ...        0 min,  0.170 sec
 * total energy  :  -148.1863492 Eh     change       -0.9049042E-04 Eh
   gradient norm :     0.0038044 Eh/α   predicted     0.0000000E+00 (-100.00%)
   displ. norm   :     0.0447272 α      lambda       -0.5089827E-04
   maximum displ.:     0.0172049 α      in ANC's #20, #26, #21, ...

........................................................................
.............................. CYCLE   22 ..............................
........................................................................

 iter      E             dE          RMSdq      gap      omega  full diag
   1   -150.1962907 -0.150196E+03  0.861E-03    2.59       0.0  T
   2   -150.1962909 -0.173456E-06  0.496E-03    2.59       2.0  T
   3   -150.1962908  0.136226E-06  0.164E-03    2.59       6.2  T
   4   -150.1962909 -0.159947E-06  0.596E-04    2.59      17.0  T
   5   -150.1962909 -0.236855E-07  0.190E-04    2.59      53.3  T
     SCC iter.                  ...        0 min,  0.059 sec
     gradient                   ...        0 min,  0.147 sec
 * total energy  :  -148.1863926 Eh     change       -0.4343228E-04 Eh
   gradient norm :     0.0021269 Eh/α   predicted    -0.2579504E-04 ( -40.61%)
   displ. norm   :     0.1490384 α      lambda       -0.1127231E-03
   maximum displ.:     0.0619148 α      in ANC's #20, #21, #4, ...

........................................................................
.............................. CYCLE   23 ..............................
........................................................................

 iter      E             dE          RMSdq      gap      omega  full diag
   1   -150.1975824 -0.150198E+03  0.252E-02    2.60       0.0  T
   2   -150.1975835 -0.108879E-05  0.146E-02    2.60       1.0  T
   3   -150.1975827  0.848595E-06  0.393E-03    2.60       2.6  T
   4   -150.1975838 -0.108467E-05  0.137E-03    2.60       7.4  T
   5   -150.1975839 -0.102154E-06  0.556E-04    2.60      18.2  T
   6   -150.1975839 -0.641546E-08  0.246E-04    2.60      41.1  T
     SCC iter.                  ...        0 min,  0.074 sec
     gradient                   ...        0 min,  0.136 sec
 * total energy  :  -148.1864625 Eh     change       -0.6995067E-04 Eh
   gradient norm :     0.0024252 Eh/α   predicted    -0.5761410E-04 ( -17.64%)
   displ. norm   :     0.0909244 α      lambda       -0.3195626E-04
   maximum displ.:     0.0404757 α      in ANC's #20, #4, #12, ...

........................................................................
.............................. CYCLE   24 ..............................
........................................................................

 iter      E             dE          RMSdq      gap      omega  full diag
   1   -150.1972913 -0.150197E+03  0.140E-02    2.60       0.0  T
   2   -150.1972915 -0.240771E-06  0.815E-03    2.60       1.2  T
   3   -150.1972913  0.157622E-06  0.168E-03    2.60       6.0  T
   4   -150.1972916 -0.229412E-06  0.596E-04    2.60      17.0  T
   5   -150.1972916 -0.119285E-07  0.297E-04    2.60      34.0  T
     SCC iter.                  ...        0 min,  0.059 sec
     gradient                   ...        0 min,  0.152 sec
 * total energy  :  -148.1864893 Eh     change       -0.2674680E-04 Eh
   gradient norm :     0.0025941 Eh/α   predicted    -0.1669265E-04 ( -37.59%)
   displ. norm   :     0.1859687 α      lambda       -0.6197766E-04
   maximum displ.:     0.0828941 α      in ANC's #20, #4, #12, ...

........................................................................
.............................. CYCLE   25 ..............................
........................................................................

 iter      E             dE          RMSdq      gap      omega  full diag
   1   -150.1962398 -0.150196E+03  0.271E-02    2.60       0.0  T
   2   -150.1962407 -0.892553E-06  0.158E-02    2.60       1.0  T
   3   -150.1962402  0.505560E-06  0.310E-03    2.60       3.3  T
   4   -150.1962410 -0.755775E-06  0.116E-03    2.60       8.7  T
   5   -150.1962410 -0.441188E-07  0.574E-04    2.60      17.6  T
   6   -150.1962410 -0.113027E-07  0.210E-04    2.60      48.1  T
     SCC iter.                  ...        0 min,  0.091 sec
     gradient                   ...        0 min,  0.169 sec
 * total energy  :  -148.1865345 Eh     change       -0.4525523E-04 Eh
   gradient norm :     0.0021549 Eh/α   predicted    -0.3233019E-04 ( -28.56%)
   displ. norm   :     0.1854148 α      lambda       -0.5014311E-04
   maximum displ.:     0.0776027 α      in ANC's #20, #4, #12, ...

........................................................................
.............................. CYCLE   26 ..............................
........................................................................

 iter      E             dE          RMSdq      gap      omega  full diag
   1   -150.1953802 -0.150195E+03  0.255E-02    2.60       0.0  T
   2   -150.1953810 -0.808254E-06  0.148E-02    2.60       1.0  T
   3   -150.1953806  0.395269E-06  0.288E-03    2.60       3.5  T
   4   -150.1953812 -0.571185E-06  0.116E-03    2.60       8.7  T
   5   -150.1953813 -0.601009E-07  0.521E-04    2.60      19.4  T
   6   -150.1953813 -0.675695E-08  0.189E-04    2.60      53.5  T
     SCC iter.                  ...        0 min,  0.073 sec
     gradient                   ...        0 min,  0.134 sec
 * total energy  :  -148.1865723 Eh     change       -0.3777921E-04 Eh
   gradient norm :     0.0020793 Eh/α   predicted    -0.2593523E-04 ( -31.35%)
   displ. norm   :     0.2114137 α      lambda       -0.5439633E-04
   maximum displ.:     0.0777641 α      in ANC's #20, #4, #12, ...

........................................................................
.............................. CYCLE   27 ..............................
........................................................................

 iter      E             dE          RMSdq      gap      omega  full diag
   1   -150.1949862 -0.150195E+03  0.273E-02    2.61       0.0  T
   2   -150.1949871 -0.915054E-06  0.159E-02    2.60       1.0  T
   3   -150.1949866  0.481104E-06  0.312E-03    2.60       3.2  T
   4   -150.1949872 -0.642238E-06  0.127E-03    2.60       8.0  T
   5   -150.1949873 -0.821501E-07  0.535E-04    2.60      18.9  T
   6   -150.1949873 -0.575932E-08  0.187E-04    2.60      53.9  T
     SCC iter.                  ...        0 min,  0.123 sec
     gradient                   ...        0 min,  0.155 sec
 * total energy  :  -148.1866136 Eh     change       -0.4132217E-04 Eh
   gradient norm :     0.0024646 Eh/α   predicted    -0.2842115E-04 ( -31.22%)
   displ. norm   :     0.2335116 α      lambda       -0.5806214E-04
   maximum displ.:     0.0859360 α      in ANC's #4, #12, #7, ...

........................................................................
.............................. CYCLE   28 ..............................
........................................................................

 iter      E             dE          RMSdq      gap      omega  full diag
   1   -150.1951222 -0.150195E+03  0.291E-02    2.61       0.0  T
   2   -150.1951232 -0.934074E-06  0.170E-02    2.61       1.0  T
   3   -150.1951224  0.774732E-06  0.361E-03    2.60       2.8  T
   4   -150.1951233 -0.950229E-06  0.128E-03    2.60       7.9  T
   5   -150.1951234 -0.844489E-07  0.535E-04    2.60      18.9  T
   6   -150.1951234 -0.488899E-08  0.205E-04    2.60      49.2  T
     SCC iter.                  ...        0 min,  0.070 sec
     gradient                   ...        0 min,  0.185 sec
 * total energy  :  -148.1866579 Eh     change       -0.4422479E-04 Eh
   gradient norm :     0.0027033 Eh/α   predicted    -0.3061444E-04 ( -30.78%)
   displ. norm   :     0.2552202 α      lambda       -0.5964524E-04
   maximum displ.:     0.0941464 α      in ANC's #4, #7, #2, ...

........................................................................
.............................. CYCLE   29 ..............................
........................................................................

 iter      E             dE          RMSdq      gap      omega  full diag
   1   -150.1955499 -0.150196E+03  0.310E-02    2.61       0.0  T
   2   -150.1955508 -0.897191E-06  0.181E-02    2.61       1.0  T
   3   -150.1955498  0.102100E-05  0.396E-03    2.61       2.6  T
   4   -150.1955510 -0.123298E-05  0.123E-03    2.60       8.2  T
   5   -150.1955511 -0.658066E-07  0.561E-04    2.60      18.0  T
   6   -150.1955511 -0.718916E-08  0.227E-04    2.60      44.6  T
     SCC iter.                  ...        0 min,  0.079 sec
     gradient                   ...        0 min,  0.158 sec
 * total energy  :  -148.1867041 Eh     change       -0.4620149E-04 Eh
   gradient norm :     0.0024908 Eh/α   predicted    -0.3177168E-04 ( -31.23%)
   displ. norm   :     0.2965574 α      lambda       -0.6436452E-04
   maximum displ.:     0.1099618 α      in ANC's #4, #7, #11, ...

........................................................................
.............................. CYCLE   30 ..............................
........................................................................

 iter      E             dE          RMSdq      gap      omega  full diag
   1   -150.1958713 -0.150196E+03  0.351E-02    2.61       0.0  T
   2   -150.1958723 -0.101448E-05  0.205E-02    2.61       1.0  T
   3   -150.1958710  0.124300E-05  0.435E-03    2.61       2.3  T
   4   -150.1958726 -0.151694E-05  0.129E-03    2.61       7.8  T
   5   -150.1958726 -0.608691E-07  0.630E-04    2.61      16.0  T
   6   -150.1958726 -0.112617E-07  0.254E-04    2.61      39.8  T
     SCC iter.                  ...        0 min,  0.098 sec
     gradient                   ...        0 min,  0.188 sec
 * total energy  :  -148.1867549 Eh     change       -0.5084506E-04 Eh
   gradient norm :     0.0022560 Eh/α   predicted    -0.3502452E-04 ( -31.12%)
   displ. norm   :     0.3483871 α      lambda       -0.7176093E-04
   maximum displ.:     0.1296921 α      in ANC's #4, #11, #7, ...

........................................................................
.............................. CYCLE   31 ..............................
........................................................................

 iter      E             dE          RMSdq      gap      omega  full diag
   1   -150.1959137 -0.150196E+03  0.399E-02    2.61       0.0  T
   2   -150.1959150 -0.126552E-05  0.233E-02    2.61       1.0  T
   3   -150.1959137  0.129290E-05  0.458E-03    2.61       2.2  T
   4   -150.1959153 -0.161426E-05  0.147E-03    2.61       6.9  T
   5   -150.1959154 -0.775630E-07  0.704E-04    2.61      14.4  T
   6   -150.1959154 -0.147048E-07  0.285E-04    2.61      35.5  T
     SCC iter.                  ...        0 min,  0.080 sec
     gradient                   ...        0 min,  0.135 sec
 * total energy  :  -148.1868122 Eh     change       -0.5724967E-04 Eh
   gradient norm :     0.0024599 Eh/α   predicted    -0.4023602E-04 ( -29.72%)
   displ. norm   :     0.3828505 α      lambda       -0.7715491E-04
   maximum displ.:     0.1424782 α      in ANC's #4, #11, #7, ...

........................................................................
.............................. CYCLE   32 ..............................
........................................................................

 iter      E             dE          RMSdq      gap      omega  full diag
   1   -150.1957747 -0.150196E+03  0.430E-02    2.61       0.0  T
   2   -150.1957763 -0.156544E-05  0.251E-02    2.61       1.0  T
   3   -150.1957748  0.150425E-05  0.500E-03    2.61       2.0  T
   4   -150.1957766 -0.185632E-05  0.168E-03    2.61       6.0  T
   5   -150.1957767 -0.117316E-06  0.748E-04    2.61      13.5  T
   6   -150.1957768 -0.144001E-07  0.302E-04    2.61      33.4  T
     SCC iter.                  ...        0 min,  0.092 sec
     gradient                   ...        0 min,  0.136 sec
 * total energy  :  -148.1868734 Eh     change       -0.6123213E-04 Eh
   gradient norm :     0.0028448 Eh/α   predicted    -0.4423593E-04 ( -27.76%)
   displ. norm   :     0.3815077 α      lambda       -0.7682302E-04
   maximum displ.:     0.1447068 α      in ANC's #11, #4, #2, ...

........................................................................
.............................. CYCLE   33 ..............................
........................................................................

 iter      E             dE          RMSdq      gap      omega  full diag
   1   -150.1956932 -0.150196E+03  0.425E-02    2.61       0.0  T
   2   -150.1956949 -0.165116E-05  0.248E-02    2.61       1.0  T
   3   -150.1956931  0.175132E-05  0.533E-03    2.61       1.9  T
   4   -150.1956952 -0.209207E-05  0.176E-03    2.61       5.7  T
   5   -150.1956953 -0.146041E-06  0.725E-04    2.61      13.9  T
   6   -150.1956954 -0.114024E-07  0.282E-04    2.61      35.9  T
     SCC iter.                  ...        0 min,  0.080 sec
     gradient                   ...        0 min,  0.178 sec
 * total energy  :  -148.1869335 Eh     change       -0.6013369E-04 Eh
   gradient norm :     0.0028864 Eh/α   predicted    -0.4401480E-04 ( -26.81%)
   displ. norm   :     0.3615652 α      lambda       -0.7230040E-04
   maximum displ.:     0.1416203 α      in ANC's #11, #4, #2, ...

........................................................................
.............................. CYCLE   34 ..............................
........................................................................

 iter      E             dE          RMSdq      gap      omega  full diag
   1   -150.1956080 -0.150196E+03  0.410E-02    2.61       0.0  T
   2   -150.1956095 -0.150878E-05  0.239E-02    2.61       1.0  T
   3   -150.1956073  0.219951E-05  0.581E-03    2.61       1.7  T
   4   -150.1956099 -0.255373E-05  0.167E-03    2.61       6.0  T
   5   -150.1956100 -0.135676E-06  0.659E-04    2.61      15.3  T
   6   -150.1956100 -0.729560E-08  0.242E-04    2.61      41.7  T
     SCC iter.                  ...        0 min,  0.104 sec
     gradient                   ...        0 min,  0.164 sec
 * total energy  :  -148.1869895 Eh     change       -0.5598048E-04 Eh
   gradient norm :     0.0025896 Eh/α   predicted    -0.4087680E-04 ( -26.98%)
   displ. norm   :     0.3405480 α      lambda       -0.6664691E-04
   maximum displ.:     0.1374489 α      in ANC's #11, #2, #4, ...

........................................................................
.............................. CYCLE   35 ..............................
........................................................................

 iter      E             dE          RMSdq      gap      omega  full diag
   1   -150.1955133 -0.150196E+03  0.394E-02    2.61       0.0  T
   2   -150.1955146 -0.126261E-05  0.230E-02    2.61       1.0  T
   3   -150.1955123  0.232202E-05  0.592E-03    2.61       1.7  T
   4   -150.1955149 -0.266103E-05  0.154E-03    2.61       6.6  T
   5   -150.1955150 -0.117244E-06  0.596E-04    2.61      16.9  T
   6   -150.1955150 -0.498233E-08  0.201E-04    2.61      50.4  T
     SCC iter.                  ...        0 min,  0.085 sec
     gradient                   ...        0 min,  0.145 sec
 * total energy  :  -148.1870405 Eh     change       -0.5099540E-04 Eh
   gradient norm :     0.0023765 Eh/α   predicted    -0.3719521E-04 ( -27.06%)
   displ. norm   :     0.3223951 α      lambda       -0.5863408E-04
   maximum displ.:     0.1331578 α      in ANC's #11, #2, #7, ...

........................................................................
.............................. CYCLE   36 ..............................
........................................................................

 iter      E             dE          RMSdq      gap      omega  full diag
   1   -150.1952127 -0.150195E+03  0.375E-02    2.61       0.0  T
   2   -150.1952138 -0.102826E-05  0.219E-02    2.61       1.0  T
   3   -150.1952114  0.242221E-05  0.599E-03    2.61       1.7  T
   4   -150.1952141 -0.275217E-05  0.142E-03    2.61       7.1  T
   5   -150.1952142 -0.100797E-06  0.543E-04    2.61      18.6  T
   6   -150.1952142 -0.315254E-08  0.173E-04    2.61      58.4  T
     SCC iter.                  ...        0 min,  0.070 sec
     gradient                   ...        0 min,  0.139 sec
 * total energy  :  -148.1870851 Eh     change       -0.4460986E-04 Eh
   gradient norm :     0.0024095 Eh/α   predicted    -0.3236500E-04 ( -27.45%)
   displ. norm   :     0.2939282 α      lambda       -0.5198277E-04
   maximum displ.:     0.1239406 α      in ANC's #11, #2, #7, ...

........................................................................
.............................. CYCLE   37 ..............................
........................................................................

 iter      E             dE          RMSdq      gap      omega  full diag
   1   -150.1955278 -0.150196E+03  0.340E-02    2.61       0.0  T
   2   -150.1955286 -0.731122E-06  0.199E-02    2.61       1.0  T
   3   -150.1955268  0.179691E-05  0.514E-03    2.61       2.0  T
   4   -150.1955288 -0.206136E-05  0.120E-03    2.61       8.4  T
   5   -150.1955289 -0.645509E-07  0.503E-04    2.61      20.1  T
   6   -150.1955289 -0.358838E-08  0.191E-04    2.61      52.9  T
     SCC iter.                  ...        0 min,  0.079 sec
     gradient                   ...        0 min,  0.154 sec
 * total energy  :  -148.1871242 Eh     change       -0.3907260E-04 Eh
   gradient norm :     0.0021657 Eh/α   predicted    -0.2824195E-04 ( -27.72%)
   displ. norm   :     0.3559703 α      lambda       -0.4808107E-04
   maximum displ.:     0.1486687 α      in ANC's #11, #2, #7, ...

........................................................................
.............................. CYCLE   38 ..............................
........................................................................

 iter      E             dE          RMSdq      gap      omega  full diag
   1   -150.1939926 -0.150194E+03  0.418E-02    2.61       0.0  T
   2   -150.1939936 -0.103432E-05  0.245E-02    2.61       1.0  T
   3   -150.1939908  0.278877E-05  0.628E-03    2.61       1.6  T
   4   -150.1939940 -0.318534E-05  0.147E-03    2.61       6.9  T
   5   -150.1939941 -0.920639E-07  0.582E-04    2.61      17.3  T
   6   -150.1939941 -0.412263E-08  0.222E-04    2.61      45.6  T
     SCC iter.                  ...        0 min,  0.097 sec
     gradient                   ...        0 min,  0.165 sec
 * total energy  :  -148.1871581 Eh     change       -0.3390441E-04 Eh
   gradient norm :     0.0028042 Eh/α   predicted    -0.2709101E-04 ( -20.10%)
   displ. norm   :     0.3106507 α      lambda       -0.6782650E-04
   maximum displ.:     0.1318774 α      in ANC's #11, #2, #7, ...

........................................................................
.............................. CYCLE   39 ..............................
........................................................................

 iter      E             dE          RMSdq      gap      omega  full diag
   1   -150.1976258 -0.150198E+03  0.366E-02    2.63       0.0  T
   2   -150.1976270 -0.121391E-05  0.213E-02    2.63       1.0  T
   3   -150.1976247  0.223694E-05  0.565E-03    2.63       1.8  T
   4   -150.1976274 -0.267243E-05  0.131E-03    2.63       7.7  T
   5   -150.1976275 -0.582571E-07  0.720E-04    2.63      14.0  T
   6   -150.1976275 -0.182796E-07  0.277E-04    2.63      36.5  T
     SCC iter.                  ...        0 min,  0.089 sec
     gradient                   ...        0 min,  0.157 sec
 * total energy  :  -148.1871836 Eh     change       -0.2549685E-04 Eh
   gradient norm :     0.0034600 Eh/α   predicted    -0.3718934E-04 (  45.86%)
   displ. norm   :     0.2812755 α      lambda       -0.4726063E-04
   maximum displ.:     0.1150348 α      in ANC's #11, #2, #7, ...

........................................................................
.............................. CYCLE   40 ..............................
........................................................................

 iter      E             dE          RMSdq      gap      omega  full diag
   1   -150.1950751 -0.150195E+03  0.338E-02    2.62       0.0  T
   2   -150.1950759 -0.775975E-06  0.198E-02    2.62       1.0  T
   3   -150.1950747  0.119006E-05  0.423E-03    2.63       2.4  T
   4   -150.1950760 -0.136403E-05  0.134E-03    2.63       7.6  T
   5   -150.1950761 -0.886666E-07  0.471E-04    2.63      21.5  T
   6   -150.1950761 -0.306912E-08  0.174E-04    2.63      58.1  T
     SCC iter.                  ...        0 min,  0.081 sec
     gradient                   ...        0 min,  0.148 sec
 * total energy  :  -148.1872172 Eh     change       -0.3359056E-04 Eh
   gradient norm :     0.0026111 Eh/α   predicted    -0.2550290E-04 ( -24.08%)
   displ. norm   :     0.2367710 α      lambda       -0.4014018E-04
   maximum displ.:     0.0971797 α      in ANC's #11, #2, #7, ...

........................................................................
.............................. CYCLE   41 ..............................
........................................................................

 iter      E             dE          RMSdq      gap      omega  full diag
   1   -150.1944608 -0.150194E+03  0.282E-02    2.62       0.0  T
   2   -150.1944614 -0.513774E-06  0.165E-02    2.63       1.0  T
   3   -150.1944604  0.953615E-06  0.366E-03    2.63       2.8  T
   4   -150.1944615 -0.109442E-05  0.106E-03    2.63       9.5  T
   5   -150.1944615 -0.546702E-07  0.395E-04    2.63      25.6  T
   6   -150.1944616 -0.230551E-08  0.158E-04    2.63      64.0  T
     SCC iter.                  ...        0 min,  0.080 sec
     gradient                   ...        0 min,  0.151 sec
 * total energy  :  -148.1872467 Eh     change       -0.2950170E-04 Eh
   gradient norm :     0.0026141 Eh/α   predicted    -0.2119837E-04 ( -28.15%)
   displ. norm   :     0.2194279 α      lambda       -0.3689300E-04
   maximum displ.:     0.0910982 α      in ANC's #2, #11, #7, ...

........................................................................
.............................. CYCLE   42 ..............................
........................................................................

 iter      E             dE          RMSdq      gap      omega  full diag
   1   -150.1952691 -0.150195E+03  0.259E-02    2.63       0.0  T
   2   -150.1952696 -0.473794E-06  0.152E-02    2.63       1.0  T
   3   -150.1952686  0.958278E-06  0.359E-03    2.63       2.8  T
   4   -150.1952697 -0.109969E-05  0.985E-04    2.63      10.3  T
   5   -150.1952698 -0.481905E-07  0.396E-04    2.63      25.5  T
   6   -150.1952698 -0.316408E-08  0.171E-04    2.63      59.1  T
     SCC iter.                  ...        0 min,  0.090 sec
     gradient                   ...        0 min,  0.163 sec
 * total energy  :  -148.1872726 Eh     change       -0.2594890E-04 Eh
   gradient norm :     0.0020010 Eh/α   predicted    -0.1933750E-04 ( -25.48%)
   displ. norm   :     0.2680017 α      lambda       -0.2497529E-04
   maximum displ.:     0.1148473 α      in ANC's #11, #2, #7, ...
 * RMSD in coord.:     0.5386263 α      energy gain  -0.1013964E-02 Eh

generating ANC from exact Hessian ...
Using Lindh-Hessian (1995)
 Shifting diagonal of input Hessian by    9.9698693769857422E-003
 Lowest  eigenvalues of input Hessian
    0.000000    0.000000    0.000000    0.000000    0.000000    0.000000
    0.010000    0.010036    0.010058    0.010102    0.010158    0.010214
    0.010283    0.010346    0.010420    0.010576    0.010683    0.010776
 Highest eigenvalues
    2.064702    2.127416    2.145559    2.342312    2.434580    2.537072


........................................................................
.............................. CYCLE   43 ..............................
........................................................................

 iter      E             dE          RMSdq      gap      omega  full diag
   1   -150.1955494 -0.150196E+03  0.310E-02    2.63       0.0  T
   2   -150.1955498 -0.460325E-06  0.182E-02    2.64       1.0  T
   3   -150.1955482  0.162822E-05  0.468E-03    2.64       2.2  T
   4   -150.1955501 -0.186404E-05  0.924E-04    2.64      10.9  T
   5   -150.1955501 -0.279322E-07  0.436E-04    2.64      23.2  T
   6   -150.1955501 -0.422312E-08  0.163E-04    2.64      61.8  T
     SCC iter.                  ...        0 min,  0.079 sec
     gradient                   ...        0 min,  0.155 sec
 * total energy  :  -148.1872919 Eh     change       -0.1928478E-04 Eh
   gradient norm :     0.0016898 Eh/α   predicted     0.0000000E+00 (-100.00%)
   displ. norm   :     0.0281897 α      lambda       -0.1002810E-04
   maximum displ.:     0.0095311 α      in ANC's #11, #24, #41, ...

........................................................................
.............................. CYCLE   44 ..............................
........................................................................

 iter      E             dE          RMSdq      gap      omega  full diag
   1   -150.1966927 -0.150197E+03  0.625E-03    2.64       0.0  T
   2   -150.1966928 -0.903313E-07  0.362E-03    2.64       2.8  T
   3   -150.1966927  0.384303E-07  0.926E-04    2.64      10.9  T
   4   -150.1966928 -0.448935E-07  0.402E-04    2.64      25.1  T
     SCC iter.                  ...        0 min,  0.047 sec
     gradient                   ...        0 min,  0.161 sec
 * total energy  :  -148.1873022 Eh     change       -0.1030621E-04 Eh
   gradient norm :     0.0007342 Eh/α   predicted    -0.5033593E-05 ( -51.16%)
   displ. norm   :     0.0459877 α      lambda       -0.7186171E-05
   maximum displ.:     0.0195374 α      in ANC's #11, #2, #24, ...

........................................................................
.............................. CYCLE   45 ..............................
........................................................................

 iter      E             dE          RMSdq      gap      omega  full diag
   1   -150.1967134 -0.150197E+03  0.784E-03    2.64       0.0  T
   2   -150.1967136 -0.137317E-06  0.453E-03    2.64       2.2  T
   3   -150.1967135  0.108470E-06  0.146E-03    2.64       6.9  T
   4   -150.1967136 -0.117385E-06  0.603E-04    2.64      16.7  T
   5   -150.1967136 -0.251384E-07  0.177E-04    2.64      57.1  T
     SCC iter.                  ...        0 min,  0.093 sec
     gradient                   ...        0 min,  0.199 sec
 * total energy  :  -148.1873092 Eh     change       -0.6935905E-05 Eh
   gradient norm :     0.0006119 Eh/α   predicted    -0.3597003E-05 ( -48.14%)
   displ. norm   :     0.0452022 α      lambda        0.1244836E-05
   maximum displ.:     0.0191594 α      in ANC's #11, #2, #24, ...

........................................................................
.............................. CYCLE   46 ..............................
........................................................................

 iter      E             dE          RMSdq      gap      omega  full diag
   1   -150.1966987 -0.150197E+03  0.771E-03    2.64       0.0  T
   2   -150.1966988 -0.137402E-06  0.445E-03    2.64       2.3  T
   3   -150.1966987  0.847289E-07  0.133E-03    2.64       7.6  T
   4   -150.1966988 -0.940959E-07  0.564E-04    2.64      17.9  T
   5   -150.1966989 -0.219648E-07  0.178E-04    2.64      56.9  T
     SCC iter.                  ...        0 min,  0.093 sec
     gradient                   ...        0 min,  0.188 sec
 * total energy  :  -148.1873083 Eh     change        0.8139494E-06 Eh
   gradient norm :     0.0014399 Eh/α   predicted     0.6224978E-06 ( -23.52%)
   displ. norm   :     0.0160478 α      lambda       -0.5681952E-05
   maximum displ.:     0.0058611 α      in ANC's #11, #29, #2, ...

........................................................................
.............................. CYCLE   47 ..............................
........................................................................

 iter      E             dE          RMSdq      gap      omega  full diag
   1   -150.1963926 -0.150196E+03  0.385E-03    2.64       0.0  T
   2   -150.1963926 -0.295409E-07  0.219E-03    2.64       4.6  T
   3   -150.1963926  0.908534E-08  0.503E-04    2.64      20.1  T
   4   -150.1963926 -0.121125E-07  0.238E-04    2.64      42.4  T
     SCC iter.                  ...        0 min,  0.048 sec
     gradient                   ...        0 min,  0.184 sec
 * total energy  :  -148.1873137 Eh     change       -0.5339898E-05 Eh
   gradient norm :     0.0007957 Eh/α   predicted    -0.2847314E-05 ( -46.68%)
   displ. norm   :     0.0333008 α      lambda       -0.4582518E-05
   maximum displ.:     0.0158077 α      in ANC's #11, #2, #15, ...

........................................................................
.............................. CYCLE   48 ..............................
........................................................................

 iter      E             dE          RMSdq      gap      omega  full diag
   1   -150.1963552 -0.150196E+03  0.530E-03    2.64       0.0  T
   2   -150.1963553 -0.605092E-07  0.305E-03    2.64       3.3  T
   3   -150.1963552  0.546895E-07  0.101E-03    2.64      10.0  T
   4   -150.1963553 -0.600920E-07  0.389E-04    2.64      26.0  T
   5   -150.1963553 -0.101876E-07  0.114E-04    2.64      89.0  T
     SCC iter.                  ...        0 min,  0.087 sec
     gradient                   ...        0 min,  0.210 sec
 * total energy  :  -148.1873186 Eh     change       -0.4937265E-05 Eh
   gradient norm :     0.0003805 Eh/α   predicted    -0.2297624E-05 ( -53.46%)
   displ. norm   :     0.0806138 α      lambda       -0.5317914E-05
   maximum displ.:     0.0403506 α      in ANC's #11, #2, #15, ...

   *** GEOMETRY OPTIMIZATION CONVERGED AFTER 48 ITERATIONS ***

------------------------------------------------------------------------
 total energy gain   :        -0.0259675 Eh      -16.2949 kcal/mol
 total RMSD          :         0.9245255 a0        0.4892 Å
 total power (kW/mol):        -1.4203697 (step)   -4.3067 (real)
------------------------------------------------------------------------

 ANCopt (total)                0 d,  0 h,  0 min, 15.831 sec
 optimizer setup                ...        0 min,  0.000 sec (  0.001%)
 model hessian                  ...        0 min,  0.329 sec (  2.078%)
 ANC generation                 ...        0 min,  0.028 sec (  0.176%)
 coordinate transformation      ...        0 min,  0.003 sec (  0.017%)
 single point calculation       ...        0 min, 15.444 sec ( 97.556%)
 optimization log               ...        0 min,  0.014 sec (  0.090%)
 hessian update                 ...        0 min,  0.003 sec (  0.016%)
 rational function              ...        0 min,  0.008 sec (  0.050%)

================
 final structure:
================
98
 xtb: 6.7.1 (edcfbbe)
O           -3.42463888257868       -0.46813547751984        1.70367086663464
C           -4.02783510662994       -0.16756336096275        0.70490607955867
N           -3.51629062710369        0.49155625757463       -0.35746128585160
C           -2.08518310219427        0.53209377399657       -0.59889370176683
C           -1.74979033189433       -0.23816372172158       -1.88455343796873
C           -2.34916717938576       -1.61380671465501       -1.80791809642298
C           -3.47045182201804       -1.94887715630329       -2.55456984621494
C           -4.06517748488118       -3.19141238945335       -2.41694811988886
C           -3.54535569670986       -4.11291447376135       -1.52547539892221
C           -2.42588257539862       -3.78826662287850       -0.77688227801155
C           -1.83368211529942       -2.54691101993319       -0.91574267159533
C           -1.59284208894253        1.99316762094378       -0.66502543911189
C           -1.81021796011579        2.73102762748008        0.66159425606382
C           -1.08799619382251        2.08227393386609        1.85115284753287
N            0.30586661471600        1.82239354035102        1.53357939581552
C            1.19804846016395        2.77421950765428        1.21933828951799
C            2.56207330393935        2.16129656854586        0.83243542381691
N            2.46720320553554        1.51547497797490       -0.46370544023400
C            2.00408207104207        0.24760512702692       -0.60720412834919
N            2.00651766294871       -0.24892461165317       -1.88356203686598
C            2.67862281392196        0.42874401098049       -2.97097510986024
C            1.78946600574952       -1.67912060908089       -2.04364621767923
C            3.09361572124303       -2.41594458996431       -2.06738676833490
C            3.76018211049036       -2.86624275089964       -0.96967722660976
S            5.25459149184985       -3.58143365281134       -1.42374423231536
C            4.87106820408106       -3.20717417525898       -3.09428359625274
C            5.80068829823063       -3.56940835698438       -4.20173042315083
C            5.13566325775556       -4.60955565486489       -5.10701417403667
C            6.17091022740534       -2.31551772494439       -4.99682256522521
N            3.74190048080968       -2.61511378241019       -3.24550498286895
O            1.59171775789358       -0.41001673307559        0.34350913743462
C            3.70402891867109        3.18917306309648        0.85693308022320
C            3.60933450778309        4.21101176682159       -0.27616486972015
C            5.05382656534469        2.47556682398500        0.82622310395305
O            0.97623155711973        3.96936668556499        1.22113864609254
C           -1.19650680814441        2.97062074167704        3.10412856452400
C           -0.48150721504043        2.32120585727598        4.25388717953986
C            0.78659099593264        2.74440965972112        4.62822006612173
C            1.46329591056446        2.11522466622449        5.65853769863057
C            0.87881880887543        1.05287991295869        6.32605931997342
C           -0.38418680644055        0.62152353130571        5.95661826923008
C           -1.05839739421068        1.25019954932456        4.92557076058367
O           -2.20334034336573        2.68317971033378       -1.73295547462244
O           -5.35075028700050       -0.39646685501292        0.51663999902262
C           -6.01685593412247       -1.05559379041295        1.59157525281166
C           -7.48197224053469       -0.91370813966920        1.39943646441329
C           -8.41563026611491       -1.88867081056516        1.20927198010831
N           -9.68612549220562       -1.45667966323657        1.05123842015253
C           -9.76011709992165       -0.17928856380706        1.10533883316944
S           -8.25104076647323        0.63772243450170        1.36607719572665
H           -4.11867718487917        0.56782378478485       -1.16399211062694
H           -1.61095085546596        0.03360516903093        0.24920269657645
H           -0.66480711770005       -0.29385598704134       -1.97301142404032
H           -2.14056895773708        0.31207827351820       -2.74296896941008
H           -3.88234854914976       -1.23351004425592       -3.25375249605142
H           -4.93896587585019       -3.43690423715226       -3.00292352267268
H           -4.01164375363652       -5.08070308808894       -1.41289467112996
H           -2.01729652247880       -4.50263441582945       -0.07753253614374
H           -0.97066617878746       -2.29189635909810       -0.31815594192024
H           -0.52601522712867        1.97992823972684       -0.91016956907960
H           -2.88022871711676        2.76514041406319        0.88035223773504
H           -1.44335740814509        3.75204310218175        0.54096745252558
H           -1.54694379343772        1.11678921729107        2.07965455188058
H            0.60158640633569        0.85656547303676        1.43130403960601
H            2.77836215288406        1.37022186476111        1.56100287636282
H            2.54476925834515        2.12058432288489       -1.26239380404695
H            2.11124529782305        1.30835538454125       -3.28811673696712
H            3.69427259401039        0.73103028826883       -2.69835005999041
H            2.74771415118172       -0.25942086258637       -3.81011808055837
H            1.19399766525566       -2.01352153442371       -1.19358713470278
H            1.24722698259739       -1.85531437230718       -2.97550313438683
H            3.45654072078448       -2.81074614053139        0.05549815576435
H            6.70625617489502       -4.00079924272813       -3.76302316490759
H            4.89489492693245       -5.50840760903258       -4.54403293452333
H            5.80417916677022       -4.87756257548193       -5.92122513663236
H            4.21697089286287       -4.20301432794779       -5.52140402918861
H            6.84527853474819       -2.57436312908733       -5.80907695561628
H            6.66216253880415       -1.58705072755299       -4.35572383038252
H            5.27319637380865       -1.86506145034506       -5.41142712877046
H            3.60671875126063        3.72891792841842        1.80388024051485
H            3.85102971086410        3.76426824638970       -1.23954723847187
H            4.31924181290407        5.01567049159745       -0.10033119716633
H            2.61167067603229        4.63865363902711       -0.31069817015141
H            5.16635666717161        1.82309750002352        1.68890995905567
H            5.86430345317472        3.20027269347549        0.83486274633982
H            5.14257403338704        1.87042933574986       -0.07398226905178
H           -0.75435924458580        3.94230777760643        2.88621229011678
H           -2.25370492725810        3.10339091042059        3.34004049022576
H            1.24396992345131        3.57285252250019        4.10665254163867
H            2.44938881964796        2.45492915736179        5.94156566817091
H            1.40580886841721        0.56172893051667        7.13118916483558
H           -0.84387851255141       -0.20886714723752        6.47285860221341
H           -2.04034049512293        0.90556822750172        4.63426372258890
H           -3.11735117156206        2.86522067323291       -1.48479523055264
H           -5.73775351513645       -2.11603753872174        1.59637249401992
H           -5.68736713252408       -0.60858090425359        2.53873664796190
H           -8.21477696765980       -2.94405253261578        1.18438340561788
H          -10.67151757805991        0.37380471110871        0.99749388469887

 Bond Distances (Angstroems)
 ---------------------------
O1-C2=1.2049         C2-O1=1.2049         C2-N3=1.3508         C2-O44=1.3557        N3-C2=1.3508         N3-C4=1.4519         
N3-H51=1.0095        C4-N3=1.4519         C4-C5=1.5358         C4-C12=1.5432        C4-H52=1.0921        C5-C4=1.5358         
C5-C6=1.5025         C5-H53=1.0900        C5-H54=1.0919        C6-C5=1.5025         C6-C7=1.3882         C6-C11=1.3901        
C7-C6=1.3882         C7-C8=1.3844         C7-H55=1.0818        C8-C7=1.3844         C8-C9=1.3835         C8-H56=1.0803        
C9-C8=1.3835         C9-C10=1.3853        C9-H57=1.0801        C10-C9=1.3853        C10-C11=1.3824       C10-H58=1.0800       
C11-C6=1.3901        C11-C10=1.3824       C11-H59=1.0802       C12-C4=1.5432        C12-C13=1.5335       C12-O43=1.4104       
C12-H60=1.0947       C13-C12=1.5335       C13-C14=1.5354       C13-H61=1.0927       C13-H62=1.0916       C14-C13=1.5354       
C14-N15=1.4530       C14-C36=1.5398       C14-H63=1.0932       N15-C14=1.4530       N15-C16=1.3419       N15-H64=1.0153       
C16-N15=1.3419       C16-C17=1.5446       C16-O35=1.2156       C17-C16=1.5446       C17-N18=1.4512       C17-C32=1.5366       
C17-H65=1.0970       N18-C17=1.4512       N18-C19=1.3574       N18-H66=1.0050       C19-N18=1.3574       C19-N20=1.3695       
C19-O31=1.2273       N20-C19=1.3695       N20-C21=1.4469       N20-C22=1.4554       C21-N20=1.4469       C21-H67=1.0937       
C21-H68=1.0942       C21-H69=1.0874       C22-N20=1.4554       C22-C23=1.4981       C22-H70=1.0904       C22-H71=1.0924       
C23-C22=1.4981       C23-C24=1.3609       C23-N30=1.3594       C24-C23=1.3609       C24-S25=1.7178       C24-H72=1.0706       
S25-C24=1.7178       S25-C26=1.7544       C26-S25=1.7544       C26-C27=1.4906       C26-N30=1.2839       C27-C26=1.4906       
C27-C28=1.5309       C27-C29=1.5302       C27-H73=1.0948       C28-C27=1.5309       C28-H74=1.0876       C28-H75=1.0871       
C28-H76=1.0867       C29-C27=1.5302       C29-H77=1.0870       C29-H78=1.0877       C29-H79=1.0866       N30-C23=1.3594       
N30-C26=1.2839       O31-C19=1.2273       C32-C17=1.5366       C32-C33=1.5287       C32-C34=1.5271       C32-H80=1.0943       
C33-C32=1.5287       C33-H81=1.0891       C33-H82=1.0874       C33-H83=1.0860       C34-C32=1.5271       C34-H84=1.0875       
C34-H85=1.0873       C34-H86=1.0883       O35-C16=1.2156       C36-C14=1.5398       C36-C37=1.5016       C36-H87=1.0896       
C36-H88=1.0913       C37-C36=1.5016       C37-C38=1.3883       C37-C42=1.3896       C38-C37=1.3883       C38-C39=1.3840       
C38-H89=1.0805       C39-C38=1.3840       C39-C40=1.3841       C39-H90=1.0807       C40-C39=1.3841       C40-C41=1.3848       
C40-H91=1.0804       C41-C40=1.3848       C41-C42=1.3831       C41-H92=1.0804       C42-C37=1.3896       C42-C41=1.3831       
C42-H93=1.0807       O43-C12=1.4104       O43-H94=0.9644       O44-C2=1.3557        O44-C45=1.4261       C45-O44=1.4261       
C45-C46=1.4845       C45-H95=1.0966       C45-H96=1.0980       C46-C45=1.4845       C46-C47=1.3632       C46-S50=1.7319       
C47-C46=1.3632       C47-N48=1.3512       C47-H97=1.0746       N48-C47=1.3512       N48-C49=1.2807       C49-N48=1.2807       
[...]
       130        1.9805           -0.3937330             -10.7140
       131        1.9506           -0.3928209             -10.6892
       132        1.9176           -0.3923018             -10.6751
       133        1.7903           -0.3912728             -10.6471
       134        1.3731           -0.3895193             -10.5994
       135        0.5841           -0.2498296              -6.7982 (HOMO)
       136        0.4159           -0.2491844              -6.7807 (LUMO)
       137                         -0.2286627              -6.2222
       138                         -0.2271389              -6.1808
       139                         -0.2260640              -6.1515
       140                         -0.2205288              -6.0009
       ...                                ...                  ...
       258                          0.6752909              18.3756
      -------------------------------------------------------------
                  HL-Gap            0.0006452 Eh            0.0176 eV
             Fermi-level           -0.3197597 Eh           -8.7011 eV

 transition dipole moment (au) for excitation:         134         135
     X       Y       Z   
  -0.1623   0.2727  -1.0616  total (au/Debye):    1.108   2.816
 dE (eV)             :    3.801
 oscillator strength :  0.16168E+00

 SCC (total)                   0 d,  0 h,  0 min,  0.789 sec
 SCC setup                      ...        0 min,  0.002 sec (  0.190%)
 Dispersion                     ...        0 min,  0.027 sec (  3.473%)
 classical contributions        ...        0 min,  0.001 sec (  0.093%)
 integral evaluation            ...        0 min,  0.029 sec (  3.646%)
 iterations                     ...        0 min,  0.511 sec ( 64.732%)
 molecular gradient             ...        0 min,  0.196 sec ( 24.867%)
 printout                       ...        0 min,  0.024 sec (  2.998%)

         :::::::::::::::::::::::::::::::::::::::::::::::::::::
         ::                     SUMMARY                     ::
         :::::::::::::::::::::::::::::::::::::::::::::::::::::
         :: total energy            -148.055760206716 Eh    ::
         :: gradient norm              0.098269270037 Eh/a0 ::
         :: HOMO-LUMO gap              0.017557735357 eV    ::
         ::.................................................::
         :: SCC energy              -150.060689709090 Eh    ::
         :: -> isotropic ES            0.186117517373 Eh    ::
         :: -> anisotropic ES          0.007029367366 Eh    ::
         :: -> anisotropic XC          0.059724384944 Eh    ::
         :: -> dispersion             -0.118440923694 Eh    ::
         :: repulsion energy           2.004929502375 Eh    ::
         :: add. restraining           0.000000000000 Eh    ::
         :: total charge               0.000000000218 e     ::
         :::::::::::::::::::::::::::::::::::::::::::::::::::::

           -------------------------------------------------
          |                Property Printout                |
           -------------------------------------------------

    * Orbital Energies and Occupations

         #    Occupation            Energy/Eh            Energy/eV
      -------------------------------------------------------------
         1        2.0000           -0.7413286             -20.1726
       ...           ...                  ...                  ...
       123        2.0000           -0.4121323             -11.2147
       124        2.0000           -0.4094220             -11.1409
       125        2.0000           -0.4077949             -11.0967
       126        2.0000           -0.4070909             -11.0775
       127        2.0000           -0.4013656             -10.9217
       128        1.9999           -0.3990564             -10.8589
       129        1.9881           -0.3942109             -10.7270
       130        1.9805           -0.3937330             -10.7140
       131        1.9506           -0.3928209             -10.6892
       132        1.9176           -0.3923018             -10.6751
       133        1.7903           -0.3912728             -10.6471
       134        1.3731           -0.3895193             -10.5994
       135        0.5841           -0.2498296              -6.7982 (HOMO)
       136        0.4159           -0.2491844              -6.7807 (LUMO)
       137                         -0.2286627              -6.2222
       138                         -0.2271389              -6.1808
       139                         -0.2260640              -6.1515
       140                         -0.2205288              -6.0009
       141                         -0.2195476              -5.9742
       142                         -0.2105099              -5.7283
       143                         -0.2017233              -5.4892
       144                         -0.2009931              -5.4693
       145                         -0.1984631              -5.4005
       146                         -0.1883933              -5.1264
       ...                                ...                  ...
       258                          0.6752909              18.3756
      -------------------------------------------------------------
                  HL-Gap            0.0006452 Eh            0.0176 eV
             Fermi-level           -0.3197597 Eh           -8.7011 eV

     #   Z          covCN         q      C6AA      α(0)
     1   8 O        0.857    -0.465    23.031     6.434
     2   6 C        2.659     0.405    20.166     7.347
     3   7 N        2.689    -0.208    25.523     7.503
     4   6 C        3.796     0.032    20.034     6.373
     5   6 C        3.811    -0.075    21.928     6.666
     6   6 C        2.973     0.009    27.818     8.651
     7   6 C        2.925    -0.039    28.974     8.827
     8   6 C        2.919    -0.029    28.733     8.790
     9   6 C        2.920    -0.031    28.784     8.798
    10   6 C        2.919    -0.028    28.692     8.784
    11   6 C        2.925    -0.037    28.922     8.819
    12   6 C        3.727     0.106    18.940     6.213
    13   6 C        3.804    -0.085    22.128     6.697
    14   6 C        3.791     0.044    19.841     6.343
    15   7 N        2.691    -0.182    24.933     7.416
    16   6 C        2.749     0.270    22.435     7.756
    17   6 C        3.798     0.017    20.288     6.413
    18   7 N        2.694    -0.198    25.302     7.471
    19   6 C        2.703     0.316    21.623     7.611
    20   7 N        2.739    -0.117    23.538     7.206
    21   6 C        3.694    -0.049    21.643     6.656
    22   6 C        3.757    -0.001    20.649     6.479
    23   6 C        3.220     0.073    25.687     8.241
    24   6 C        2.924    -0.044    29.083     8.844
    25  16 S        2.285    -0.093   144.924    20.262
    26   6 C        3.028     0.098    25.803     8.332
    27   6 C        3.870    -0.010    20.705     6.470
    28   6 C        3.759    -0.104    22.538     6.768
    29   6 C        3.758    -0.105    22.556     6.771
    30   7 N        1.966    -0.264    27.687     7.803
    31   8 O        0.859    -0.501    23.800     6.541
    32   6 C        3.851    -0.013    20.769     6.482
    33   6 C        3.754    -0.113    22.725     6.798
    34   6 C        3.756    -0.111    22.674     6.789
    35   8 O        0.858    -0.410    21.875     6.271
    36   6 C        3.811    -0.075    21.927     6.665
    37   6 C        2.972     0.015    27.677     8.629
    38   6 C        2.925    -0.039    28.963     8.826
    39   6 C        2.919    -0.031    28.778     8.797
    40   6 C        2.920    -0.032    28.786     8.798
    41   6 C        2.919    -0.029    28.713     8.787
    42   6 C        2.925    -0.037    28.926     8.820
    43   8 O        1.655    -0.441    21.670     6.284
    44   8 O        1.708    -0.303    19.038     5.891
    45   6 C        3.726     0.094    19.123     6.244
    46   6 C        2.973    -0.010    28.254     8.719
    47   6 C        3.197     0.025    26.911     8.456
    48   7 N        1.959    -0.199    26.134     7.581
    49   6 C        2.995     0.055    26.750     8.484
    50  16 S        2.290    -0.066   143.799    20.183
    51   1 H        0.860     0.190     1.160     1.687
    52   1 H        0.924     0.070     2.084     2.258
    53   1 H        0.925     0.051     2.311     2.377
    54   1 H        0.924     0.054     2.274     2.358
    55   1 H        0.925     0.026     2.641     2.542
    56   1 H        0.926     0.032     2.551     2.498
    57   1 H        0.926     0.032     2.556     2.500
    58   1 H        0.926     0.035     2.514     2.480
    59   1 H        0.926     0.038     2.480     2.462
    60   1 H        0.924     0.040     2.451     2.448
    61   1 H        0.924     0.046     2.368     2.406
    62   1 H        0.924     0.074     2.039     2.233
    63   1 H        0.924     0.072     2.064     2.247
    64   1 H        0.860     0.211     1.050     1.605
    65   1 H        0.924     0.074     2.046     2.237
    66   1 H        0.860     0.188     1.170     1.694
    67   1 H        0.924     0.052     2.296     2.370
    68   1 H        0.924     0.048     2.339     2.392
    69   1 H        0.925     0.087     1.912     2.162
    70   1 H        0.924     0.082     1.962     2.190
    71   1 H        0.924     0.062     2.173     2.305
    72   1 H        0.927     0.046     2.365     2.405
    73   1 H        0.924     0.039     2.463     2.454
    74   1 H        0.925     0.040     2.450     2.448
    75   1 H        0.925     0.044     2.397     2.421
    76   1 H        0.925     0.051     2.311     2.377
    77   1 H        0.925     0.044     2.402     2.424
    78   1 H        0.925     0.037     2.493     2.469
    79   1 H        0.925     0.050     2.324     2.384
    80   1 H        0.924     0.053     2.283     2.363
    81   1 H        0.925     0.029     2.603     2.523
    82   1 H        0.925     0.047     2.354     2.399
    83   1 H        0.925     0.065     2.138     2.287
    84   1 H        0.925     0.040     2.444     2.445
    85   1 H        0.925     0.048     2.343     2.394
    86   1 H        0.925     0.038     2.479     2.462
    87   1 H        0.925     0.069     2.091     2.261
    88   1 H        0.924     0.050     2.315     2.379
    89   1 H        0.926     0.033     2.548     2.496
    90   1 H        0.926     0.029     2.600     2.522
    91   1 H        0.926     0.031     2.577     2.510
    92   1 H        0.926     0.034     2.533     2.489
    93   1 H        0.926     0.041     2.438     2.442
    94   1 H        0.805     0.296     0.732     1.344
    95   1 H        0.924     0.047     2.364     2.404
    96   1 H        0.923     0.060     2.202     2.321
    97   1 H        0.926     0.042     2.421     2.433
    98   1 H        0.926     0.047     2.362     2.403

 Mol. C6AA /au·bohr⁶  :     109734.139933
 Mol. C8AA /au·bohr⁸  :    2701439.885899
 Mol. α(0) /au        :        512.504143


Wiberg/Mayer (AO) data.
largest (>0.10) Wiberg bond orders for each atom

 ---------------------------------------------------------------------------
     #   Z sym  total        # sym  WBO       # sym  WBO       # sym  WBO
 ---------------------------------------------------------------------------
     1   8 O    1.978 --     2 C    1.638     3 N    0.159    44 O    0.133
     2   6 C    3.939 --     1 O    1.638     3 N    1.199    44 O    1.056
     3   7 N    3.378 --     2 C    1.199     4 C    0.979    51 H    0.932
                             1 O    0.159
     4   6 C    3.959 --     3 N    0.979     5 C    0.972    12 C    0.959
                            52 H    0.952
     5   6 C    3.992 --     6 C    1.010     4 C    0.972    54 H    0.972
                            53 H    0.963
     6   6 C    3.987 --     7 C    1.418    11 C    1.407     5 C    1.010
                             9 C    0.109
     7   6 C    3.991 --     8 C    1.439     6 C    1.418    55 H    0.969
                            10 C    0.110
     8   6 C    3.992 --     9 C    1.443     7 C    1.439    56 H    0.971
                            11 C    0.112
     9   6 C    3.990 --     8 C    1.443    10 C    1.434    57 H    0.971
                             6 C    0.109
    10   6 C    3.992 --    11 C    1.451     9 C    1.434    58 H    0.971
                             7 C    0.110
    11   6 C    3.991 --    10 C    1.451     6 C    1.407    59 H    0.966
                             8 C    0.112
    12   6 C    3.955 --    43 O    0.996    13 C    0.987    60 H    0.960
                             4 C    0.959
    13   6 C    3.988 --    12 C    0.987    14 C    0.984    61 H    0.971
                            62 H    0.968
    14   6 C    3.956 --    13 C    0.984    15 N    0.974    36 C    0.967
                            63 H    0.954
    15   7 N    3.465 --    16 C    1.305    14 C    0.974    64 H    0.899
                            35 O    0.202
    16   6 C    3.939 --    35 O    1.666    15 N    1.305    17 C    0.896
    17   6 C    3.930 --    18 N    0.989    32 C    0.976    65 H    0.947
                            16 C    0.896
    18   7 N    3.371 --    19 C    1.181    17 C    0.989    66 H    0.922
                            31 O    0.140
    19   6 C    3.961 --    31 O    1.544    18 N    1.181    20 N    1.164
    20   7 N    3.406 --    19 C    1.164    21 C    1.001    22 C    0.964
                            31 O    0.135
    21   6 C    3.967 --    20 N    1.001    68 H    0.976    69 H    0.974
                            67 H    0.972
    22   6 C    3.960 --    23 C    0.992    71 H    0.965    20 N    0.964
                            70 H    0.956
    23   6 C    3.805 --    24 C    1.358    30 N    1.296    22 C    0.992
    24   6 C    3.673 --    23 C    1.358    25 S    1.229    72 H    0.969
    25  16 S    2.416 --    24 C    1.229    26 C    0.977    30 N    0.117
    26   6 C    3.629 --    30 N    1.491    27 C    1.018    25 S    0.977
    27   6 C    3.988 --    26 C    1.018    29 C    0.986    28 C    0.979
                            73 H    0.967
    28   6 C    3.975 --    74 H    0.987    76 H    0.986    75 H    0.983
                            27 C    0.979
    29   6 C    3.982 --    78 H    0.987    27 C    0.986    79 H    0.986
                            77 H    0.984
    30   7 N    3.052 --    26 C    1.491    23 C    1.296    25 S    0.117
    31   8 O    1.933 --    19 C    1.544    18 N    0.140    20 N    0.135
    32   6 C    3.985 --    33 C    1.009    34 C    1.006    17 C    0.976
                            80 H    0.964
    33   6 C    3.991 --    32 C    1.009    82 H    0.984    81 H    0.982
                            83 H    0.978
    34   6 C    3.990 --    32 C    1.006    86 H    0.986    84 H    0.986
                            85 H    0.984
    35   8 O    1.985 --    16 C    1.666    15 N    0.202
    36   6 C    3.987 --    37 C    1.012    14 C    0.967    87 H    0.966
                            88 H    0.966
    37   6 C    3.978 --    38 C    1.412    42 C    1.406    36 C    1.012
                            40 C    0.106
    38   6 C    3.988 --    39 C    1.444    37 C    1.412    89 H    0.969
                            41 C    0.110
    39   6 C    3.990 --    38 C    1.444    40 C    1.438    90 H    0.971
                            42 C    0.111
    40   6 C    3.981 --    39 C    1.438    41 C    1.433    91 H    0.971
                            37 C    0.106
    41   6 C    3.990 --    42 C    1.451    40 C    1.433    92 H    0.971
                            38 C    0.110
    42   6 C    3.987 --    41 C    1.451    37 C    1.406    93 H    0.968
                            39 C    0.111
    43   8 O    1.968 --    12 C    0.996    94 H    0.894
    44   8 O    2.228 --     2 C    1.056    45 C    0.934     1 O    0.133
    45   6 C    3.927 --    46 C    1.024    95 H    0.963    96 H    0.953
                            44 O    0.934
    46   6 C    3.749 --    47 C    1.470    50 S    1.141    45 C    1.024
    47   6 C    3.860 --    46 C    1.470    48 N    1.297    97 H    0.960
    48   7 N    3.023 --    49 C    1.545    47 C    1.297    50 S    0.111
    49   6 C    3.691 --    48 N    1.545    50 S    1.081    98 H    0.964
    50  16 S    2.436 --    46 C    1.141    49 C    1.081    48 N    0.111
    51   1 H    0.964 --     3 N    0.932
    52   1 H    0.995 --     4 C    0.952
    53   1 H    0.997 --     5 C    0.963
    54   1 H    0.997 --     5 C    0.972
    55   1 H    0.999 --     7 C    0.969
    56   1 H    0.999 --     8 C    0.971
    57   1 H    0.998 --     9 C    0.971
    58   1 H    0.998 --    10 C    0.971
    59   1 H    0.999 --    11 C    0.966
    60   1 H    0.998 --    12 C    0.960
    61   1 H    0.997 --    13 C    0.971
    62   1 H    0.992 --    13 C    0.968
    63   1 H    0.991 --    14 C    0.954
    64   1 H    0.955 --    15 N    0.899
    65   1 H    0.992 --    17 C    0.947
    66   1 H    0.965 --    18 N    0.922
    67   1 H    0.993 --    21 C    0.972
    68   1 H    0.996 --    21 C    0.976
    69   1 H    0.992 --    21 C    0.974
    70   1 H    0.991 --    22 C    0.956
    71   1 H    0.994 --    22 C    0.965
    72   1 H    0.997 --    24 C    0.969
    73   1 H    0.998 --    27 C    0.967
    74   1 H    0.998 --    28 C    0.987
    75   1 H    0.995 --    28 C    0.983
    76   1 H    0.997 --    28 C    0.986
    77   1 H    0.996 --    29 C    0.984
    78   1 H    0.998 --    29 C    0.987
    79   1 H    0.997 --    29 C    0.986
    80   1 H    0.997 --    32 C    0.964
    81   1 H    0.999 --    33 C    0.982
    82   1 H    0.997 --    33 C    0.984
    83   1 H    0.995 --    33 C    0.978
    84   1 H    0.998 --    34 C    0.986
    85   1 H    0.996 --    34 C    0.984
    86   1 H    0.999 --    34 C    0.986
    87   1 H    0.993 --    36 C    0.966
    88   1 H    0.996 --    36 C    0.966
    89   1 H    0.999 --    38 C    0.969
    90   1 H    0.999 --    39 C    0.971
    91   1 H    0.999 --    40 C    0.971
    92   1 H    0.998 --    41 C    0.971
    93   1 H    0.998 --    42 C    0.968
    94   1 H    0.912 --    43 O    0.894
    95   1 H    0.997 --    45 C    0.963
    96   1 H    0.987 --    45 C    0.953
    97   1 H    0.997 --    47 C    0.960
    98   1 H    0.995 --    49 C    0.964
 ---------------------------------------------------------------------------

Topologies differ in total number of bonds
Writing topology from bond orders to xtbtopo.mol

molecular dipole:
                 x           y           z       tot (Debye)
 q only:        2.045       0.922      -1.568
   full:        2.022       0.540      -1.621       6.729
molecular quadrupole (traceless):
                xx          xy          yy          xz          yz          zz
 q only:      -19.009       0.660      -0.566      -3.543       2.989      19.575
  q+dip:      -18.390       5.513       0.347       3.040      -3.388      18.043
   full:      -19.217       3.684      -0.575      -0.139      -0.723      19.792


           -------------------------------------------------
          | TOTAL ENERGY             -148.055760206716 Eh   |
          | GRADIENT NORM               0.098269270037 Eh/α |
          | HOMO-LUMO GAP               0.017557735357 eV   |
           -------------------------------------------------

------------------------------------------------------------------------
 * finished run on 2025/05/15 at 16:32:57.885     
------------------------------------------------------------------------
 total:
 * wall-time:     0 d,  0 h,  0 min,  0.840 sec
 *  cpu-time:     0 d,  0 h,  0 min,  0.556 sec
 * ratio c/w:     0.662 speedup
 SCF:
 * wall-time:     0 d,  0 h,  0 min,  0.790 sec
 *  cpu-time:     0 d,  0 h,  0 min,  0.523 sec
 * ratio c/w:     0.661 speedup


