98
 energy: -148.187318616243 gnorm: 0.000381474906 xtb: 6.7.1 (edcfbbe)
O           -3.42463888257868       -0.46813547751984        1.70367086663464
C           -4.02783510662994       -0.16756336096275        0.70490607955867
N           -3.51629062710369        0.49155625757463       -0.35746128585160
C           -2.08518310219427        0.53209377399657       -0.59889370176683
C           -1.74979033189433       -0.23816372172158       -1.88455343796873
C           -2.34916717938576       -1.61380671465501       -1.80791809642298
C           -3.47045182201804       -1.94887715630329       -2.55456984621494
C           -4.06517748488118       -3.19141238945335       -2.41694811988886
C           -3.54535569670986       -4.11291447376135       -1.52547539892221
C           -2.42588257539862       -3.78826662287850       -0.77688227801155
C           -1.83368211529942       -2.54691101993319       -0.91574267159533
C           -1.59284208894253        1.99316762094378       -0.66502543911189
C           -1.81021796011579        2.73102762748008        0.66159425606382
C           -1.08799619382251        2.08227393386609        1.85115284753287
N            0.30586661471600        1.82239354035102        1.53357939581552
C            1.19804846016395        2.77421950765428        1.21933828951799
C            2.56207330393935        2.16129656854586        0.83243542381691
N            2.46720320553554        1.51547497797490       -0.46370544023400
C            2.00408207104207        0.24760512702692       -0.60720412834919
N            2.00651766294871       -0.24892461165317       -1.88356203686598
C            2.67862281392196        0.42874401098049       -2.97097510986024
C            1.78946600574952       -1.67912060908089       -2.04364621767923
C            3.09361572124303       -2.41594458996431       -2.06738676833490
C            3.76018211049036       -2.86624275089964       -0.96967722660976
S            5.25459149184985       -3.58143365281134       -1.42374423231536
C            4.87106820408106       -3.20717417525898       -3.09428359625274
C            5.80068829823063       -3.56940835698438       -4.20173042315083
C            5.13566325775556       -4.60955565486489       -5.10701417403667
C            6.17091022740534       -2.31551772494439       -4.99682256522521
N            3.74190048080968       -2.61511378241019       -3.24550498286895
O            1.59171775789358       -0.41001673307559        0.34350913743462
C            3.70402891867109        3.18917306309648        0.85693308022320
C            3.60933450778309        4.21101176682159       -0.27616486972015
C            5.05382656534469        2.47556682398500        0.82622310395305
O            0.97623155711973        3.96936668556499        1.22113864609254
C           -1.19650680814441        2.97062074167704        3.10412856452400
C           -0.48150721504043        2.32120585727598        4.25388717953986
C            0.78659099593264        2.74440965972112        4.62822006612173
C            1.46329591056446        2.11522466622449        5.65853769863057
C            0.87881880887543        1.05287991295869        6.32605931997342
C           -0.38418680644055        0.62152353130571        5.95661826923008
C           -1.05839739421068        1.25019954932456        4.92557076058367
O           -2.20334034336573        2.68317971033378       -1.73295547462244
O           -5.35075028700050       -0.39646685501292        0.51663999902262
C           -6.01685593412247       -1.05559379041295        1.59157525281166
C           -7.48197224053469       -0.91370813966920        1.39943646441329
C           -8.41563026611491       -1.88867081056516        1.20927198010831
N           -9.68612549220562       -1.45667966323657        1.05123842015253
C           -9.76011709992165       -0.17928856380706        1.10533883316944
S           -8.25104076647323        0.63772243450170        1.36607719572665
H           -4.11867718487917        0.56782378478485       -1.16399211062694
H           -1.61095085546596        0.03360516903093        0.24920269657645
H           -0.66480711770005       -0.29385598704134       -1.97301142404032
H           -2.14056895773708        0.31207827351820       -2.74296896941008
H           -3.88234854914976       -1.23351004425592       -3.25375249605142
H           -4.93896587585019       -3.43690423715226       -3.00292352267268
H           -4.01164375363652       -5.08070308808894       -1.41289467112996
H           -2.01729652247880       -4.50263441582945       -0.07753253614374
H           -0.97066617878746       -2.29189635909810       -0.31815594192024
H           -0.52601522712867        1.97992823972684       -0.91016956907960
H           -2.88022871711676        2.76514041406319        0.88035223773504
H           -1.44335740814509        3.75204310218175        0.54096745252558
H           -1.54694379343772        1.11678921729107        2.07965455188058
H            0.60158640633569        0.85656547303676        1.43130403960601
H            2.77836215288406        1.37022186476111        1.56100287636282
H            2.54476925834515        2.12058432288489       -1.26239380404695
H            2.11124529782305        1.30835538454125       -3.28811673696712
H            3.69427259401039        0.73103028826883       -2.69835005999041
H            2.74771415118172       -0.25942086258637       -3.81011808055837
H            1.19399766525566       -2.01352153442371       -1.19358713470278
H            1.24722698259739       -1.85531437230718       -2.97550313438683
H            3.45654072078448       -2.81074614053139        0.05549815576435
H            6.70625617489502       -4.00079924272813       -3.76302316490759
H            4.89489492693245       -5.50840760903258       -4.54403293452333
H            5.80417916677022       -4.87756257548193       -5.92122513663236
H            4.21697089286287       -4.20301432794779       -5.52140402918861
H            6.84527853474819       -2.57436312908733       -5.80907695561628
H            6.66216253880415       -1.58705072755299       -4.35572383038252
H            5.27319637380865       -1.86506145034506       -5.41142712877046
H            3.60671875126063        3.72891792841842        1.80388024051485
H            3.85102971086410        3.76426824638970       -1.23954723847187
H            4.31924181290407        5.01567049159745       -0.10033119716633
H            2.61167067603229        4.63865363902711       -0.31069817015141
H            5.16635666717161        1.82309750002352        1.68890995905567
H            5.86430345317472        3.20027269347549        0.83486274633982
H            5.14257403338704        1.87042933574986       -0.07398226905178
H           -0.75435924458580        3.94230777760643        2.88621229011678
H           -2.25370492725810        3.10339091042059        3.34004049022576
H            1.24396992345131        3.57285252250019        4.10665254163867
H            2.44938881964796        2.45492915736179        5.94156566817091
H            1.40580886841721        0.56172893051667        7.13118916483558
H           -0.84387851255141       -0.20886714723752        6.47285860221341
H           -2.04034049512293        0.90556822750172        4.63426372258890
H           -3.11735117156206        2.86522067323291       -1.48479523055264
H           -5.73775351513645       -2.11603753872174        1.59637249401992
H           -5.68736713252408       -0.60858090425359        2.53873664796190
H           -8.21477696765980       -2.94405253261578        1.18438340561788
H          -10.67151757805991        0.37380471110871        0.99749388469887
