33
 energy: -45.171887836710 gnorm: 0.000415117844 xtb: 6.7.1 (edcfbbe)
C           -3.01963198480542        1.15565231681226       -0.43665804778061
C           -3.12251235755847       -0.36529539343030       -0.37420331325031
C           -2.24600349359962       -0.92566383696187        0.75948431710034
C           -0.78700598698078       -0.67440204306551        0.51452911972525
C           -0.10668409751323        0.33891172430437        1.17774277502584
C            1.23150030174853        0.57956228099749        0.92675132715670
C            1.92457686634821       -0.19072144917258        0.00197853906376
C            3.39553868258940        0.05742263974487       -0.26065558453576
C            3.52610169798140        1.49895023873478       -0.70213874565754
O            3.44245068333302        1.61467249688854       -2.03444567293761
O            3.65324008390521        2.44985688695289        0.02033962202200
C            4.23853311515110       -0.20894534924679        0.98662903346518
C            1.24761644917614       -1.19947527469042       -0.66928711915434
C           -0.08952858806996       -1.43878621514609       -0.41273229177743
C           -4.57416811924075       -0.79349568912208       -0.17568919967414
H           -3.38061803290754        1.59824053734664        0.48971899781910
H           -1.98777402623589        1.46427663372263       -0.58789380089425
H           -3.61896119502998        1.54385796046041       -1.25727367792941
H           -2.76098212071584       -0.77729453541722       -1.32298678616934
H           -2.41879011155342       -2.00211331186997        0.83426818671955
H           -2.54985362684442       -0.46634140348700        1.70217910874178
H           -0.62998592510468        0.94788757157437        1.90094452783856
H            1.74011142585542        1.37921562710154        1.44414343291424
H            3.72104082882858       -0.57979739867222       -1.08707356397249
H            3.48055954336183        2.54825493907200       -2.29678463476294
H            4.00592547637268        0.52112021114531        1.75674182620157
H            4.03136097145894       -1.20533120093648        1.36893801937797
H            5.29754136580504       -0.13386536436911        0.75043717357723
H            1.77083521107002       -1.80601006109094       -1.39480792217768
H           -0.59938657156477       -2.23378585074742       -0.93835754311532
H           -4.95922452247062       -0.40384064260917        0.76453362265688
H           -4.65909460613171       -1.87796557914084       -0.15785376406156
H           -5.19662733666072       -0.41485146568118       -0.98331796155779
