----- Optimization -----
      -----------------------------------------------------------      
     |                   =====================                   |     
     |                           x T B                           |     
     |                   =====================                   |     
     |                         S. Grimme                         |     
     |          Mulliken Center for Theoretical Chemistry        |     
     |                    University of Bonn                     |     
      -----------------------------------------------------------      

   * xtb version 6.7.1 (edcfbbe) compiled by 'conda@3ef47c1a292c' on 2024-11-25

   xtb is free software: you can redistribute it and/or modify it under
   the terms of the GNU Lesser General Public License as published by
   the Free Software Foundation, either version 3 of the License, or
   (at your option) any later version.
   
   xtb is distributed in the hope that it will be useful,
   but WITHOUT ANY WARRANTY; without even the implied warranty of
   MERCHANTABILITY or FITNESS FOR A PARTICULAR PURPOSE.  See the
   GNU Lesser General Public License for more details.
   
   Cite this work as:
   * C. Bannwarth, E. Caldeweyher, S. Ehlert, A. Hansen, P. Pracht,
     J. Seibert, S. Spicher, S. Grimme, WIREs Comput. Mol. Sci., 2020, 11,
     e01493. DOI: 10.1002/wcms.1493
   
   for GFN2-xTB:
   * C. Bannwarth, S. Ehlert and S. Grimme., J. Chem. Theory Comput., 2019,
     15, 1652-1671. DOI: 10.1021/acs.jctc.8b01176
   for GFN1-xTB:
   * S. Grimme, C. Bannwarth, P. Shushkov, J. Chem. Theory Comput., 2017,
     13, 1989-2009. DOI: 10.1021/acs.jctc.7b00118
   for GFN0-xTB:
   * P. Pracht, E. Caldeweyher, S. Ehlert, S. Grimme, ChemRxiv, 2019, preprint.
     DOI: 10.26434/chemrxiv.8326202.v1
   for GFN-FF:
   * S. Spicher and S. Grimme, Angew. Chem. Int. Ed., 2020, 59, 15665-15673.
     DOI: 10.1002/anie.202004239
   
   for ALPB and GBSA implicit solvation:
   * S. Ehlert, M. Stahn, S. Spicher, S. Grimme, J. Chem. Theory Comput.,
     2021, 17, 4250-4261. DOI: 10.1021/acs.jctc.1c00471
   
   for ddCOSMO and CPCM-X implicit solvation:
   * M. Stahn, S. Ehlert, S. Grimme, J. Phys. Chem. A,
     2023, XX, XXXX-XXXX. DOI: 10.1021/acs.jpca.3c04382
   
   for DFT-D4:
   * E. Caldeweyher, C. Bannwarth and S. Grimme, J. Chem. Phys., 2017,
     147, 034112. DOI: 10.1063/1.4993215
   * E. Caldeweyher, S. Ehlert, A. Hansen, H. Neugebauer, S. Spicher,
     C. Bannwarth and S. Grimme, J. Chem. Phys., 2019, 150, 154122.
     DOI: 10.1063/1.5090222
   * E. Caldeweyher, J.-M. Mewes, S. Ehlert and S. Grimme, Phys. Chem. Chem. Phys.
     2020, 22, 8499-8512. DOI: 10.1039/D0CP00502A
   
   for sTDA-xTB:
   * S. Grimme and C. Bannwarth, J. Chem. Phys., 2016, 145, 054103.
     DOI: 10.1063/1.4959605
   
   in the mass-spec context:
   * V. Asgeirsson, C. Bauer and S. Grimme, Chem. Sci., 2017, 8, 4879.
     DOI: 10.1039/c7sc00601b
   * J. Koopman and S. Grimme, ACS Omega 2019, 4, 12, 15120-15133.
     DOI: 10.1021/acsomega.9b02011
   
   for metadynamics refer to:
   * S. Grimme, J. Chem. Theory Comput., 2019, 155, 2847-2862
     DOI: 10.1021/acs.jctc.9b00143
   
   for SPH calculations refer to:
   * S. Spicher and S. Grimme, J. Chem. Theory Comput., 2021, 17, 1701-1714
     DOI: 10.1021/acs.jctc.0c01306
   
   for ONIOM refer to:
   * C. Plett, A. Katbashev, S. Ehlert, S. Grimme, M. Bursch,
     Phys. Chem. Chem. Phys., 2023, 25, 17860-17868. DOI: 10.1039/D3CP02178E
   
   for DIPRO refer to:
   * J. Kohn, N. Gildemeister, S. Grimme, D. Fazzi, A. Hansen,
     J. Chem. Phys., 2023, just accepted.
   
   for PTB refer to:
   * S. Grimme, M. Mueller, A. Hansen, J. Chem. Phys., 2023, 158, 124111.
     DOI: 10.1063/5.0137838
   
   with help from (in alphabetical order)
   P. Atkinson, C. Bannwarth, F. Bohle, G. Brandenburg, E. Caldeweyher
   M. Checinski, S. Dohm, S. Ehlert, S. Ehrlich, I. Gerasimov, C. Hölzer
   A. Katbashev, J. Kohn, J. Koopman, C. Lavigne, S. Lehtola, F. März, M. Müller,
   F. Musil, H. Neugebauer, J. Pisarek, C. Plett, P. Pracht, F. Pultar,
   J. Seibert, P. Shushkov, S. Spicher, M. Stahn, M. Steiner, T. Strunk,
   J. Stückrath, T. Rose, and J. Unsleber
   
 * started run on 2025/05/15 at 16:31:18.181     
   ID    Z sym.   atoms
    1    6 C      1-9, 12-15
    2    8 O      10, 11
    3    1 H      16-33

           -------------------------------------------------
          |                Calculation Setup                |
           -------------------------------------------------

          program call               : xtb /rds/general/user/hgt20/home/callum/QDESCP/Ibuprofen_rdkit_conf_5/Ibuprofen_rdkit_conf_5.xyz --opt normal --acc 1 --gfn 2 --chrg 0 --uhf 0 -P 1
          hostname                   : login-c
          coordinate file            : /rds/general/user/hgt20/home/callum/QDESCP/Ibuprofen_rdkit_conf_5/Ibuprofen_rdkit_conf_5.xyz
          omp threads                :                     1


           -------------------------------------------------
          |                 G F N 2 - x T B                 |
           -------------------------------------------------

        Reference                      10.1021/acs.jctc.8b01176
      * Hamiltonian:
        H0-scaling (s, p, d)           1.850000    2.230000    2.230000
        zeta-weighting                 0.500000
      * Dispersion:
        s8                             2.700000
        a1                             0.520000
        a2                             5.000000
        s9                             5.000000
      * Repulsion:
        kExp                           1.500000    1.000000
        rExp                           1.000000
      * Coulomb:
        alpha                          2.000000
        third order                    shell-resolved
        anisotropic                    true
        a3                             3.000000
        a5                             4.000000
        cn-shift                       1.200000
        cn-exp                         4.000000
        max-rad                        5.000000


          ...................................................
          :                      SETUP                      :
          :.................................................:
          :  # basis functions                  78          :
          :  # atomic orbitals                  78          :
          :  # shells                           48          :
          :  # electrons                        82          :
          :  max. iterations                   250          :
          :  Hamiltonian                  GFN2-xTB          :
          :  restarted?                      false          :
          :  GBSA solvation                  false          :
          :  PC potential                    false          :
          :  electronic temp.          300.0000000     K    :
          :  accuracy                    1.0000000          :
          :  -> integral cutoff          0.2500000E+02      :
          :  -> integral neglect         0.1000000E-07      :
          :  -> SCF convergence          0.1000000E-05 Eh   :
          :  -> wf. convergence          0.1000000E-03 e    :
          :  Broyden damping             0.4000000          :
          :  net charge                          0          :
          :  unpaired electrons                  0          :
          ...................................................

 iter      E             dE          RMSdq      gap      omega  full diag
   1    -45.7106700 -0.457107E+02  0.357E+00    4.40       0.0  T
   2    -45.7793349 -0.686649E-01  0.196E+00    4.13       1.0  T
   3    -45.7816167 -0.228172E-02  0.103E+00    4.29       1.0  T
   4    -45.7872469 -0.563019E-02  0.187E-01    3.80       1.0  T
   5    -45.7876546 -0.407738E-03  0.738E-02    3.80       1.0  T
   6    -45.7876856 -0.310462E-04  0.402E-02    3.83       1.0  T
   7    -45.7877099 -0.242898E-04  0.122E-02    3.84       1.4  T
   8    -45.7877118 -0.189590E-05  0.394E-03    3.84       4.4  T
   9    -45.7877120 -0.142997E-06  0.188E-03    3.84       9.2  T
  10    -45.7877120 -0.229087E-07  0.809E-04    3.84      21.5  T
  11    -45.7877120 -0.103962E-07  0.370E-04    3.84      47.0  T

   *** convergence criteria satisfied after 11 iterations ***

         #    Occupation            Energy/Eh            Energy/eV
      -------------------------------------------------------------
         1        2.0000           -0.7448296             -20.2678
       ...           ...                  ...                  ...
        35        2.0000           -0.4350071             -11.8371
        36        2.0000           -0.4253039             -11.5731
        37        2.0000           -0.4226137             -11.4999
        38        2.0000           -0.4170918             -11.3496
        39        2.0000           -0.4104400             -11.1686
        40        2.0000           -0.3966195             -10.7926
        41        2.0000           -0.3853859             -10.4869 (HOMO)
        42                         -0.2442186              -6.6455 (LUMO)
        43                         -0.2206111              -6.0031
        44                         -0.2204803              -5.9996
        45                         -0.0992851              -2.7017
        46                          0.0390734               1.0632
       ...                                ...                  ...
        78                          0.6234951              16.9662
      -------------------------------------------------------------
                  HL-Gap            0.1411673 Eh            3.8414 eV
             Fermi-level           -0.3148022 Eh           -8.5662 eV

 SCC (total)                   0 d,  0 h,  0 min,  0.032 sec
 SCC setup                      ...        0 min,  0.000 sec (  0.760%)
 Dispersion                     ...        0 min,  0.000 sec (  0.866%)
 classical contributions        ...        0 min,  0.000 sec (  0.283%)
 integral evaluation            ...        0 min,  0.004 sec ( 13.997%)
 iterations                     ...        0 min,  0.013 sec ( 41.058%)
 molecular gradient             ...        0 min,  0.014 sec ( 42.680%)
 printout                       ...        0 min,  0.000 sec (  0.338%)

         :::::::::::::::::::::::::::::::::::::::::::::::::::::
         ::                     SUMMARY                     ::
         :::::::::::::::::::::::::::::::::::::::::::::::::::::
         :: total energy             -45.164939059173 Eh    ::
         :: gradient norm              0.053250474011 Eh/a0 ::
         :: HOMO-LUMO gap              3.841356913740 eV    ::
         ::.................................................::
         :: SCC energy               -45.787617326535 Eh    ::
         :: -> isotropic ES            0.052317072828 Eh    ::
         :: -> anisotropic ES          0.007584712432 Eh    ::
         :: -> anisotropic XC          0.019753205843 Eh    ::
         :: -> dispersion             -0.028842069697 Eh    ::
         :: repulsion energy           0.622678267362 Eh    ::
         :: add. restraining           0.000000000000 Eh    ::
         :: total charge              -0.000000000000 e     ::
         :::::::::::::::::::::::::::::::::::::::::::::::::::::

      ----------------------------------------------------------- 
     |                   =====================                   |
     |                        A N C O P T                        |
     |                   =====================                   |
     |               Approximate Normal Coordinate               |
     |                Rational Function Optimizer                |
      ----------------------------------------------------------- 
      ----------------------------------------------------------- 
     |                   =====================                   |
     |                        A N C O P T                        |
     |                   =====================                   |
     |               Approximate Normal Coordinate               |
     |                Rational Function Optimizer                |
      ----------------------------------------------------------- 

          ...................................................
          :                      SETUP                      :
          :.................................................:
          :   optimization level            normal          :
          :   max. optcycles                   200          :
          :   ANC micro-cycles                  20          :
          :   degrees of freedom                93          :
          :.................................................:
          :   RF solver                   davidson          :
          :   write xtbopt.log                true          :
          :   linear?                        false          :
          :   energy convergence         0.5000000E-05 Eh   :
          :   grad. convergence          0.1000000E-02 Eh/α :
          :   maxmium RF displ.          1.0000000          :
          :   Hlow (freq-cutoff)         0.1000000E-01      :
          :   Hmax (freq-cutoff)         5.0000000          :
          :   S6 in model hess.         20.0000000          :
          ...................................................

generating ANC from exact Hessian ...
Using Lindh-Hessian (1995)
 Shifting diagonal of input Hessian by    9.6500461022441825E-003
 Lowest  eigenvalues of input Hessian
    0.000000    0.000000    0.000000    0.000000    0.000000    0.000000
    0.010000    0.010443    0.010883    0.011779    0.012035    0.014154
    0.014382    0.016993    0.017687    0.018222    0.018385    0.019509
 Highest eigenvalues
    1.553960    1.682761    1.821762    1.894074    1.934849    2.250804


........................................................................
.............................. CYCLE    1 ..............................
........................................................................

 iter      E             dE          RMSdq      gap      omega  full diag
   1    -45.7877120 -0.457877E+02  0.164E-04    3.84       0.0  T
   2    -45.7877120 -0.254786E-09  0.112E-04    3.84     155.5  T
   3    -45.7877120 -0.234508E-09  0.652E-05    3.84     266.8  T
     SCC iter.                  ...        0 min,  0.045 sec
     gradient                   ...        0 min,  0.013 sec
 * total energy  :   -45.1649391 Eh     change       -0.1106798E-08 Eh
   gradient norm :     0.0532557 Eh/α   predicted     0.0000000E+00 (-100.00%)
   displ. norm   :     0.2249886 α      lambda       -0.6050696E-02
   maximum displ.:     0.0743205 α      in ANC's #29, #7, #19, ...

........................................................................
.............................. CYCLE    2 ..............................
........................................................................

 iter      E             dE          RMSdq      gap      omega  full diag
   1    -45.8224735 -0.458225E+02  0.140E-01    4.06       0.0  T
   2    -45.8225391 -0.656332E-04  0.823E-02    4.02       1.0  T
   3    -45.8225335  0.556836E-05  0.322E-02    4.03       1.0  T
   4    -45.8225436 -0.100972E-04  0.758E-03    4.02       2.3  T
   5    -45.8225455 -0.190851E-05  0.265E-03    4.02       6.6  T
   6    -45.8225457 -0.159170E-06  0.136E-03    4.02      12.8  T
   7    -45.8225457 -0.670303E-08  0.391E-04    4.02      44.6  T
   8    -45.8225457 -0.192798E-08  0.156E-04    4.02     111.8  T
     SCC iter.                  ...        0 min,  0.009 sec
     gradient                   ...        0 min,  0.013 sec
 * total energy  :   -45.1688757 Eh     change       -0.3936686E-02 Eh
   gradient norm :     0.0172856 Eh/α   predicted    -0.3179084E-02 ( -19.24%)
   displ. norm   :     0.1969252 α      lambda       -0.1517994E-02
   maximum displ.:     0.0827680 α      in ANC's #7, #4, #8, ...

........................................................................
.............................. CYCLE    3 ..............................
........................................................................

 iter      E             dE          RMSdq      gap      omega  full diag
   1    -45.8372124 -0.458372E+02  0.713E-02    4.10       0.0  T
   2    -45.8372282 -0.157414E-04  0.414E-02    4.07       1.0  T
   3    -45.8372266  0.157642E-05  0.163E-02    4.07       1.1  T
   4    -45.8372296 -0.301179E-05  0.379E-03    4.07       4.6  T
   5    -45.8372300 -0.368636E-06  0.148E-03    4.07      11.7  T
   6    -45.8372300 -0.360131E-07  0.765E-04    4.07      22.7  T
   7    -45.8372300 -0.293463E-08  0.231E-04    4.07      75.3  T
     SCC iter.                  ...        0 min,  0.008 sec
     gradient                   ...        0 min,  0.046 sec
 * total energy  :   -45.1697798 Eh     change       -0.9040075E-03 Eh
   gradient norm :     0.0080641 Eh/α   predicted    -0.7888240E-03 ( -12.74%)
   displ. norm   :     0.1375497 α      lambda       -0.3868628E-03
   maximum displ.:     0.0739038 α      in ANC's #7, #4, #1, ...

........................................................................
.............................. CYCLE    4 ..............................
........................................................................

 iter      E             dE          RMSdq      gap      omega  full diag
   1    -45.8382289 -0.458382E+02  0.385E-02    4.08       0.0  T
   2    -45.8382303 -0.136345E-05  0.226E-02    4.07       1.0  T
   3    -45.8382299  0.415134E-06  0.574E-03    4.07       3.0  T
   4    -45.8382306 -0.692575E-06  0.146E-03    4.06      11.9  T
   5    -45.8382306 -0.214951E-07  0.818E-04    4.07      21.3  T
   6    -45.8382306 -0.418806E-08  0.359E-04    4.07      48.4  T
     SCC iter.                  ...        0 min,  0.007 sec
     gradient                   ...        0 min,  0.014 sec
 * total energy  :   -45.1700163 Eh     change       -0.2365521E-03 Eh
   gradient norm :     0.0051451 Eh/α   predicted    -0.1971153E-03 ( -16.67%)
   displ. norm   :     0.1146255 α      lambda       -0.1552167E-03
   maximum displ.:     0.0714822 α      in ANC's #4, #7, #1, ...

........................................................................
.............................. CYCLE    5 ..............................
........................................................................

 iter      E             dE          RMSdq      gap      omega  full diag
   1    -45.8362838 -0.458363E+02  0.353E-02    4.06       0.0  T
   2    -45.8362845 -0.672152E-06  0.210E-02    4.06       1.0  T
   3    -45.8362840  0.484848E-06  0.464E-03    4.06       3.8  T
   4    -45.8362846 -0.646739E-06  0.118E-03    4.06      14.7  T
   5    -45.8362847 -0.217528E-07  0.633E-04    4.06      27.5  T
   6    -45.8362847 -0.371942E-08  0.260E-04    4.06      67.0  T
     SCC iter.                  ...        0 min,  0.007 sec
     gradient                   ...        0 min,  0.013 sec
 * total energy  :   -45.1701145 Eh     change       -0.9814627E-04 Eh
   gradient norm :     0.0025104 Eh/α   predicted    -0.7863040E-04 ( -19.88%)
   displ. norm   :     0.0981965 α      lambda       -0.6672559E-04
   maximum displ.:     0.0618517 α      in ANC's #4, #1, #13, ...

........................................................................
.............................. CYCLE    6 ..............................
........................................................................

 iter      E             dE          RMSdq      gap      omega  full diag
   1    -45.8349785 -0.458350E+02  0.293E-02    4.06       0.0  T
   2    -45.8349789 -0.334602E-06  0.173E-02    4.06       1.0  T
   3    -45.8349787  0.152483E-06  0.272E-03    4.06       6.4  T
   4    -45.8349789 -0.221609E-06  0.849E-04    4.06      20.5  T
   5    -45.8349789 -0.133818E-07  0.442E-04    4.06      39.4  T
     SCC iter.                  ...        0 min,  0.045 sec
     gradient                   ...        0 min,  0.013 sec
 * total energy  :   -45.1701652 Eh     change       -0.5074492E-04 Eh
   gradient norm :     0.0020330 Eh/α   predicted    -0.3368503E-04 ( -33.62%)
   displ. norm   :     0.1377516 α      lambda       -0.7257746E-04
   maximum displ.:     0.0789921 α      in ANC's #4, #1, #13, ...

........................................................................
.............................. CYCLE    7 ..............................
........................................................................

 iter      E             dE          RMSdq      gap      omega  full diag
   1    -45.8342717 -0.458343E+02  0.436E-02    4.06       0.0  T
   2    -45.8342722 -0.475923E-06  0.256E-02    4.06       1.0  T
   3    -45.8342721  0.104427E-06  0.296E-03    4.06       5.9  T
   4    -45.8342723 -0.225642E-06  0.114E-03    4.06      15.3  T
   5    -45.8342723 -0.171137E-07  0.606E-04    4.06      28.7  T
   6    -45.8342723 -0.795097E-09  0.212E-04    4.06      81.9  T
     SCC iter.                  ...        0 min,  0.007 sec
     gradient                   ...        0 min,  0.013 sec
 * total energy  :   -45.1702212 Eh     change       -0.5601676E-04 Eh
   gradient norm :     0.0028868 Eh/α   predicted    -0.3697902E-04 ( -33.99%)
   displ. norm   :     0.1933611 α      lambda       -0.7926695E-04
   maximum displ.:     0.1033219 α      in ANC's #4, #1, #6, ...

........................................................................
.............................. CYCLE    8 ..............................
........................................................................

 iter      E             dE          RMSdq      gap      omega  full diag
   1    -45.8341677 -0.458342E+02  0.649E-02    4.05       0.0  T
   2    -45.8341684 -0.634090E-06  0.380E-02    4.06       1.0  T
   3    -45.8341683  0.494670E-07  0.375E-03    4.06       4.6  T
   4    -45.8341687 -0.326215E-06  0.154E-03    4.06      11.3  T
   5    -45.8341687 -0.951621E-08  0.818E-04    4.06      21.3  T
   6    -45.8341687 -0.306213E-08  0.228E-04    4.06      76.2  T
     SCC iter.                  ...        0 min,  0.007 sec
     gradient                   ...        0 min,  0.013 sec
 * total energy  :   -45.1702793 Eh     change       -0.5807641E-04 Eh
   gradient norm :     0.0038403 Eh/α   predicted    -0.4111782E-04 ( -29.20%)
   displ. norm   :     0.1847621 α      lambda       -0.6407659E-04
   maximum displ.:     0.0953638 α      in ANC's #1, #4, #6, ...

........................................................................
.............................. CYCLE    9 ..............................
........................................................................

 iter      E             dE          RMSdq      gap      omega  full diag
   1    -45.8348487 -0.458348E+02  0.652E-02    4.05       0.0  T
   2    -45.8348493 -0.595251E-06  0.382E-02    4.05       1.0  T
   3    -45.8348493 -0.197120E-07  0.358E-03    4.05       4.9  T
   4    -45.8348496 -0.258541E-06  0.151E-03    4.05      11.6  T
   5    -45.8348496 -0.392544E-08  0.787E-04    4.05      22.1  T
   6    -45.8348496 -0.403955E-08  0.213E-04    4.05      81.7  T
     SCC iter.                  ...        0 min,  0.007 sec
     gradient                   ...        0 min,  0.013 sec
 * total energy  :   -45.1703263 Eh     change       -0.4705988E-04 Eh
   gradient norm :     0.0034923 Eh/α   predicted    -0.3313324E-04 ( -29.59%)
   displ. norm   :     0.1589226 α      lambda       -0.5587608E-04
   maximum displ.:     0.0891013 α      in ANC's #1, #6, #4, ...

........................................................................
.............................. CYCLE   10 ..............................
........................................................................

 iter      E             dE          RMSdq      gap      omega  full diag
   1    -45.8361264 -0.458361E+02  0.579E-02    4.05       0.0  T
   2    -45.8361270 -0.600464E-06  0.339E-02    4.05       1.0  T
   3    -45.8361270 -0.839159E-07  0.262E-03    4.05       6.6  T
   4    -45.8361271 -0.102214E-06  0.135E-03    4.05      12.9  T
   5    -45.8361272 -0.132307E-07  0.755E-04    4.05      23.1  T
   6    -45.8361272 -0.157557E-08  0.210E-04    4.05      83.0  T
     SCC iter.                  ...        0 min,  0.007 sec
     gradient                   ...        0 min,  0.014 sec
 * total energy  :   -45.1703674 Eh     change       -0.4107241E-04 Eh
   gradient norm :     0.0024103 Eh/α   predicted    -0.2864743E-04 ( -30.25%)
   displ. norm   :     0.1533415 α      lambda       -0.4678745E-04
   maximum displ.:     0.0895968 α      in ANC's #1, #6, #5, ...

........................................................................
.............................. CYCLE   11 ..............................
........................................................................

 iter      E             dE          RMSdq      gap      omega  full diag
   1    -45.8367936 -0.458368E+02  0.571E-02    4.05       0.0  T
   2    -45.8367940 -0.393461E-06  0.335E-02    4.05       1.0  T
   3    -45.8367941 -0.795280E-07  0.229E-03    4.05       7.6  T
   4    -45.8367942 -0.877161E-07  0.128E-03    4.05      13.6  T
   5    -45.8367942 -0.130403E-07  0.655E-04    4.05      26.6  T
   6    -45.8367942 -0.183825E-08  0.123E-04    4.05     141.0  T
     SCC iter.                  ...        0 min,  0.007 sec
     gradient                   ...        0 min,  0.052 sec
 * total energy  :   -45.1704034 Eh     change       -0.3593059E-04 Eh
   gradient norm :     0.0031696 Eh/α   predicted    -0.2394694E-04 ( -33.35%)
   displ. norm   :     0.1813607 α      lambda       -0.5632282E-04
   maximum displ.:     0.1056847 α      in ANC's #1, #6, #5, ...

........................................................................
.............................. CYCLE   12 ..............................
........................................................................

 iter      E             dE          RMSdq      gap      omega  full diag
   1    -45.8371873 -0.458372E+02  0.659E-02    4.05       0.0  T
   2    -45.8371878 -0.470999E-06  0.386E-02    4.05       1.0  T
   3    -45.8371879 -0.831418E-07  0.265E-03    4.05       6.6  T
   4    -45.8371880 -0.132951E-06  0.143E-03    4.05      12.2  T
   5    -45.8371880 -0.121037E-07  0.706E-04    4.05      24.6  T
   6    -45.8371880 -0.274160E-08  0.168E-04    4.05     103.4  T
     SCC iter.                  ...        0 min,  0.007 sec
     gradient                   ...        0 min,  0.014 sec
 * total energy  :   -45.1704465 Eh     change       -0.4315025E-04 Eh
   gradient norm :     0.0043047 Eh/α   predicted    -0.2908891E-04 ( -32.59%)
   displ. norm   :     0.2235401 α      lambda       -0.6238750E-04
   maximum displ.:     0.1321292 α      in ANC's #1, #6, #5, ...

........................................................................
.............................. CYCLE   13 ..............................
........................................................................

 iter      E             dE          RMSdq      gap      omega  full diag
   1    -45.8360980 -0.458361E+02  0.835E-02    4.03       0.0  T
   2    -45.8360987 -0.712310E-06  0.489E-02    4.03       1.0  T
   3    -45.8360989 -0.172839E-06  0.353E-03    4.03       4.9  T
   4    -45.8360991 -0.208378E-06  0.181E-03    4.03       9.6  T
   5    -45.8360991 -0.149850E-08  0.752E-04    4.03      23.2  T
   6    -45.8360991 -0.846148E-08  0.176E-04    4.03      98.8  T
     SCC iter.                  ...        0 min,  0.007 sec
     gradient                   ...        0 min,  0.053 sec
 * total energy  :   -45.1704923 Eh     change       -0.4583471E-04 Eh
   gradient norm :     0.0057258 Eh/α   predicted    -0.3275321E-04 ( -28.54%)
   displ. norm   :     0.3157605 α      lambda       -0.1237634E-03
   maximum displ.:     0.1868948 α      in ANC's #5, #1, #6, ...

........................................................................
.............................. CYCLE   14 ..............................
........................................................................

 iter      E             dE          RMSdq      gap      omega  full diag
   1    -45.8360523 -0.458361E+02  0.101E-01    4.07       0.0  T
   2    -45.8360545 -0.220353E-05  0.597E-02    4.06       1.0  T
   3    -45.8360538  0.748313E-06  0.783E-03    4.06       2.2  T
   4    -45.8360552 -0.148198E-05  0.215E-03    4.06       8.1  T
   5    -45.8360552  0.162773E-08  0.102E-03    4.06      17.1  T
   6    -45.8360553 -0.104511E-07  0.367E-04    4.06      47.4  T
   7    -45.8360553 -0.233038E-08  0.135E-04    4.06     128.6  T
     SCC iter.                  ...        0 min,  0.008 sec
     gradient                   ...        0 min,  0.014 sec
 * total energy  :   -45.1705493 Eh     change       -0.5692787E-04 Eh
   gradient norm :     0.0053224 Eh/α   predicted    -0.6805256E-04 (  19.54%)
   displ. norm   :     0.2380381 α      lambda       -0.7790864E-04
   maximum displ.:     0.1444719 α      in ANC's #1, #6, #5, ...

........................................................................
.............................. CYCLE   15 ..............................
........................................................................

 iter      E             dE          RMSdq      gap      omega  full diag
   1    -45.8335568 -0.458336E+02  0.937E-02    3.99       0.0  T
   2    -45.8335604 -0.361900E-05  0.551E-02    4.01       1.0  T
   3    -45.8335587  0.169839E-05  0.109E-02    4.00       1.6  T
   4    -45.8335615 -0.280808E-05  0.234E-03    4.01       7.4  T
   5    -45.8335615  0.666631E-10  0.130E-03    4.01      13.4  T
   6    -45.8335615 -0.111727E-07  0.378E-04    4.01      46.0  T
   7    -45.8335615 -0.239593E-08  0.985E-05    4.01     176.8  T
     SCC iter.                  ...        0 min,  0.008 sec
     gradient                   ...        0 min,  0.015 sec
 * total energy  :   -45.1705710 Eh     change       -0.2172255E-04 Eh
   gradient norm :     0.0082660 Eh/α   predicted    -0.4116461E-04 (  89.50%)
   displ. norm   :     0.1134619 α      lambda       -0.1157109E-03
   maximum displ.:     0.0676917 α      in ANC's #5, #6, #1, ...

........................................................................
.............................. CYCLE   16 ..............................
........................................................................

 iter      E             dE          RMSdq      gap      omega  full diag
   1    -45.8353330 -0.458353E+02  0.415E-02    4.05       0.0  T
   2    -45.8353399 -0.693237E-05  0.244E-02    4.04       1.0  T
   3    -45.8353398  0.370923E-07  0.107E-02    4.04       1.6  T
   4    -45.8353406 -0.706969E-06  0.184E-03    4.04       9.5  T
   5    -45.8353406 -0.792994E-07  0.610E-04    4.04      28.6  T
   6    -45.8353406 -0.802111E-08  0.330E-04    4.04      52.8  T
     SCC iter.                  ...        0 min,  0.046 sec
     gradient                   ...        0 min,  0.014 sec
 * total energy  :   -45.1706326 Eh     change       -0.6165941E-04 Eh
   gradient norm :     0.0038960 Eh/α   predicted    -0.5860127E-04 (  -4.96%)
   displ. norm   :     0.1086504 α      lambda       -0.5393266E-04
   maximum displ.:     0.0615305 α      in ANC's #1, #6, #13, ...

........................................................................
.............................. CYCLE   17 ..............................
........................................................................

 iter      E             dE          RMSdq      gap      omega  full diag
   1    -45.8358362 -0.458358E+02  0.354E-02    4.05       0.0  T
   2    -45.8358373 -0.106937E-05  0.208E-02    4.05       1.0  T
   3    -45.8358373  0.224760E-07  0.313E-03    4.05       5.6  T
   4    -45.8358374 -0.122639E-06  0.114E-03    4.05      15.3  T
   5    -45.8358374 -0.200323E-07  0.618E-04    4.05      28.2  T
   6    -45.8358374 -0.785114E-09  0.303E-04    4.05      57.5  T
     SCC iter.                  ...        0 min,  0.007 sec
     gradient                   ...        0 min,  0.014 sec
 * total energy  :   -45.1706747 Eh     change       -0.4206713E-04 Eh
   gradient norm :     0.0025606 Eh/α   predicted    -0.2728906E-04 ( -35.13%)
   displ. norm   :     0.3367753 α      lambda       -0.1160762E-03
   maximum displ.:     0.1923400 α      in ANC's #1, #6, #13, ...

........................................................................
.............................. CYCLE   18 ..............................
........................................................................

 iter      E             dE          RMSdq      gap      omega  full diag
   1    -45.8353561 -0.458354E+02  0.116E-01    4.01       0.0  T
   2    -45.8353599 -0.380022E-05  0.685E-02    4.02       1.0  T
   3    -45.8353589  0.965161E-06  0.971E-03    4.02       1.8  T
   4    -45.8353611 -0.223150E-05  0.303E-03    4.03       5.8  T
   5    -45.8353612 -0.160401E-07  0.184E-03    4.03       9.5  T
   6    -45.8353612 -0.170156E-07  0.737E-04    4.02      23.6  T
   7    -45.8353612 -0.932329E-08  0.100E-04    4.02     174.0  T
     SCC iter.                  ...        0 min,  0.009 sec
     gradient                   ...        0 min,  0.054 sec
 * total energy  :   -45.1707539 Eh     change       -0.7914635E-04 Eh
   gradient norm :     0.0063561 Eh/α   predicted    -0.6463100E-04 ( -18.34%)
   displ. norm   :     0.2062750 α      lambda       -0.9871207E-04
   maximum displ.:     0.0968972 α      in ANC's #1, #6, #7, ...

........................................................................
.............................. CYCLE   19 ..............................
........................................................................

 iter      E             dE          RMSdq      gap      omega  full diag
   1    -45.8356678 -0.458357E+02  0.660E-02    4.03       0.0  T
   2    -45.8356684 -0.603710E-06  0.387E-02    4.03       1.0  T
   3    -45.8356683  0.754287E-07  0.398E-03    4.03       4.4  T
   4    -45.8356687 -0.382613E-06  0.166E-03    4.03      10.5  T
   5    -45.8356687 -0.231228E-08  0.835E-04    4.03      20.8  T
   6    -45.8356687 -0.892947E-08  0.199E-04    4.03      87.3  T
     SCC iter.                  ...        0 min,  0.007 sec
     gradient                   ...        0 min,  0.013 sec
 * total energy  :   -45.1708293 Eh     change       -0.7546352E-04 Eh
   gradient norm :     0.0057250 Eh/α   predicted    -0.5146023E-04 ( -31.81%)
   displ. norm   :     0.2058779 α      lambda       -0.1545842E-03
   maximum displ.:     0.0869123 α      in ANC's #7, #6, #2, ...

........................................................................
.............................. CYCLE   20 ..............................
........................................................................

 iter      E             dE          RMSdq      gap      omega  full diag
   1    -45.8366113 -0.458366E+02  0.700E-02    4.05       0.0  T
   2    -45.8366187 -0.739874E-05  0.405E-02    4.05       1.0  T
   3    -45.8366176  0.116996E-05  0.136E-02    4.06       1.3  T
   4    -45.8366198 -0.229116E-05  0.214E-03    4.05       8.1  T
   5    -45.8366199 -0.589865E-07  0.111E-03    4.05      15.7  T
   6    -45.8366199 -0.626276E-08  0.640E-04    4.05      27.2  T
   7    -45.8366199 -0.387170E-08  0.753E-05    4.05     231.1  T
     SCC iter.                  ...        0 min,  0.008 sec
     gradient                   ...        0 min,  0.059 sec
 * total energy  :   -45.1709281 Eh     change       -0.9880247E-04 Eh
   gradient norm :     0.0031179 Eh/α   predicted    -0.8057374E-04 ( -18.45%)
   displ. norm   :     0.5006772 α      lambda       -0.1890969E-03
   maximum displ.:     0.2470624 α      in ANC's #6, #1, #13, ...
 * RMSD in coord.:     0.4993749 α      energy gain  -0.5989068E-02 Eh

generating ANC from exact Hessian ...
Using Lindh-Hessian (1995)
 Shifting diagonal of input Hessian by    9.6307882745667959E-003
 Lowest  eigenvalues of input Hessian
    0.000000    0.000000    0.000000    0.000000    0.000000    0.000000
    0.010000    0.010447    0.010882    0.011930    0.012305    0.013909
    0.015094    0.017542    0.018414    0.018654    0.019070    0.019951
 Highest eigenvalues
    1.616415    1.729035    1.897388    1.976676    2.029454    2.318419


........................................................................
.............................. CYCLE   21 ..............................
........................................................................

 iter      E             dE          RMSdq      gap      omega  full diag
   1    -45.8323203 -0.458323E+02  0.175E-01    3.92       0.0  T
   2    -45.8323419 -0.215079E-04  0.104E-01    3.95       1.0  T
   3    -45.8323323  0.950573E-05  0.265E-02    3.95       1.0  T
   4    -45.8323479 -0.155167E-04  0.479E-03    3.96       3.6  T
   5    -45.8323479 -0.158419E-07  0.268E-03    3.96       6.5  T
   6    -45.8323479 -0.195161E-07  0.111E-03    3.96      15.7  T
   7    -45.8323479 -0.253889E-07  0.271E-04    3.96      64.2  T
   8    -45.8323479 -0.830461E-09  0.112E-04    3.96     155.6  T
     SCC iter.                  ...        0 min,  0.009 sec
     gradient                   ...        0 min,  0.013 sec
 * total energy  :   -45.1708350 Eh     change        0.9315990E-04 Eh
   gradient norm :     0.0200422 Eh/α   predicted     0.0000000E+00 (-100.00%)
   displ. norm   :     0.0684270 α      lambda       -0.4675577E-03
   maximum displ.:     0.0331015 α      in ANC's #4, #10, #7, ...

........................................................................
.............................. CYCLE   22 ..............................
........................................................................

 iter      E             dE          RMSdq      gap      omega  full diag
   1    -45.8363496 -0.458363E+02  0.323E-02    4.06       0.0  T
   2    -45.8363583 -0.866133E-05  0.208E-02    4.04       1.0  T
   3    -45.8363598 -0.148983E-05  0.113E-02    4.04       1.5  T
   4    -45.8363601 -0.316995E-06  0.156E-03    4.04      11.1  T
   5    -45.8363601 -0.118792E-07  0.939E-04    4.04      18.5  T
   6    -45.8363601 -0.725580E-08  0.429E-04    4.04      40.5  T
     SCC iter.                  ...        0 min,  0.052 sec
     gradient                   ...        0 min,  0.013 sec
 * total energy  :   -45.1711254 Eh     change       -0.2904545E-03 Eh
   gradient norm :     0.0051153 Eh/α   predicted    -0.2348745E-03 ( -19.14%)
   displ. norm   :     0.0742602 α      lambda       -0.1165096E-03
   maximum displ.:     0.0381329 α      in ANC's #4, #10, #7, ...

........................................................................
.............................. CYCLE   23 ..............................
........................................................................

 iter      E             dE          RMSdq      gap      omega  full diag
   1    -45.8376210 -0.458376E+02  0.287E-02    4.07       0.0  T
   2    -45.8376243 -0.325656E-05  0.171E-02    4.07       1.0  T
   3    -45.8376244 -0.107528E-06  0.822E-03    4.07       2.1  T
   4    -45.8376248 -0.423657E-06  0.127E-03    4.07      13.7  T
   5    -45.8376248 -0.259180E-07  0.645E-04    4.07      27.0  T
   6    -45.8376248 -0.698851E-08  0.348E-04    4.07      50.0  T
     SCC iter.                  ...        0 min,  0.007 sec
     gradient                   ...        0 min,  0.013 sec
 * total energy  :   -45.1712015 Eh     change       -0.7609884E-04 Eh
   gradient norm :     0.0036171 Eh/α   predicted    -0.5873239E-04 ( -22.82%)
   displ. norm   :     0.1195419 α      lambda       -0.8870634E-04
   maximum displ.:     0.0646209 α      in ANC's #4, #10, #7, ...

........................................................................
.............................. CYCLE   24 ..............................
........................................................................

 iter      E             dE          RMSdq      gap      omega  full diag
   1    -45.8376308 -0.458376E+02  0.353E-02    4.07       0.0  T
   2    -45.8376329 -0.201745E-05  0.205E-02    4.07       1.0  T
   3    -45.8376325  0.329895E-06  0.626E-03    4.07       2.8  T
   4    -45.8376331 -0.534061E-06  0.170E-03    4.07      10.2  T
   5    -45.8376331 -0.775629E-07  0.695E-04    4.07      25.0  T
   6    -45.8376332 -0.273659E-08  0.387E-04    4.07      45.0  T
     SCC iter.                  ...        0 min,  0.007 sec
     gradient                   ...        0 min,  0.048 sec
 * total energy  :   -45.1712730 Eh     change       -0.7152132E-04 Eh
   gradient norm :     0.0037278 Eh/α   predicted    -0.4505913E-04 ( -37.00%)
   displ. norm   :     0.3015145 α      lambda       -0.1779042E-03
   maximum displ.:     0.1586233 α      in ANC's #4, #10, #3, ...

........................................................................
.............................. CYCLE   25 ..............................
........................................................................

 iter      E             dE          RMSdq      gap      omega  full diag
   1    -45.8358042 -0.458358E+02  0.945E-02    4.04       0.0  T
   2    -45.8358077 -0.343165E-05  0.555E-02    4.05       1.0  T
   3    -45.8358061  0.158852E-05  0.912E-03    4.05       1.9  T
   4    -45.8358087 -0.263312E-05  0.305E-03    4.05       5.7  T
   5    -45.8358088 -0.108841E-06  0.164E-03    4.05      10.6  T
   6    -45.8358088 -0.784862E-08  0.635E-04    4.05      27.4  T
   7    -45.8358088 -0.413295E-08  0.118E-04    4.05     147.1  T
     SCC iter.                  ...        0 min,  0.008 sec
     gradient                   ...        0 min,  0.013 sec
 * total energy  :   -45.1713990 Eh     change       -0.1259775E-03 Eh
   gradient norm :     0.0051418 Eh/α   predicted    -0.9704213E-04 ( -22.97%)
   displ. norm   :     0.2389232 α      lambda       -0.9835201E-04
   maximum displ.:     0.1248693 α      in ANC's #4, #6, #10, ...

........................................................................
.............................. CYCLE   26 ..............................
........................................................................

 iter      E             dE          RMSdq      gap      omega  full diag
   1    -45.8345171 -0.458345E+02  0.719E-02    4.02       0.0  T
   2    -45.8345205 -0.342932E-05  0.427E-02    4.03       1.0  T
   3    -45.8345194  0.116119E-05  0.954E-03    4.03       1.8  T
   4    -45.8345214 -0.204094E-05  0.213E-03    4.03       8.2  T
   5    -45.8345214 -0.218625E-07  0.134E-03    4.03      13.0  T
   6    -45.8345214 -0.110340E-07  0.650E-04    4.03      26.8  T
   7    -45.8345214 -0.586978E-08  0.951E-05    4.03     183.0  T
     SCC iter.                  ...        0 min,  0.008 sec
     gradient                   ...        0 min,  0.014 sec
 * total energy  :   -45.1714545 Eh     change       -0.5546678E-04 Eh
   gradient norm :     0.0080367 Eh/α   predicted    -0.5198374E-04 (  -6.28%)
   displ. norm   :     0.0815444 α      lambda       -0.8341914E-04
   maximum displ.:     0.0557272 α      in ANC's #6, #4, #3, ...

........................................................................
.............................. CYCLE   27 ..............................
........................................................................

 iter      E             dE          RMSdq      gap      omega  full diag
   1    -45.8358689 -0.458359E+02  0.210E-02    4.05       0.0  T
   2    -45.8358703 -0.139656E-05  0.123E-02    4.04       1.4  T
   3    -45.8358703  0.408577E-07  0.395E-03    4.05       4.4  T
   4    -45.8358703 -0.521476E-07  0.121E-03    4.04      14.4  T
   5    -45.8358704 -0.548547E-07  0.391E-04    4.04      44.5  T
   6    -45.8358704 -0.143329E-08  0.221E-04    4.04      78.8  T
     SCC iter.                  ...        0 min,  0.043 sec
     gradient                   ...        0 min,  0.013 sec
 * total energy  :   -45.1715169 Eh     change       -0.6236863E-04 Eh
   gradient norm :     0.0043058 Eh/α   predicted    -0.4198724E-04 ( -32.68%)
   displ. norm   :     0.1548977 α      lambda       -0.8978300E-04
   maximum displ.:     0.1030665 α      in ANC's #6, #4, #3, ...

........................................................................
.............................. CYCLE   28 ..............................
........................................................................

 iter      E             dE          RMSdq      gap      omega  full diag
   1    -45.8369603 -0.458370E+02  0.434E-02    4.05       0.0  T
   2    -45.8369610 -0.778663E-06  0.256E-02    4.05       1.0  T
   3    -45.8369608  0.201306E-06  0.388E-03    4.06       4.5  T
   4    -45.8369612 -0.375822E-06  0.132E-03    4.05      13.2  T
   5    -45.8369612 -0.237507E-07  0.736E-04    4.05      23.7  T
   6    -45.8369612 -0.166303E-08  0.344E-04    4.05      50.6  T
     SCC iter.                  ...        0 min,  0.007 sec
     gradient                   ...        0 min,  0.013 sec
 * total energy  :   -45.1715782 Eh     change       -0.6136115E-04 Eh
   gradient norm :     0.0035537 Eh/α   predicted    -0.4596968E-04 ( -25.08%)
   displ. norm   :     0.1284612 α      lambda       -0.5751008E-04
   maximum displ.:     0.0890214 α      in ANC's #6, #13, #3, ...

........................................................................
.............................. CYCLE   29 ..............................
........................................................................

 iter      E             dE          RMSdq      gap      omega  full diag
   1    -45.8375347 -0.458375E+02  0.355E-02    4.06       0.0  T
   2    -45.8375351 -0.363714E-06  0.209E-02    4.06       1.0  T
   3    -45.8375348  0.257965E-06  0.370E-03    4.06       4.7  T
   4    -45.8375353 -0.425088E-06  0.104E-03    4.06      16.8  T
   5    -45.8375353 -0.427102E-08  0.607E-04    4.06      28.7  T
   6    -45.8375353 -0.236225E-08  0.178E-04    4.06      97.8  T
     SCC iter.                  ...        0 min,  0.056 sec
     gradient                   ...        0 min,  0.013 sec
 * total energy  :   -45.1716230 Eh     change       -0.4475043E-04 Eh
   gradient norm :     0.0038828 Eh/α   predicted    -0.2922981E-04 ( -34.68%)
   displ. norm   :     0.2051967 α      lambda       -0.7931419E-04
   maximum displ.:     0.1355496 α      in ANC's #6, #13, #3, ...

........................................................................
.............................. CYCLE   30 ..............................
........................................................................

 iter      E             dE          RMSdq      gap      omega  full diag
   1    -45.8372151 -0.458372E+02  0.612E-02    4.05       0.0  T
   2    -45.8372161 -0.106476E-05  0.360E-02    4.06       1.0  T
   3    -45.8372151  0.107056E-05  0.682E-03    4.06       2.6  T
   4    -45.8372167 -0.166167E-05  0.188E-03    4.06       9.2  T
   5    -45.8372167 -0.533898E-08  0.978E-04    4.06      17.8  T
   6    -45.8372167 -0.734289E-08  0.232E-04    4.06      75.0  T
     SCC iter.                  ...        0 min,  0.007 sec
     gradient                   ...        0 min,  0.014 sec
 * total energy  :   -45.1716769 Eh     change       -0.5397461E-04 Eh
   gradient norm :     0.0050893 Eh/α   predicted    -0.4133434E-04 ( -23.42%)
   displ. norm   :     0.1471813 α      lambda       -0.8835712E-04
   maximum displ.:     0.0801759 α      in ANC's #6, #12, #3, ...

........................................................................
.............................. CYCLE   31 ..............................
........................................................................

 iter      E             dE          RMSdq      gap      omega  full diag
   1    -45.8385270 -0.458385E+02  0.419E-02    4.09       0.0  T
   2    -45.8385328 -0.584024E-05  0.250E-02    4.09       1.0  T
   3    -45.8385327  0.601992E-07  0.110E-02    4.09       1.6  T
   4    -45.8385336 -0.899173E-06  0.192E-03    4.09       9.1  T
   5    -45.8385337 -0.778253E-07  0.895E-04    4.09      19.4  T
   6    -45.8385337 -0.112779E-07  0.521E-04    4.09      33.4  T
     SCC iter.                  ...        0 min,  0.007 sec
     gradient                   ...        0 min,  0.058 sec
 * total energy  :   -45.1716975 Eh     change       -0.2058687E-04 Eh
   gradient norm :     0.0039453 Eh/α   predicted    -0.4514218E-04 ( 119.28%)
   displ. norm   :     0.1767732 α      lambda       -0.8218053E-04
   maximum displ.:     0.0970800 α      in ANC's #6, #3, #13, ...

........................................................................
.............................. CYCLE   32 ..............................
........................................................................

 iter      E             dE          RMSdq      gap      omega  full diag
   1    -45.8366434 -0.458366E+02  0.567E-02    4.05       0.0  T
   2    -45.8366491 -0.567058E-05  0.339E-02    4.06       1.0  T
   3    -45.8366483  0.793803E-06  0.125E-02    4.06       1.4  T
   4    -45.8366504 -0.210260E-05  0.193E-03    4.06       9.0  T
   5    -45.8366504 -0.191182E-07  0.121E-03    4.06      14.3  T
   6    -45.8366505 -0.108678E-07  0.628E-04    4.06      27.7  T
   7    -45.8366505 -0.419762E-08  0.100E-04    4.06     174.1  T
     SCC iter.                  ...        0 min,  0.008 sec
     gradient                   ...        0 min,  0.013 sec
 * total energy  :   -45.1717343 Eh     change       -0.3680849E-04 Eh
   gradient norm :     0.0052699 Eh/α   predicted    -0.4237614E-04 (  15.13%)
   displ. norm   :     0.0806235 α      lambda       -0.3960219E-04
   maximum displ.:     0.0568837 α      in ANC's #6, #13, #12, ...

........................................................................
.............................. CYCLE   33 ..............................
........................................................................

 iter      E             dE          RMSdq      gap      omega  full diag
   1    -45.8372219 -0.458372E+02  0.215E-02    4.07       0.0  T
   2    -45.8372224 -0.532879E-06  0.127E-02    4.07       1.4  T
   3    -45.8372223  0.175824E-06  0.414E-03    4.07       4.2  T
   4    -45.8372226 -0.302447E-06  0.660E-04    4.07      26.4  T
   5    -45.8372226 -0.370988E-08  0.409E-04    4.07      42.5  T
     SCC iter.                  ...        0 min,  0.005 sec
     gradient                   ...        0 min,  0.058 sec
 * total energy  :   -45.1717602 Eh     change       -0.2588635E-04 Eh
   gradient norm :     0.0025109 Eh/α   predicted    -0.1993077E-04 ( -23.01%)
   displ. norm   :     0.0799147 α      lambda       -0.3506030E-04
   maximum displ.:     0.0422205 α      in ANC's #3, #7, #1, ...

........................................................................
.............................. CYCLE   34 ..............................
........................................................................

 iter      E             dE          RMSdq      gap      omega  full diag
   1    -45.8373244 -0.458373E+02  0.223E-02    4.07       0.0  T
   2    -45.8373249 -0.478025E-06  0.130E-02    4.07       1.3  T
   3    -45.8373249  0.746409E-07  0.289E-03    4.07       6.0  T
   4    -45.8373250 -0.143846E-06  0.878E-04    4.07      19.8  T
   5    -45.8373250 -0.156803E-07  0.425E-04    4.07      41.0  T
     SCC iter.                  ...        0 min,  0.006 sec
     gradient                   ...        0 min,  0.014 sec
 * total energy  :   -45.1717865 Eh     change       -0.2626865E-04 Eh
   gradient norm :     0.0023095 Eh/α   predicted    -0.1764384E-04 ( -32.83%)
   displ. norm   :     0.1553032 α      lambda       -0.3915781E-04
   maximum displ.:     0.0849564 α      in ANC's #3, #1, #7, ...

........................................................................
.............................. CYCLE   35 ..............................
........................................................................

 iter      E             dE          RMSdq      gap      omega  full diag
   1    -45.8372504 -0.458373E+02  0.430E-02    4.07       0.0  T
   2    -45.8372509 -0.438382E-06  0.253E-02    4.07       1.0  T
   3    -45.8372508  0.264218E-07  0.305E-03    4.07       5.7  T
   4    -45.8372511 -0.279158E-06  0.139E-03    4.08      12.5  T
   5    -45.8372511 -0.909857E-08  0.555E-04    4.07      31.4  T
   6    -45.8372511 -0.102058E-08  0.116E-04    4.07     150.2  T
     SCC iter.                  ...        0 min,  0.007 sec
     gradient                   ...        0 min,  0.014 sec
 * total energy  :   -45.1718144 Eh     change       -0.2791688E-04 Eh
   gradient norm :     0.0023527 Eh/α   predicted    -0.2005206E-04 ( -28.17%)
   displ. norm   :     0.1464785 α      lambda       -0.2780211E-04
   maximum displ.:     0.0768434 α      in ANC's #3, #1, #13, ...

........................................................................
.............................. CYCLE   36 ..............................
........................................................................

 iter      E             dE          RMSdq      gap      omega  full diag
   1    -45.8372032 -0.458372E+02  0.417E-02    4.07       0.0  T
   2    -45.8372036 -0.423399E-06  0.246E-02    4.08       1.0  T
   3    -45.8372034  0.218407E-06  0.369E-03    4.08       4.7  T
   4    -45.8372039 -0.469418E-06  0.132E-03    4.08      13.2  T
   5    -45.8372039 -0.462008E-08  0.579E-04    4.08      30.1  T
   6    -45.8372039 -0.216303E-08  0.138E-04    4.08     125.8  T
     SCC iter.                  ...        0 min,  0.042 sec
     gradient                   ...        0 min,  0.013 sec
 * total energy  :   -45.1718330 Eh     change       -0.1863236E-04 Eh
   gradient norm :     0.0027064 Eh/α   predicted    -0.1420303E-04 ( -23.77%)
   displ. norm   :     0.0945589 α      lambda       -0.2055776E-04
   maximum displ.:     0.0524109 α      in ANC's #1, #3, #4, ...

........................................................................
.............................. CYCLE   37 ..............................
........................................................................

 iter      E             dE          RMSdq      gap      omega  full diag
   1    -45.8376884 -0.458377E+02  0.237E-02    4.09       0.0  T
   2    -45.8376889 -0.504485E-06  0.139E-02    4.09       1.2  T
   3    -45.8376889  0.632332E-07  0.294E-03    4.09       5.9  T
   4    -45.8376890 -0.155118E-06  0.775E-04    4.09      22.5  T
   5    -45.8376890 -0.448117E-08  0.461E-04    4.09      37.8  T
     SCC iter.                  ...        0 min,  0.006 sec
     gradient                   ...        0 min,  0.014 sec
 * total energy  :   -45.1718457 Eh     change       -0.1264286E-04 Eh
   gradient norm :     0.0010076 Eh/α   predicted    -0.1037278E-04 ( -17.96%)
   displ. norm   :     0.1636694 α      lambda       -0.1321909E-04
   maximum displ.:     0.0775042 α      in ANC's #1, #3, #13, ...

........................................................................
.............................. CYCLE   38 ..............................
........................................................................

 iter      E             dE          RMSdq      gap      omega  full diag
   1    -45.8372975 -0.458373E+02  0.465E-02    4.08       0.0  T
   2    -45.8372985 -0.104251E-05  0.274E-02    4.08       1.0  T
   3    -45.8372981  0.418249E-06  0.550E-03    4.08       3.2  T
   4    -45.8372989 -0.777495E-06  0.153E-03    4.08      11.3  T
   5    -45.8372989 -0.150671E-07  0.914E-04    4.08      19.0  T
   6    -45.8372989 -0.604125E-08  0.339E-04    4.08      51.3  T
     SCC iter.                  ...        0 min,  0.007 sec
     gradient                   ...        0 min,  0.053 sec
 * total energy  :   -45.1718528 Eh     change       -0.7110259E-05 Eh
   gradient norm :     0.0028589 Eh/α   predicted    -0.6689125E-05 (  -5.92%)
   displ. norm   :     0.0444763 α      lambda       -0.1751036E-04
   maximum displ.:     0.0193172 α      in ANC's #6, #5, #3, ...

........................................................................
.............................. CYCLE   39 ..............................
........................................................................

 iter      E             dE          RMSdq      gap      omega  full diag
   1    -45.8379037 -0.458379E+02  0.112E-02    4.10       0.0  T
   2    -45.8379045 -0.856672E-06  0.684E-03    4.09       2.5  T
   3    -45.8379046 -0.844938E-07  0.357E-03    4.09       4.9  T
   4    -45.8379047 -0.332856E-07  0.588E-04    4.09      29.6  T
   5    -45.8379047 -0.423137E-08  0.254E-04    4.09      68.5  T
     SCC iter.                  ...        0 min,  0.005 sec
     gradient                   ...        0 min,  0.014 sec
 * total energy  :   -45.1718624 Eh     change       -0.9561771E-05 Eh
   gradient norm :     0.0014402 Eh/α   predicted    -0.8775624E-05 (  -8.22%)
   displ. norm   :     0.0574795 α      lambda       -0.9449014E-05
   maximum displ.:     0.0273392 α      in ANC's #1, #5, #2, ...

........................................................................
.............................. CYCLE   40 ..............................
........................................................................

 iter      E             dE          RMSdq      gap      omega  full diag
   1    -45.8379536 -0.458380E+02  0.135E-02    4.10       0.0  T
   2    -45.8379543 -0.694935E-06  0.783E-03    4.10       2.2  T
   3    -45.8379543 -0.898503E-09  0.294E-03    4.10       5.9  T
   4    -45.8379543 -0.179207E-07  0.665E-04    4.10      26.2  T
   5    -45.8379543 -0.890544E-08  0.185E-04    4.10      94.1  T
     SCC iter.                  ...        0 min,  0.006 sec
     gradient                   ...        0 min,  0.013 sec
 * total energy  :   -45.1718694 Eh     change       -0.7093868E-05 Eh
   gradient norm :     0.0023954 Eh/α   predicted    -0.4732273E-05 ( -33.29%)
   displ. norm   :     0.0443372 α      lambda       -0.7007730E-05
   maximum displ.:     0.0253761 α      in ANC's #1, #2, #13, ...

........................................................................
.............................. CYCLE   41 ..............................
........................................................................

 iter      E             dE          RMSdq      gap      omega  full diag
   1    -45.8377543 -0.458378E+02  0.118E-02    4.09       0.0  T
   2    -45.8377544 -0.170319E-06  0.691E-03    4.09       2.5  T
   3    -45.8377544  0.435201E-07  0.173E-03    4.09      10.0  T
   4    -45.8377545 -0.598485E-07  0.575E-04    4.09      30.3  T
   5    -45.8377545 -0.958808E-08  0.221E-04    4.09      78.8  T
     SCC iter.                  ...        0 min,  0.006 sec
     gradient                   ...        0 min,  0.046 sec
 * total energy  :   -45.1718751 Eh     change       -0.5602858E-05 Eh
   gradient norm :     0.0012511 Eh/α   predicted    -0.3512303E-05 ( -37.31%)
   displ. norm   :     0.1535362 α      lambda       -0.1077249E-04
   maximum displ.:     0.0919413 α      in ANC's #1, #2, #13, ...

........................................................................
.............................. CYCLE   42 ..............................
........................................................................

 iter      E             dE          RMSdq      gap      omega  full diag
   1    -45.8372349 -0.458372E+02  0.382E-02    4.08       0.0  T
   2    -45.8372357 -0.765530E-06  0.225E-02    4.09       1.0  T
   3    -45.8372352  0.444370E-06  0.463E-03    4.09       3.8  T
   4    -45.8372359 -0.662170E-06  0.128E-03    4.09      13.6  T
   5    -45.8372359 -0.202351E-07  0.702E-04    4.09      24.8  T
   6    -45.8372359 -0.117185E-08  0.303E-04    4.09      57.5  T
     SCC iter.                  ...        0 min,  0.007 sec
     gradient                   ...        0 min,  0.013 sec
 * total energy  :   -45.1718820 Eh     change       -0.6989747E-05 Eh
   gradient norm :     0.0022653 Eh/α   predicted    -0.5446810E-05 ( -22.07%)
   displ. norm   :     0.0207968 α      lambda       -0.4832492E-05
   maximum displ.:     0.0130154 α      in ANC's #3, #4, #11, ...
 * RMSD in coord.:     0.3576781 α      energy gain  -0.9539148E-03 Eh

generating ANC from exact Hessian ...
Using Lindh-Hessian (1995)
 Shifting diagonal of input Hessian by    9.6324099316478264E-003
 Lowest  eigenvalues of input Hessian
    0.000000    0.000000    0.000000    0.000000    0.000000    0.000000
    0.010000    0.010426    0.010892    0.011882    0.012255    0.013976
    0.015535    0.017511    0.018454    0.018621    0.019355    0.019871
 Highest eigenvalues
    1.615858    1.767437    1.897625    1.976867    2.028536    2.365748


........................................................................
.............................. CYCLE   43 ..............................
........................................................................

 iter      E             dE          RMSdq      gap      omega  full diag
   1    -45.8375664 -0.458376E+02  0.598E-03    4.09       0.0  T
   2    -45.8375664 -0.791871E-07  0.357E-03    4.09       4.9  T
   3    -45.8375664  0.535451E-08  0.151E-03    4.09      11.5  T
   4    -45.8375665 -0.230223E-07  0.166E-04    4.09     104.9  T
   5    -45.8375665 -0.131500E-09  0.105E-04    4.09     165.5  T
     SCC iter.                  ...        0 min,  0.006 sec
     gradient                   ...        0 min,  0.058 sec
 * total energy  :   -45.1718857 Eh     change       -0.3701357E-05 Eh
   gradient norm :     0.0013113 Eh/α   predicted     0.0000000E+00 (-100.00%)
   displ. norm   :     0.0116155 α      lambda       -0.1445701E-05
   maximum displ.:     0.0040577 α      in ANC's #4, #11, #8, ...

........................................................................
.............................. CYCLE   44 ..............................
........................................................................

 iter      E             dE          RMSdq      gap      omega  full diag
   1    -45.8378118 -0.458378E+02  0.382E-03    4.10       0.0  T
   2    -45.8378119 -0.113294E-06  0.222E-03    4.10       7.8  T
   3    -45.8378119 -0.182652E-08  0.111E-03    4.10      15.7  T
   4    -45.8378119 -0.180651E-08  0.298E-04    4.10      58.4  T
   5    -45.8378119 -0.228690E-08  0.928E-05    4.10     187.7  T
     SCC iter.                  ...        0 min,  0.006 sec
     gradient                   ...        0 min,  0.014 sec
 * total energy  :   -45.1718878 Eh     change       -0.2093391E-05 Eh
   gradient norm :     0.0004154 Eh/α   predicted    -0.1181046E-05 ( -43.58%)
   displ. norm   :     0.0156879 α      lambda       -0.1071564E-05
   maximum displ.:     0.0058295 α      in ANC's #3, #4, #1, ...

   *** GEOMETRY OPTIMIZATION CONVERGED AFTER 44 ITERATIONS ***

------------------------------------------------------------------------
 total energy gain   :        -0.0069488 Eh       -4.3604 kcal/mol
 total RMSD          :         0.7453841 a0        0.3944 Å
 total power (kW/mol):        -0.4146366 (step)   -9.6128 (real)
------------------------------------------------------------------------

 ANCopt (total)                0 d,  0 h,  0 min,  1.898 sec
 optimizer setup                ...        0 min,  0.000 sec (  0.004%)
 model hessian                  ...        0 min,  0.035 sec (  1.839%)
 ANC generation                 ...        0 min,  0.003 sec (  0.154%)
 coordinate transformation      ...        0 min,  0.000 sec (  0.012%)
 single point calculation       ...        0 min,  1.849 sec ( 97.432%)
 optimization log               ...        0 min,  0.006 sec (  0.312%)
 hessian update                 ...        0 min,  0.000 sec (  0.021%)
 rational function              ...        0 min,  0.003 sec (  0.160%)

================
 final structure:
================
33
 xtb: 6.7.1 (edcfbbe)
C           -3.01963198480542        1.15565231681226       -0.43665804778061
C           -3.12251235755847       -0.36529539343030       -0.37420331325031
C           -2.24600349359962       -0.92566383696187        0.75948431710034
C           -0.78700598698078       -0.67440204306551        0.51452911972525
C           -0.10668409751323        0.33891172430437        1.17774277502584
C            1.23150030174853        0.57956228099749        0.92675132715670
C            1.92457686634821       -0.19072144917258        0.00197853906376
C            3.39553868258940        0.05742263974487       -0.26065558453576
C            3.52610169798140        1.49895023873478       -0.70213874565754
O            3.44245068333302        1.61467249688854       -2.03444567293761
O            3.65324008390521        2.44985688695289        0.02033962202200
C            4.23853311515110       -0.20894534924679        0.98662903346518
C            1.24761644917614       -1.19947527469042       -0.66928711915434
C           -0.08952858806996       -1.43878621514609       -0.41273229177743
C           -4.57416811924075       -0.79349568912208       -0.17568919967414
H           -3.38061803290754        1.59824053734664        0.48971899781910
H           -1.98777402623589        1.46427663372263       -0.58789380089425
H           -3.61896119502998        1.54385796046041       -1.25727367792941
H           -2.76098212071584       -0.77729453541722       -1.32298678616934
H           -2.41879011155342       -2.00211331186997        0.83426818671955
H           -2.54985362684442       -0.46634140348700        1.70217910874178
H           -0.62998592510468        0.94788757157437        1.90094452783856
H            1.74011142585542        1.37921562710154        1.44414343291424
H            3.72104082882858       -0.57979739867222       -1.08707356397249
H            3.48055954336183        2.54825493907200       -2.29678463476294
H            4.00592547637268        0.52112021114531        1.75674182620157
H            4.03136097145894       -1.20533120093648        1.36893801937797
H            5.29754136580504       -0.13386536436911        0.75043717357723
H            1.77083521107002       -1.80601006109094       -1.39480792217768
H           -0.59938657156477       -2.23378585074742       -0.93835754311532
H           -4.95922452247062       -0.40384064260917        0.76453362265688
H           -4.65909460613171       -1.87796557914084       -0.15785376406156
H           -5.19662733666072       -0.41485146568118       -0.98331796155779

 Bond Distances (Angstroems)
 ---------------------------
C1-C2=1.5257         C1-H16=1.0883        C1-H17=1.0876        C1-H18=1.0878        C2-C1=1.5257         C2-C3=1.5387         
C2-C15=1.5265        C2-H19=1.0957        C3-C2=1.5387         C3-C4=1.5006         C3-H20=1.0928        C3-H21=1.0918        
C4-C3=1.5006         C4-C5=1.3891         C4-C14=1.3895        C5-C4=1.3891         C5-C6=1.3826         C5-H22=1.0806        
C6-C5=1.3826         C6-C7=1.3888         C6-H23=1.0797        C7-C6=1.3888         C7-C8=1.5147         C7-C13=1.3880        
C8-C7=1.5147         C8-C9=1.5133         C8-C12=1.5288        C8-H24=1.0931        C9-C8=1.5133         C9-O10=1.3399        
C9-O11=1.2010        O10-C9=1.3399        O10-H25=0.9705       O11-C9=1.2010        C12-C8=1.5288        C12-H26=1.0864       
C12-H27=1.0871       C12-H28=1.0876       C13-C7=1.3880        C13-C14=1.3824       C13-H29=1.0808       C14-C4=1.3895        
C14-C13=1.3824       C14-H30=1.0809       C15-C2=1.5265        C15-H31=1.0882       C15-H32=1.0879       C15-H33=1.0877       
H16-C1=1.0883        H17-C1=1.0876        H18-C1=1.0878        H19-C2=1.0957        H20-C3=1.0928        H21-C3=1.0918        
H22-C5=1.0806        H23-C6=1.0797        H24-C8=1.0931        H25-O10=0.9705       H26-C12=1.0864       H27-C12=1.0871       
H28-C12=1.0876       H29-C13=1.0808       H30-C14=1.0809       H31-C15=1.0882       H32-C15=1.0879       H33-C15=1.0877       
 C  H  Rav=1.0873 sigma=0.0045  Rmin=1.0797  Rmax=1.0957    17
 C  C  Rav=1.4591 sigma=0.0676  Rmin=1.3824  Rmax=1.5387    13
 O  H  Rav=0.9705 sigma=0.0000  Rmin=0.9705  Rmax=0.9705     1
 O  C  Rav=1.2705 sigma=0.0695  Rmin=1.2010  Rmax=1.3399     2

 selected bond angles (degree)
 --------------------
H16-C1-C2=110.38               H17-C1-C2=110.64               H17-C1-H16=108.52              H18-C1-C2=110.46               
H18-C1-H16=108.32              H18-C1-H17=108.45              C3-C2-C1=110.78                C15-C2-C1=110.43               
C15-C2-C3=110.11               H19-C2-C1=108.49               H19-C2-C3=108.25               H19-C2-C15=108.72              
C4-C3-C2=111.88                H20-C3-C2=108.61               H20-C3-C4=109.26               H21-C3-C2=108.93               
H21-C3-C4=109.94               H21-C3-H20=108.14              C5-C4-C3=121.36                C14-C4-C3=120.32               
C14-C4-C5=118.30               C6-C5-C4=120.95                H22-C5-C4=119.57               H22-C5-C6=119.48               
C7-C6-C5=120.49                H23-C6-C5=119.86               H23-C6-C7=119.65               C8-C7-C6=120.61                
C13-C7-C6=118.80               C13-C7-C8=120.59               C9-C8-C7=106.88                C12-C8-C7=111.44               
C12-C8-C9=110.88               H24-C8-C7=108.95               H24-C8-C9=108.00               H24-C8-C12=110.55              
O10-C9-C8=111.53               O11-C9-C8=126.01               O11-C9-O10=122.44              H25-O10-C9=110.45              

 selected dihedral angles (degree)
 ---------------------------------
C3-C2-C1-H16=298.16           C3-C2-C1-H17= 58.30           C3-C2-C1-H18=178.40           C15-C2-C1-H16= 60.42          
C15-C2-C1-H17=180.56          C15-C2-C1-H18=300.66          H19-C2-C1-H16=179.48          H19-C2-C1-H17=299.61          
H19-C2-C1-H18= 59.72          C4-C3-C2-C1=295.34            C4-C3-C2-C15=172.89           C4-C3-C2-H19= 54.18           
H20-C3-C2-C1=174.66           H20-C3-C2-C15= 52.22          H20-C3-C2-H19=293.50          H21-C3-C2-C1= 57.10           
H21-C3-C2-C15=294.65          H21-C3-C2-H19=175.93          C5-C4-C3-C2=102.48            C5-C4-C3-H20=222.78           
C5-C4-C3-H21=341.31           C14-C4-C3-C2=283.98           C14-C4-C3-H20= 44.28          C14-C4-C3-H21=162.81          
C6-C5-C4-C3=181.25            C6-C5-C4-C14=359.77           H22-C5-C4-C3=  1.29           H22-C5-C4-C14=179.82          
C7-C6-C5-C4=  0.00            C7-C6-C5-H22=179.97           H23-C6-C5-C4=179.30           H23-C6-C5-H22=359.26          
C8-C7-C6-C5=180.88            C8-C7-C6-H23=  1.60           C13-C7-C6-C5=  0.36           C13-C7-C6-H23=181.07          
C9-C8-C7-C6=302.21            C9-C8-C7-C13=122.74           C12-C8-C7-C6= 63.49           C12-C8-C7-C13=244.03          
H24-C8-C7-C6=185.74           H24-C8-C7-C13=  6.27          O10-C9-C8-C7=268.75           O10-C9-C8-C12=147.12          
O10-C9-C8-H24= 25.85          O11-C9-C8-C7= 86.85           O11-C9-C8-C12=325.21          O11-C9-C8-H24=203.95          
H25-O10-C9-C8=176.99          H25-O10-C9-O11=358.82         
           -------------------------------------------------
          |                Final Singlepoint                |
           -------------------------------------------------

          ...................................................
          :                      SETUP                      :
          :.................................................:
          :  # basis functions                  78          :
          :  # atomic orbitals                  78          :
          :  # shells                           48          :
          :  # electrons                        82          :
          :  max. iterations                   250          :
          :  Hamiltonian                  GFN2-xTB          :
          :  restarted?                      false          :
          :  GBSA solvation                  false          :
          :  PC potential                    false          :
          :  electronic temp.          300.0000000     K    :
          :  accuracy                    1.0000000          :
          :  -> integral cutoff          0.2500000E+02      :
          :  -> integral neglect         0.1000000E-07      :
          :  -> SCF convergence          0.1000000E-05 Eh   :
          :  -> wf. convergence          0.1000000E-03 e    :
          :  Broyden damping             0.4000000          :
          :  net charge                          0          :
          :  unpaired electrons                  0          :
          ...................................................

 iter      E             dE          RMSdq      gap      omega  full diag
   1    -45.8378119 -0.458378E+02  0.482E-05    4.10       0.0  T
   2    -45.8378119 -0.621725E-11  0.268E-05    4.10     648.5  T
   3    -45.8378119  0.675016E-12  0.186E-05    4.10     935.4  T

   *** convergence criteria satisfied after 3 iterations ***

         #    Occupation            Energy/Eh            Energy/eV
      -------------------------------------------------------------
         1        2.0000           -0.7445550             -20.2604
       ...           ...                  ...                  ...
        35        2.0000           -0.4375140             -11.9054
        36        2.0000           -0.4272951             -11.6273
        37        2.0000           -0.4246086             -11.5542
        38        2.0000           -0.4185325             -11.3888
        39        2.0000           -0.4106462             -11.1743
        40        2.0000           -0.4020974             -10.9416
        41        2.0000           -0.3879215             -10.5559 (HOMO)
        42                         -0.2373249              -6.4579 (LUMO)
        43                         -0.2206910              -6.0053
        44                         -0.2149372              -5.8487
        45                         -0.0942038              -2.5634
        46                          0.0483079               1.3145
       ...                                ...                  ...
        78                          0.6591721              17.9370
      -------------------------------------------------------------
                  HL-Gap            0.1505965 Eh            4.0979 eV
             Fermi-level           -0.3126232 Eh           -8.5069 eV

 SCC (total)                   0 d,  0 h,  0 min,  0.065 sec
 SCC setup                      ...        0 min,  0.000 sec (  0.287%)
 Dispersion                     ...        0 min,  0.000 sec (  0.278%)
 classical contributions        ...        0 min,  0.000 sec (  0.131%)
 integral evaluation            ...        0 min,  0.004 sec (  6.534%)
 iterations                     ...        0 min,  0.003 sec (  5.205%)
 molecular gradient             ...        0 min,  0.056 sec ( 87.419%)
 printout                       ...        0 min,  0.000 sec (  0.137%)

         :::::::::::::::::::::::::::::::::::::::::::::::::::::
         ::                     SUMMARY                     ::
         :::::::::::::::::::::::::::::::::::::::::::::::::::::
         :: total energy             -45.171887836710 Eh    ::
         :: gradient norm              0.000415117844 Eh/a0 ::
         :: HOMO-LUMO gap              4.097940498408 eV    ::
         ::.................................................::
         :: SCC energy               -45.837643096387 Eh    ::
         :: -> isotropic ES            0.052068538072 Eh    ::
         :: -> anisotropic ES          0.006484560291 Eh    ::
         :: -> anisotropic XC          0.018463033049 Eh    ::
         :: -> dispersion             -0.029437871423 Eh    ::
         :: repulsion energy           0.665755259678 Eh    ::
         :: add. restraining           0.000000000000 Eh    ::
         :: total charge              -0.000000000000 e     ::
         :::::::::::::::::::::::::::::::::::::::::::::::::::::

           -------------------------------------------------
          |                Property Printout                |
           -------------------------------------------------

    * Orbital Energies and Occupations

         #    Occupation            Energy/Eh            Energy/eV
      -------------------------------------------------------------
         1        2.0000           -0.7445550             -20.2604
       ...           ...                  ...                  ...
        29        2.0000           -0.4665004             -12.6941
        30        2.0000           -0.4632559             -12.6058
        31        2.0000           -0.4616149             -12.5612
        32        2.0000           -0.4522532             -12.3064
        33        2.0000           -0.4483399             -12.1999
        34        2.0000           -0.4401055             -11.9759
        35        2.0000           -0.4375140             -11.9054
        36        2.0000           -0.4272951             -11.6273
        37        2.0000           -0.4246086             -11.5542
        38        2.0000           -0.4185325             -11.3888
        39        2.0000           -0.4106462             -11.1743
        40        2.0000           -0.4020974             -10.9416
        41        2.0000           -0.3879215             -10.5559 (HOMO)
        42                         -0.2373249              -6.4579 (LUMO)
        43                         -0.2206910              -6.0053
        44                         -0.2149372              -5.8487
        45                         -0.0942038              -2.5634
        46                          0.0483079               1.3145
        47                          0.0813072               2.2125
        48                          0.0887907               2.4161
        49                          0.0974513               2.6518
        50                          0.1075716               2.9272
        51                          0.1230856               3.3493
        52                          0.1361746               3.7055
       ...                                ...                  ...
        78                          0.6591721              17.9370
      -------------------------------------------------------------
                  HL-Gap            0.1505965 Eh            4.0979 eV
             Fermi-level           -0.3126232 Eh           -8.5069 eV

     #   Z          covCN         q      C6AA      α(0)
     1   6 C        3.756    -0.106    22.573     6.774
     2   6 C        3.851    -0.006    20.643     6.462
     3   6 C        3.811    -0.069    21.802     6.646
     4   6 C        2.969     0.014    27.706     8.634
     5   6 C        2.924    -0.038    28.942     8.822
     6   6 C        2.922    -0.039    28.964     8.826
     7   6 C        2.981     0.009    27.805     8.650
     8   6 C        3.858    -0.042    21.294     6.563
     9   6 C        2.700     0.363    20.842     7.472
    10   8 O        1.660    -0.381    20.490     6.111
    11   8 O        0.856    -0.409    21.867     6.270
    12   6 C        3.756    -0.103    22.528     6.767
    13   6 C        2.922    -0.038    28.954     8.824
    14   6 C        2.925    -0.039    28.967     8.826
    15   6 C        3.756    -0.106    22.586     6.776
    16   1 H        0.925     0.036     2.506     2.475
    17   1 H        0.925     0.035     2.516     2.481
    18   1 H        0.925     0.033     2.538     2.491
[...]
   the terms of the GNU Lesser General Public License as published by
   the Free Software Foundation, either version 3 of the License, or
   (at your option) any later version.
   
   xtb is distributed in the hope that it will be useful,
   but WITHOUT ANY WARRANTY; without even the implied warranty of
   MERCHANTABILITY or FITNESS FOR A PARTICULAR PURPOSE.  See the
   GNU Lesser General Public License for more details.
   
   Cite this work as:
   * C. Bannwarth, E. Caldeweyher, S. Ehlert, A. Hansen, P. Pracht,
     J. Seibert, S. Spicher, S. Grimme, WIREs Comput. Mol. Sci., 2020, 11,
     e01493. DOI: 10.1002/wcms.1493
   
   for GFN2-xTB:
   * C. Bannwarth, S. Ehlert and S. Grimme., J. Chem. Theory Comput., 2019,
     15, 1652-1671. DOI: 10.1021/acs.jctc.8b01176
   for GFN1-xTB:
   * S. Grimme, C. Bannwarth, P. Shushkov, J. Chem. Theory Comput., 2017,
     13, 1989-2009. DOI: 10.1021/acs.jctc.7b00118
   for GFN0-xTB:
   * P. Pracht, E. Caldeweyher, S. Ehlert, S. Grimme, ChemRxiv, 2019, preprint.
     DOI: 10.26434/chemrxiv.8326202.v1
   for GFN-FF:
   * S. Spicher and S. Grimme, Angew. Chem. Int. Ed., 2020, 59, 15665-15673.
     DOI: 10.1002/anie.202004239
   
   for ALPB and GBSA implicit solvation:
   * S. Ehlert, M. Stahn, S. Spicher, S. Grimme, J. Chem. Theory Comput.,
     2021, 17, 4250-4261. DOI: 10.1021/acs.jctc.1c00471
   
   for ddCOSMO and CPCM-X implicit solvation:
   * M. Stahn, S. Ehlert, S. Grimme, J. Phys. Chem. A,
     2023, XX, XXXX-XXXX. DOI: 10.1021/acs.jpca.3c04382
   
   for DFT-D4:
   * E. Caldeweyher, C. Bannwarth and S. Grimme, J. Chem. Phys., 2017,
     147, 034112. DOI: 10.1063/1.4993215
   * E. Caldeweyher, S. Ehlert, A. Hansen, H. Neugebauer, S. Spicher,
     C. Bannwarth and S. Grimme, J. Chem. Phys., 2019, 150, 154122.
     DOI: 10.1063/1.5090222
   * E. Caldeweyher, J.-M. Mewes, S. Ehlert and S. Grimme, Phys. Chem. Chem. Phys.
     2020, 22, 8499-8512. DOI: 10.1039/D0CP00502A
   
   for sTDA-xTB:
   * S. Grimme and C. Bannwarth, J. Chem. Phys., 2016, 145, 054103.
     DOI: 10.1063/1.4959605
   
   in the mass-spec context:
   * V. Asgeirsson, C. Bauer and S. Grimme, Chem. Sci., 2017, 8, 4879.
     DOI: 10.1039/c7sc00601b
   * J. Koopman and S. Grimme, ACS Omega 2019, 4, 12, 15120-15133.
     DOI: 10.1021/acsomega.9b02011
   
   for metadynamics refer to:
   * S. Grimme, J. Chem. Theory Comput., 2019, 155, 2847-2862
     DOI: 10.1021/acs.jctc.9b00143
   
   for SPH calculations refer to:
   * S. Spicher and S. Grimme, J. Chem. Theory Comput., 2021, 17, 1701-1714
     DOI: 10.1021/acs.jctc.0c01306
   
   for ONIOM refer to:
   * C. Plett, A. Katbashev, S. Ehlert, S. Grimme, M. Bursch,
     Phys. Chem. Chem. Phys., 2023, 25, 17860-17868. DOI: 10.1039/D3CP02178E
   
   for DIPRO refer to:
   * J. Kohn, N. Gildemeister, S. Grimme, D. Fazzi, A. Hansen,
     J. Chem. Phys., 2023, just accepted.
   
   for PTB refer to:
   * S. Grimme, M. Mueller, A. Hansen, J. Chem. Phys., 2023, 158, 124111.
     DOI: 10.1063/5.0137838
   
   with help from (in alphabetical order)
   P. Atkinson, C. Bannwarth, F. Bohle, G. Brandenburg, E. Caldeweyher
   M. Checinski, S. Dohm, S. Ehlert, S. Ehrlich, I. Gerasimov, C. Hölzer
   A. Katbashev, J. Kohn, J. Koopman, C. Lavigne, S. Lehtola, F. März, M. Müller,
   F. Musil, H. Neugebauer, J. Pisarek, C. Plett, P. Pracht, F. Pultar,
   J. Seibert, P. Shushkov, S. Spicher, M. Stahn, M. Steiner, T. Strunk,
   J. Stückrath, T. Rose, and J. Unsleber
   
 * started run on 2025/05/15 at 16:31:21.537     
   ID    Z sym.   atoms
    1    6 C      1-9, 12-15
    2    8 O      10, 11
    3    1 H      16-33

           -------------------------------------------------
          |                Calculation Setup                |
           -------------------------------------------------

          program call               : xtb /rds/general/user/hgt20/home/callum/QDESCP/Ibuprofen_rdkit_conf_5/Ibuprofen_rdkit_conf_5.xyz --acc 1 --gfn 2 --chrg 0 --uhf 2 --etemp 300 --input /rds/general/user/hgt20/home/callum/QDESCP/Ibuprofen_rdkit_conf_5/Ibuprofen_rdkit_conf_5_xtb.inp -P 1
          hostname                   : login-c
          coordinate file            : /rds/general/user/hgt20/home/callum/QDESCP/Ibuprofen_rdkit_conf_5/Ibuprofen_rdkit_conf_5.xyz
          omp threads                :                     1


           -------------------------------------------------
          |                 G F N 2 - x T B                 |
           -------------------------------------------------

        Reference                      10.1021/acs.jctc.8b01176
      * Hamiltonian:
        H0-scaling (s, p, d)           1.850000    2.230000    2.230000
        zeta-weighting                 0.500000
      * Dispersion:
        s8                             2.700000
        a1                             0.520000
        a2                             5.000000
        s9                             5.000000
      * Repulsion:
        kExp                           1.500000    1.000000
        rExp                           1.000000
      * Coulomb:
        alpha                          2.000000
        third order                    shell-resolved
        anisotropic                    true
        a3                             3.000000
        a5                             4.000000
        cn-shift                       1.200000
        cn-exp                         4.000000
        max-rad                        5.000000


          ...................................................
          :                      SETUP                      :
          :.................................................:
          :  # basis functions                  78          :
          :  # atomic orbitals                  78          :
          :  # shells                           48          :
          :  # electrons                        82          :
          :  max. iterations                   250          :
          :  Hamiltonian                  GFN2-xTB          :
          :  restarted?                      false          :
          :  GBSA solvation                  false          :
          :  PC potential                    false          :
          :  electronic temp.          300.0000000     K    :
          :  accuracy                    1.0000000          :
          :  -> integral cutoff          0.2500000E+02      :
          :  -> integral neglect         0.1000000E-07      :
          :  -> SCF convergence          0.1000000E-05 Eh   :
          :  -> wf. convergence          0.1000000E-03 e    :
          :  Broyden damping             0.4000000          :
          :  net charge                          0          :
          :  unpaired electrons                  2          :
          ...................................................

 iter      E             dE          RMSdq      gap      omega  full diag
   1    -45.5843613 -0.455844E+02  0.342E+00    0.02       0.0  T
   2    -45.4430316  0.141330E+00  0.314E+00    0.60       1.0  T
   3    -45.3790953  0.639362E-01  0.224E+00    0.24       1.0  T
   4    -45.4932150 -0.114120E+00  0.223E+00    0.90       1.0  T
   5    -45.6408574 -0.147642E+00  0.150E+00    0.45       1.0  T
   6    -45.6416638 -0.806417E-03  0.954E-01    0.36       1.0  T
   7    -45.6712687 -0.296049E-01  0.744E-01    0.24       1.0  T
   8    -45.6732836 -0.201498E-02  0.567E-01    0.19       1.0  T
   9    -45.6781109 -0.482723E-02  0.343E-01    0.20       1.0  T
  10    -45.6783850 -0.274083E-03  0.139E-01    0.16       1.0  T
  11    -45.6786453 -0.260299E-03  0.961E-02    0.15       1.0  T
  12    -45.6790325 -0.387263E-03  0.354E-02    0.16       1.0  T
  13    -45.6790547 -0.221571E-04  0.110E-02    0.16       1.6  T
  14    -45.6790554 -0.740354E-06  0.595E-03    0.16       2.9  T
  15    -45.6790565 -0.111381E-05  0.280E-03    0.16       6.2  T
  16    -45.6790567 -0.174039E-06  0.145E-03    0.16      12.0  T
  17    -45.6790568 -0.801438E-07  0.367E-04    0.16      47.4  T
  18    -45.6790568 -0.244924E-08  0.134E-04    0.16     129.7  T

   *** convergence criteria satisfied after 18 iterations ***

         #    Occupation            Energy/Eh            Energy/eV
      -------------------------------------------------------------
         1        2.0000           -0.7288273             -19.8324
       ...           ...                  ...                  ...
        36        2.0000           -0.4333015             -11.7907
        37        2.0000           -0.4251284             -11.5683
        38        2.0000           -0.4204606             -11.4413
        39        2.0000           -0.4069566             -11.0739
        40        1.9996           -0.4038361             -10.9889
        41        1.0004           -0.3890560             -10.5868
        42        0.9526           -0.2282509              -6.2110 (HOMO)
        43        0.0474           -0.2225481              -6.0558 (LUMO)
        44                         -0.2075646              -5.6481
        45                         -0.0956799              -2.6036
        46                          0.0574443               1.5631
        47                          0.0752165               2.0467
       ...                                ...                  ...
        78                          0.6702726              18.2390
      -------------------------------------------------------------
                  HL-Gap            0.0057028 Eh            0.1552 eV
             Fermi-level           -0.3109140 Eh           -8.4604 eV

 transition dipole moment (au) for excitation:          41          42
     X       Y       Z   
  -1.4524  -0.4302   0.1464  total (au/Debye):    1.522   3.868
 dE (eV)             :    4.376
 oscillator strength :  0.35113E+00

 SCC (total)                   0 d,  0 h,  0 min,  0.052 sec
 SCC setup                      ...        0 min,  0.000 sec (  0.458%)
 Dispersion                     ...        0 min,  0.000 sec (  0.541%)
 classical contributions        ...        0 min,  0.000 sec (  0.178%)
 integral evaluation            ...        0 min,  0.004 sec (  8.492%)
 iterations                     ...        0 min,  0.021 sec ( 40.582%)
 molecular gradient             ...        0 min,  0.022 sec ( 41.949%)
 printout                       ...        0 min,  0.004 sec (  7.788%)

         :::::::::::::::::::::::::::::::::::::::::::::::::::::
         ::                     SUMMARY                     ::
         :::::::::::::::::::::::::::::::::::::::::::::::::::::
         :: total energy             -45.013132705436 Eh    ::
         :: gradient norm              0.153753417780 Eh/a0 ::
         :: HOMO-LUMO gap              0.155180567741 eV    ::
         ::.................................................::
         :: SCC energy               -45.678887965114 Eh    ::
         :: -> isotropic ES            0.052802033416 Eh    ::
         :: -> anisotropic ES          0.005201144394 Eh    ::
         :: -> anisotropic XC          0.017323716606 Eh    ::
         :: -> dispersion             -0.029360211741 Eh    ::
         :: repulsion energy           0.665755259678 Eh    ::
         :: add. restraining           0.000000000000 Eh    ::
         :: total charge              -0.000000000000 e     ::
         :::::::::::::::::::::::::::::::::::::::::::::::::::::

           -------------------------------------------------
          |                Property Printout                |
           -------------------------------------------------

    * Orbital Energies and Occupations

         #    Occupation            Energy/Eh            Energy/eV
      -------------------------------------------------------------
         1        2.0000           -0.7288273             -19.8324
       ...           ...                  ...                  ...
        30        2.0000           -0.4627700             -12.5926
        31        2.0000           -0.4610187             -12.5450
        32        2.0000           -0.4568092             -12.4304
        33        2.0000           -0.4487066             -12.2099
        34        2.0000           -0.4433802             -12.0650
        35        2.0000           -0.4431583             -12.0590
        36        2.0000           -0.4333015             -11.7907
        37        2.0000           -0.4251284             -11.5683
        38        2.0000           -0.4204606             -11.4413
        39        2.0000           -0.4069566             -11.0739
        40        1.9996           -0.4038361             -10.9889
        41        1.0004           -0.3890560             -10.5868
        42        0.9526           -0.2282509              -6.2110 (HOMO)
        43        0.0474           -0.2225481              -6.0558 (LUMO)
        44                         -0.2075646              -5.6481
        45                         -0.0956799              -2.6036
        46                          0.0574443               1.5631
        47                          0.0752165               2.0467
        48                          0.0878967               2.3918
        49                          0.0910077               2.4764
        50                          0.1003153               2.7297
        51                          0.1208553               3.2886
        52                          0.1327507               3.6123
        53                          0.1378353               3.7507
       ...                                ...                  ...
        78                          0.6702726              18.2390
      -------------------------------------------------------------
                  HL-Gap            0.0057028 Eh            0.1552 eV
             Fermi-level           -0.3109140 Eh           -8.4604 eV

     #   Z          covCN         q      C6AA      α(0)
     1   6 C        3.756    -0.106    22.579     6.775
     2   6 C        3.851    -0.001    20.572     6.451
     3   6 C        3.811    -0.065    21.744     6.637
     4   6 C        2.969     0.011    27.760     8.642
     5   6 C        2.924    -0.041    29.016     8.834
     6   6 C        2.922    -0.036    28.899     8.816
     7   6 C        2.981     0.012    27.740     8.640
     8   6 C        3.858    -0.030    21.061     6.527
     9   6 C        2.700     0.331    21.372     7.567
    10   8 O        1.660    -0.397    20.799     6.157
    11   8 O        0.856    -0.420    22.079     6.300
    12   6 C        3.756    -0.104    22.535     6.768
    13   6 C        2.922    -0.042    29.049     8.839
    14   6 C        2.925    -0.036    28.890     8.815
    15   6 C        3.756    -0.108    22.618     6.781
    16   1 H        0.925     0.039     2.464     2.455
    17   1 H        0.925     0.039     2.462     2.454
    18   1 H        0.925     0.038     2.480     2.463
    19   1 H        0.924     0.033     2.543     2.494
    20   1 H        0.924     0.050     2.325     2.385
    21   1 H        0.924     0.043     2.404     2.425
    22   1 H        0.926     0.032     2.553     2.499
    23   1 H        0.926     0.049     2.338     2.391
    24   1 H        0.924     0.059     2.212     2.326
    25   1 H        0.804     0.322     0.657     1.273
    26   1 H        0.925     0.061     2.188     2.313
    27   1 H        0.925     0.046     2.367     2.406
    28   1 H        0.925     0.046     2.368     2.406
    29   1 H        0.926     0.030     2.586     2.515
    30   1 H        0.926     0.031     2.573     2.508
    31   1 H        0.925     0.038     2.469     2.457
    32   1 H        0.925     0.035     2.517     2.481
    33   1 H        0.925     0.040     2.448     2.447

 Mol. C6AA /au·bohr⁶  :      10214.715353
 Mol. C8AA /au·bohr⁸  :     233872.489552
 Mol. α(0) /au        :        155.244597


Wiberg/Mayer (AO) data.
largest (>0.10) Wiberg bond orders for each atom

 ---------------------------------------------------------------------------
     #   Z sym  total        # sym  WBO       # sym  WBO       # sym  WBO
 ---------------------------------------------------------------------------
     1   6 C    3.994 --     2 C    1.008    16 H    0.986    17 H    0.984
                            18 H    0.984
     2   6 C    3.974 --    15 C    1.008     1 C    1.008    19 H    0.968
                             3 C    0.944
     3   6 C    3.986 --     4 C    1.047    21 H    0.972    20 H    0.950
                             2 C    0.944
     4   6 C    3.708 --    14 C    1.190     5 C    1.169     3 C    1.047
     5   6 C    3.950 --     6 C    1.605     4 C    1.169    22 H    0.968
     6   6 C    3.942 --     5 C    1.605     7 C    1.174    23 H    0.965
     7   6 C    3.792 --     6 C    1.174    13 C    1.157     8 C    1.028
                             9 C    0.118    11 O    0.108
     8   6 C    3.980 --     7 C    1.028    12 C    0.972    24 H    0.961
                             9 C    0.886
     9   6 C    3.876 --    11 O    1.631    10 O    1.076     8 C    0.886
                             7 C    0.118
    10   8 O    2.130 --     9 C    1.076    25 H    0.871    11 O    0.124
    11   8 O    1.982 --     9 C    1.631    10 O    0.124     7 C    0.108
    12   6 C    3.986 --    28 H    0.984    26 H    0.983    27 H    0.982
                             8 C    0.972
    13   6 C    3.939 --    14 C    1.598     7 C    1.157    29 H    0.968
    14   6 C    3.928 --    13 C    1.598     4 C    1.190    30 H    0.968
    15   6 C    3.993 --     2 C    1.008    31 H    0.986    32 H    0.986
                            33 H    0.982
    16   1 H    0.998 --     1 C    0.986
    17   1 H    0.998 --     1 C    0.984
    18   1 H    0.997 --     1 C    0.984
    19   1 H    0.999 --     2 C    0.968
    20   1 H    0.988 --     3 C    0.950
    21   1 H    0.997 --     3 C    0.972
    22   1 H    0.999 --     5 C    0.968
    23   1 H    0.997 --     6 C    0.965
    24   1 H    0.996 --     8 C    0.961
    25   1 H    0.894 --    10 O    0.871
    26   1 H    0.996 --    12 C    0.983
    27   1 H    0.997 --    12 C    0.982
    28   1 H    0.997 --    12 C    0.984
    29   1 H    0.999 --    13 C    0.968
    30   1 H    0.998 --    14 C    0.968
    31   1 H    0.998 --    15 C    0.986
    32   1 H    0.998 --    15 C    0.986
    33   1 H    0.995 --    15 C    0.982
 ---------------------------------------------------------------------------

Topologies differ in total number of bonds
Writing topology from bond orders to xtbtopo.mol

molecular dipole:
                 x           y           z       tot (Debye)
 q only:       -0.941      -0.767      -0.147
   full:       -0.957      -0.709      -0.309       3.126
molecular quadrupole (traceless):
                xx          xy          yy          xz          yz          zz
 q only:        0.711      -7.016      -3.034      -2.411      -4.163       2.323
  q+dip:        1.534      -5.994      -2.580      -5.609      -3.218       1.047
   full:        0.892      -6.558      -2.543      -4.582      -5.256       1.651


           -------------------------------------------------
          | TOTAL ENERGY              -45.013132705436 Eh   |
          | GRADIENT NORM               0.153753417780 Eh/α |
          | HOMO-LUMO GAP               0.155180567741 eV   |
           -------------------------------------------------

------------------------------------------------------------------------
 * finished run on 2025/05/15 at 16:31:21.599     
------------------------------------------------------------------------
 total:
 * wall-time:     0 d,  0 h,  0 min,  0.061 sec
 *  cpu-time:     0 d,  0 h,  0 min,  0.051 sec
 * ratio c/w:     0.830 speedup
 SCF:
 * wall-time:     0 d,  0 h,  0 min,  0.052 sec
 *  cpu-time:     0 d,  0 h,  0 min,  0.042 sec
 * ratio c/w:     0.821 speedup


