38
 energy: -65.474187509516 gnorm: 0.000691509213 xtb: 6.7.1 (edcfbbe)
O            2.95239732780811        2.74197872186201       -0.99314954754661
C            2.99300082468731        2.33736755096853        0.34561178930010
C            2.36193035500761        0.95052006990196        0.53155804895810
O            1.05474053598712        1.04141519651923       -0.00921473992459
C            0.33858726981401       -0.16651731268391        0.01983583716825
C            1.05660343560751       -1.26513356731585       -0.77645747777590
C            2.45623244360151       -1.46141390289321       -0.19613397392871
C            3.20363580714570       -0.12335866991742       -0.17099291880352
O            4.41164779840419       -0.24403316569453        0.53305513436272
O            3.21256454660508       -2.37222426042481       -0.95607388498170
O            0.35896504927675       -2.47965176078915       -0.70112435421573
O           -0.89307625071423        0.00583585739603       -0.59456308531610
C           -1.96175730659118        0.40557302484245        0.17062113415868
C           -1.84756241874080        1.26484882758137        1.25211485699270
C           -2.98006675268112        1.62959052969498        1.96052007346391
C           -4.22038941389936        1.14126980229747        1.59221060565732
C           -4.33011577743002        0.27845122839187        0.51398416700546
C           -3.20994427760188       -0.10112404853264       -0.20569511267335
C           -3.29280790270121       -1.05694917086387       -1.36605416574272
O           -2.51906887051214       -2.21530782254341       -1.07949663090616
H            2.04464076765164        2.61565466582392       -1.29873139831895
H            2.46077816875331        3.05675485121824        0.98409785894969
H            4.04210431340825        2.29212285424624        0.64023917867219
H            2.31427426940662        0.70163087237836        1.60291146895037
H            0.21274736859185       -0.50321752791825        1.06896356455013
H            1.13642836014548       -0.92586247783482       -1.82238862750957
H            2.35260781111381       -1.83433814553368        0.83728129855506
H            3.39094376466709        0.19101513295547       -1.20949560735031
H            4.88218093169653       -0.99754880154172        0.15492911866872
H            2.64914716820565       -3.13741546718685       -1.12327896484835
H           -0.59498770493354       -2.29811462617616       -0.79833415906774
H           -0.87895618998842        1.65653501799245        1.52157008295677
H           -2.88855666007545        2.30069494630121        2.80114083239232
H           -5.10205976557345        1.42648166184073        2.14539828229569
H           -5.29719704628901       -0.11125409685249        0.23245690394286
H           -2.90267734226788       -0.56470974921591       -2.26831669181342
H           -4.33978399622205       -1.33646644209849       -1.53711169901048
H           -2.62715064136364       -2.84289979619449       -1.80188719726841
