43
 energy: -70.313073023625 gnorm: 0.000451145697 xtb: 6.7.1 (edcfbbe)
C           -6.29343320359604        0.07464763194715       -1.07728493053793
C           -4.82616615257819        0.08424261480112       -0.78330404511493
C           -4.33798232299815        0.09085967565731        0.52654821536245
O           -5.21992998519006        0.07817889877701        1.59368985478804
C           -5.64670969434832        1.36234542189669        1.99516999586684
C           -2.96168435509419        0.06447029376725        0.76468577919039
C           -2.42495619299353        0.00594253723507        2.16108855228840
C           -3.88182125842931        0.07417054200173       -1.80159274406590
N           -2.58047317797538        0.08423215357497       -1.59778873138431
C           -2.12130509819591        0.07959600523738       -0.35333122888498
C           -0.63671760283389        0.06172163969726       -0.22965732515599
S           -0.04239500052374       -1.70908546865058       -0.20334553367822
C            1.69309044936736       -1.22966052011302       -0.12186201033093
N            2.36640655566411       -0.53465822020850       -0.99210021804748
C            3.64297094480894       -0.47781945073006       -0.49152948613024
C            3.70408284344343       -1.18531186527811        0.73285763494401
N            2.43246428591390       -1.65758848685337        0.93476143584293
C            4.88526912637136       -1.28066614060333        1.45359756133284
C            5.99318534699745       -0.66206382624556        0.92481016499882
C            5.94677992525044        0.04419828256894       -0.29401968428619
O            7.13639290660123        0.59427164030786       -0.67140045004890
C            7.18526669647138        1.31141615574949       -1.88056091686997
C            4.77145845202540        0.14688836796445       -1.01603499836194
O           -0.27719315330050       -2.22946032148409        1.15297424849298
H           -6.65085895453653        1.08725093380225       -1.26856627958710
H           -6.84294855891211       -0.33407891627238       -0.23271544764874
H           -6.49668316997291       -0.52454226632786       -1.96169282808312
H           -6.32444109491883        1.20787304770595        2.83303721517226
H           -4.80159238365302        1.98061331144002        2.31829735608913
H           -6.17539856561713        1.88222216530687        1.18933627437221
H           -3.23981916117129       -0.14090486461148        2.86463079632873
H           -1.90038089968181        0.92865087954965        2.41391361497561
H           -1.73100606922340       -0.82617361066498        2.25632085174191
H           -4.19151451928665        0.06141190383448       -2.83849380716574
H           -0.17410662215861        0.47963668725324       -1.12022886473063
H           -0.27700450420416        0.54605580556042        0.67406447059369
H            2.06367661167997       -2.20155399089373        1.69907364822881
H            4.93603335038929       -1.81872559848697        2.38741495870841
H            6.94194814095382       -0.70155466396944        1.43547490865221
H            8.21471465546710        1.65201413761951       -1.97980878066010
H            6.92939819892252        0.67592099765016       -2.73441260229762
H            6.51684972249311        2.17818074512738       -1.86047841177003
H            4.69633348857358        0.67703573535681       -1.94963821312811
