38
 energy: -65.470722983779 gnorm: 0.000385538044 xtb: 6.7.1 (edcfbbe)
O           -2.08853011226747       -2.75815722772730        1.63212312456580
C           -2.85355527393101       -2.08959357823381        0.67024596355601
C           -2.37956807287906       -0.64508657603143        0.47913032744812
O           -1.02618189556593       -0.71402341924801        0.06192941375246
C           -0.42993332611992        0.54715607736905       -0.07731902755708
C           -1.14443718060513        1.35917999467466       -1.16945937269762
C           -2.62382887754907        1.49412615993698       -0.80393175409878
C           -3.22976126301245        0.10674481540371       -0.55076427540947
O           -4.53795833920664        0.21242296264475       -0.06304163879377
O           -3.35983328708514        2.10697398131640       -1.83283743536941
O           -0.60136528767135        2.64966024891828       -1.29202170252299
O            0.88981249091036        0.40819967850868       -0.48394437692386
C            1.81408335411304       -0.11834838567800        0.40294155141899
C            1.50076613646691       -0.63497710070577        1.64859436211344
C            2.50862404465905       -1.12857008381293        2.46338084195477
C            3.82258833014484       -1.11052419631366        2.03911720597387
C            4.13407780705957       -0.59927514707422        0.78974955181921
C            3.14298167049958       -0.10073974066465       -0.03575436631143
C            3.45291619825249        0.45912964501011       -1.39842896477064
O            4.83040741519222        0.36681905247575       -1.67306684453558
H           -1.16378426731398       -2.69680830929381        1.36070793831004
H           -2.80323033749994       -2.60425923703903       -0.29887314162546
H           -3.88490361061115       -2.08042961580038        1.02402290759456
H           -2.44302322904430       -0.11238945950979        1.44137347051906
H           -0.49048928049580        1.10303271947225        0.88269472250127
H           -1.04975708193263        0.80601339478473       -2.11697418835722
H           -2.69858529850353        2.09393993220579        0.11866022258117
H           -3.21576548427902       -0.44847691623943       -1.50279151512217
H           -5.00862899234592        0.82364013157099       -0.64495911596989
H           -2.88484031246532        2.90598895731524       -2.09151250704805
H            0.35591395918415        2.56167300876794       -1.37243309787209
H            0.47872243928617       -0.67276144638715        1.98888180276765
H            2.25176515495110       -1.53038116777268        3.43182343333144
H            4.60521642152640       -1.49577539996635        2.67428297277365
H            5.15228836494528       -0.57806880587599        0.43673650502703
H            2.86410626133030       -0.09503228613399       -2.14501551040710
H            3.12169939479558        1.51010775904879       -1.43163933074690
H            4.99199136706726        0.69886958008318       -2.56142815186842
