----- Optimization -----
      -----------------------------------------------------------      
     |                   =====================                   |     
     |                           x T B                           |     
     |                   =====================                   |     
     |                         S. Grimme                         |     
     |          Mulliken Center for Theoretical Chemistry        |     
     |                    University of Bonn                     |     
      -----------------------------------------------------------      

   * xtb version 6.7.1 (edcfbbe) compiled by 'conda@3ef47c1a292c' on 2024-11-25

   xtb is free software: you can redistribute it and/or modify it under
   the terms of the GNU Lesser General Public License as published by
   the Free Software Foundation, either version 3 of the License, or
   (at your option) any later version.
   
   xtb is distributed in the hope that it will be useful,
   but WITHOUT ANY WARRANTY; without even the implied warranty of
   MERCHANTABILITY or FITNESS FOR A PARTICULAR PURPOSE.  See the
   GNU Lesser General Public License for more details.
   
   Cite this work as:
   * C. Bannwarth, E. Caldeweyher, S. Ehlert, A. Hansen, P. Pracht,
     J. Seibert, S. Spicher, S. Grimme, WIREs Comput. Mol. Sci., 2020, 11,
     e01493. DOI: 10.1002/wcms.1493
   
   for GFN2-xTB:
   * C. Bannwarth, S. Ehlert and S. Grimme., J. Chem. Theory Comput., 2019,
     15, 1652-1671. DOI: 10.1021/acs.jctc.8b01176
   for GFN1-xTB:
   * S. Grimme, C. Bannwarth, P. Shushkov, J. Chem. Theory Comput., 2017,
     13, 1989-2009. DOI: 10.1021/acs.jctc.7b00118
   for GFN0-xTB:
   * P. Pracht, E. Caldeweyher, S. Ehlert, S. Grimme, ChemRxiv, 2019, preprint.
     DOI: 10.26434/chemrxiv.8326202.v1
   for GFN-FF:
   * S. Spicher and S. Grimme, Angew. Chem. Int. Ed., 2020, 59, 15665-15673.
     DOI: 10.1002/anie.202004239
   
   for ALPB and GBSA implicit solvation:
   * S. Ehlert, M. Stahn, S. Spicher, S. Grimme, J. Chem. Theory Comput.,
     2021, 17, 4250-4261. DOI: 10.1021/acs.jctc.1c00471
   
   for ddCOSMO and CPCM-X implicit solvation:
   * M. Stahn, S. Ehlert, S. Grimme, J. Phys. Chem. A,
     2023, XX, XXXX-XXXX. DOI: 10.1021/acs.jpca.3c04382
   
   for DFT-D4:
   * E. Caldeweyher, C. Bannwarth and S. Grimme, J. Chem. Phys., 2017,
     147, 034112. DOI: 10.1063/1.4993215
   * E. Caldeweyher, S. Ehlert, A. Hansen, H. Neugebauer, S. Spicher,
     C. Bannwarth and S. Grimme, J. Chem. Phys., 2019, 150, 154122.
     DOI: 10.1063/1.5090222
   * E. Caldeweyher, J.-M. Mewes, S. Ehlert and S. Grimme, Phys. Chem. Chem. Phys.
     2020, 22, 8499-8512. DOI: 10.1039/D0CP00502A
   
   for sTDA-xTB:
   * S. Grimme and C. Bannwarth, J. Chem. Phys., 2016, 145, 054103.
     DOI: 10.1063/1.4959605
   
   in the mass-spec context:
   * V. Asgeirsson, C. Bauer and S. Grimme, Chem. Sci., 2017, 8, 4879.
     DOI: 10.1039/c7sc00601b
   * J. Koopman and S. Grimme, ACS Omega 2019, 4, 12, 15120-15133.
     DOI: 10.1021/acsomega.9b02011
   
   for metadynamics refer to:
   * S. Grimme, J. Chem. Theory Comput., 2019, 155, 2847-2862
     DOI: 10.1021/acs.jctc.9b00143
   
   for SPH calculations refer to:
   * S. Spicher and S. Grimme, J. Chem. Theory Comput., 2021, 17, 1701-1714
     DOI: 10.1021/acs.jctc.0c01306
   
   for ONIOM refer to:
   * C. Plett, A. Katbashev, S. Ehlert, S. Grimme, M. Bursch,
     Phys. Chem. Chem. Phys., 2023, 25, 17860-17868. DOI: 10.1039/D3CP02178E
   
   for DIPRO refer to:
   * J. Kohn, N. Gildemeister, S. Grimme, D. Fazzi, A. Hansen,
     J. Chem. Phys., 2023, just accepted.
   
   for PTB refer to:
   * S. Grimme, M. Mueller, A. Hansen, J. Chem. Phys., 2023, 158, 124111.
     DOI: 10.1063/5.0137838
   
   with help from (in alphabetical order)
   P. Atkinson, C. Bannwarth, F. Bohle, G. Brandenburg, E. Caldeweyher
   M. Checinski, S. Dohm, S. Ehlert, S. Ehrlich, I. Gerasimov, C. Hölzer
   A. Katbashev, J. Kohn, J. Koopman, C. Lavigne, S. Lehtola, F. März, M. Müller,
   F. Musil, H. Neugebauer, J. Pisarek, C. Plett, P. Pracht, F. Pultar,
   J. Seibert, P. Shushkov, S. Spicher, M. Stahn, M. Steiner, T. Strunk,
   J. Stückrath, T. Rose, and J. Unsleber
   
 * started run on 2025/05/15 at 16:12:36.487     
   ID    Z sym.   atoms
    1    8 O      1, 4, 9-12, 20
    2    6 C      2, 3, 5-8, 13-19
    3    1 H      21-38

           -------------------------------------------------
          |                Calculation Setup                |
           -------------------------------------------------

          program call               : xtb /rds/general/user/hgt20/home/callum/QDESCP/Salicin_rdkit_conf_16/Salicin_rdkit_conf_16.xyz --opt normal --acc 1 --gfn 2 --chrg 0 --uhf 0 -P 1
          hostname                   : login-c
          coordinate file            : /rds/general/user/hgt20/home/callum/QDESCP/Salicin_rdkit_conf_16/Salicin_rdkit_conf_16.xyz
          omp threads                :                     1


           -------------------------------------------------
          |                 G F N 2 - x T B                 |
           -------------------------------------------------

        Reference                      10.1021/acs.jctc.8b01176
      * Hamiltonian:
        H0-scaling (s, p, d)           1.850000    2.230000    2.230000
        zeta-weighting                 0.500000
      * Dispersion:
        s8                             2.700000
        a1                             0.520000
        a2                             5.000000
        s9                             5.000000
      * Repulsion:
        kExp                           1.500000    1.000000
        rExp                           1.000000
      * Coulomb:
        alpha                          2.000000
        third order                    shell-resolved
        anisotropic                    true
        a3                             3.000000
        a5                             4.000000
        cn-shift                       1.200000
        cn-exp                         4.000000
        max-rad                        5.000000


          ...................................................
          :                      SETUP                      :
          :.................................................:
          :  # basis functions                  98          :
          :  # atomic orbitals                  98          :
          :  # shells                           58          :
          :  # electrons                       112          :
          :  max. iterations                   250          :
          :  Hamiltonian                  GFN2-xTB          :
          :  restarted?                      false          :
          :  GBSA solvation                  false          :
          :  PC potential                    false          :
          :  electronic temp.          300.0000000     K    :
          :  accuracy                    1.0000000          :
          :  -> integral cutoff          0.2500000E+02      :
          :  -> integral neglect         0.1000000E-07      :
          :  -> SCF convergence          0.1000000E-05 Eh   :
          :  -> wf. convergence          0.1000000E-03 e    :
          :  Broyden damping             0.4000000          :
          :  net charge                          0          :
          :  unpaired electrons                  0          :
          ...................................................

 iter      E             dE          RMSdq      gap      omega  full diag
   1    -66.0040737 -0.660041E+02  0.466E+00    4.12       0.0  T
   2    -66.0677580 -0.636844E-01  0.261E+00    4.33       1.0  T
   3    -66.0637121  0.404591E-02  0.923E-01    4.15       1.0  T
   4    -66.0715048 -0.779263E-02  0.290E-01    4.32       1.0  T
   5    -66.0733832 -0.187846E-02  0.951E-02    4.30       1.0  T
   6    -66.0734288 -0.455508E-04  0.423E-02    4.28       1.0  T
   7    -66.0734388 -0.100309E-04  0.167E-02    4.29       1.0  T
   8    -66.0734418 -0.299921E-05  0.562E-03    4.29       2.9  T
   9    -66.0734423 -0.504247E-06  0.226E-03    4.29       7.2  T
  10    -66.0734424 -0.443251E-07  0.105E-03    4.29      15.4  T
  11    -66.0734424 -0.178219E-07  0.350E-04    4.29      46.3  T
  12    -66.0734424 -0.145948E-08  0.122E-04    4.29     132.6  T

   *** convergence criteria satisfied after 12 iterations ***

         #    Occupation            Energy/Eh            Energy/eV
      -------------------------------------------------------------
         1        2.0000           -0.7420862             -20.1932
       ...           ...                  ...                  ...
        50        2.0000           -0.4309329             -11.7263
        51        2.0000           -0.4296907             -11.6925
        52        2.0000           -0.4287810             -11.6677
        53        2.0000           -0.4270114             -11.6196
        54        2.0000           -0.4182524             -11.3812
        55        2.0000           -0.4039435             -10.9919
        56        2.0000           -0.3911688             -10.6442 (HOMO)
        57                         -0.2334871              -6.3535 (LUMO)
        58                         -0.2259506              -6.1484
        59                         -0.1063734              -2.8946
        60                         -0.0705938              -1.9210
        61                         -0.0480614              -1.3078
       ...                                ...                  ...
        98                          0.6229070              16.9502
      -------------------------------------------------------------
                  HL-Gap            0.1576817 Eh            4.2907 eV
             Fermi-level           -0.3123280 Eh           -8.4989 eV

 SCC (total)                   0 d,  0 h,  0 min,  0.048 sec
 SCC setup                      ...        0 min,  0.000 sec (  0.623%)
 Dispersion                     ...        0 min,  0.000 sec (  0.763%)
 classical contributions        ...        0 min,  0.000 sec (  0.249%)
 integral evaluation            ...        0 min,  0.006 sec ( 13.107%)
 iterations                     ...        0 min,  0.021 sec ( 43.128%)
 molecular gradient             ...        0 min,  0.020 sec ( 41.807%)
 printout                       ...        0 min,  0.000 sec (  0.310%)

         :::::::::::::::::::::::::::::::::::::::::::::::::::::
         ::                     SUMMARY                     ::
         :::::::::::::::::::::::::::::::::::::::::::::::::::::
         :: total energy             -65.460290202023 Eh    ::
         :: gradient norm              0.074575421753 Eh/a0 ::
         :: HOMO-LUMO gap              4.290738201041 eV    ::
         ::.................................................::
         :: SCC energy               -66.073219188871 Eh    ::
         :: -> isotropic ES            0.155606041898 Eh    ::
         :: -> anisotropic ES         -0.002636308090 Eh    ::
         :: -> anisotropic XC         -0.000118137768 Eh    ::
         :: -> dispersion             -0.035552212954 Eh    ::
         :: repulsion energy           0.612928986848 Eh    ::
         :: add. restraining           0.000000000000 Eh    ::
         :: total charge              -0.000000000000 e     ::
         :::::::::::::::::::::::::::::::::::::::::::::::::::::

      ----------------------------------------------------------- 
     |                   =====================                   |
     |                        A N C O P T                        |
     |                   =====================                   |
     |               Approximate Normal Coordinate               |
     |                Rational Function Optimizer                |
      ----------------------------------------------------------- 
      ----------------------------------------------------------- 
     |                   =====================                   |
     |                        A N C O P T                        |
     |                   =====================                   |
     |               Approximate Normal Coordinate               |
     |                Rational Function Optimizer                |
      ----------------------------------------------------------- 

          ...................................................
          :                      SETUP                      :
          :.................................................:
          :   optimization level            normal          :
          :   max. optcycles                   200          :
          :   ANC micro-cycles                  20          :
          :   degrees of freedom               108          :
          :.................................................:
          :   RF solver                   davidson          :
          :   write xtbopt.log                true          :
          :   linear?                        false          :
          :   energy convergence         0.5000000E-05 Eh   :
          :   grad. convergence          0.1000000E-02 Eh/α :
          :   maxmium RF displ.          1.0000000          :
          :   Hlow (freq-cutoff)         0.1000000E-01      :
          :   Hmax (freq-cutoff)         5.0000000          :
          :   S6 in model hess.         20.0000000          :
          ...................................................

generating ANC from exact Hessian ...
Using Lindh-Hessian (1995)
 Shifting diagonal of input Hessian by    9.6814030827437319E-003
 Lowest  eigenvalues of input Hessian
    0.000000    0.000000    0.000000    0.000000    0.000000    0.000000
    0.010000    0.010417    0.010575    0.012223    0.012956    0.013775
    0.013973    0.015190    0.015658    0.016105    0.018171    0.019025
 Highest eigenvalues
    1.523545    1.566945    1.717975    1.836233    1.949293    2.022859


........................................................................
.............................. CYCLE    1 ..............................
........................................................................

 iter      E             dE          RMSdq      gap      omega  full diag
   1    -66.0734424 -0.660734E+02  0.468E-05    4.29       0.0  T
   2    -66.0734424 -0.149640E-10  0.289E-05    4.29     561.1  T
   3    -66.0734424 -0.245848E-11  0.184E-05    4.29     881.4  T
     SCC iter.                  ...        0 min,  0.006 sec
     gradient                   ...        0 min,  0.020 sec
 * total energy  :   -65.4602902 Eh     change       -0.7969447E-10 Eh
   gradient norm :     0.0745758 Eh/α   predicted     0.0000000E+00 (-100.00%)
   displ. norm   :     0.2962221 α      lambda       -0.1053322E-01
   maximum displ.:     0.1092746 α      in ANC's #15, #21, #28, ...

........................................................................
.............................. CYCLE    2 ..............................
........................................................................

 iter      E             dE          RMSdq      gap      omega  full diag
   1    -66.1049260 -0.661049E+02  0.171E-01    4.40       0.0  T
   2    -66.1049580 -0.319689E-04  0.102E-01    4.39       1.0  T
   3    -66.1049466  0.113472E-04  0.291E-02    4.39       1.0  T
   4    -66.1049640 -0.173838E-04  0.724E-03    4.39       2.2  T
   5    -66.1049648 -0.803523E-06  0.346E-03    4.39       4.7  T
   6    -66.1049649 -0.609856E-07  0.138E-03    4.39      11.8  T
   7    -66.1049649 -0.937938E-08  0.590E-04    4.39      27.5  T
   8    -66.1049649 -0.336340E-08  0.203E-04    4.39      79.9  T
     SCC iter.                  ...        0 min,  0.013 sec
     gradient                   ...        0 min,  0.041 sec
 * total energy  :   -65.4677405 Eh     change       -0.7450260E-02 Eh
   gradient norm :     0.0396406 Eh/α   predicted    -0.5729847E-02 ( -23.09%)
   displ. norm   :     0.2683084 α      lambda       -0.4098488E-02
   maximum displ.:     0.1033352 α      in ANC's #18, #15, #11, ...

........................................................................
.............................. CYCLE    3 ..............................
........................................................................

 iter      E             dE          RMSdq      gap      omega  full diag
   1    -66.1217646 -0.661218E+02  0.127E-01    4.44       0.0  T
   2    -66.1217888 -0.241046E-04  0.754E-02    4.44       1.0  T
   3    -66.1217822  0.651299E-05  0.252E-02    4.44       1.0  T
   4    -66.1217933 -0.110676E-04  0.609E-03    4.44       2.7  T
   5    -66.1217939 -0.563340E-06  0.283E-03    4.44       5.7  T
   6    -66.1217939 -0.558637E-07  0.109E-03    4.44      14.9  T
   7    -66.1217939 -0.433351E-08  0.546E-04    4.44      29.7  T
   8    -66.1217939 -0.218282E-08  0.156E-04    4.44     103.7  T
     SCC iter.                  ...        0 min,  0.013 sec
     gradient                   ...        0 min,  0.020 sec
 * total energy  :   -65.4700978 Eh     change       -0.2357340E-02 Eh
   gradient norm :     0.0110899 Eh/α   predicted    -0.2197479E-02 (  -6.78%)
   displ. norm   :     0.1205195 α      lambda       -0.3862945E-03
   maximum displ.:     0.0507330 α      in ANC's #6, #11, #10, ...

........................................................................
.............................. CYCLE    4 ..............................
........................................................................

 iter      E             dE          RMSdq      gap      omega  full diag
   1    -66.1213278 -0.661213E+02  0.372E-02    4.44       0.0  T
   2    -66.1213296 -0.185557E-05  0.224E-02    4.44       1.0  T
   3    -66.1213294  0.213603E-06  0.504E-03    4.44       3.2  T
   4    -66.1213298 -0.434860E-06  0.180E-03    4.44       9.0  T
   5    -66.1213299 -0.670663E-07  0.768E-04    4.44      21.1  T
   6    -66.1213299 -0.603798E-08  0.319E-04    4.44      50.8  T
     SCC iter.                  ...        0 min,  0.010 sec
     gradient                   ...        0 min,  0.048 sec
 * total energy  :   -65.4703609 Eh     change       -0.2630955E-03 Eh
   gradient norm :     0.0045619 Eh/α   predicted    -0.1959560E-03 ( -25.52%)
   displ. norm   :     0.1148047 α      lambda       -0.1567357E-03
   maximum displ.:     0.0594717 α      in ANC's #6, #11, #5, ...

........................................................................
.............................. CYCLE    5 ..............................
........................................................................

 iter      E             dE          RMSdq      gap      omega  full diag
   1    -66.1199538 -0.661200E+02  0.294E-02    4.43       0.0  T
   2    -66.1199547 -0.964113E-06  0.179E-02    4.43       1.0  T
   3    -66.1199545  0.293320E-06  0.376E-03    4.43       4.3  T
   4    -66.1199549 -0.421065E-06  0.135E-03    4.43      12.0  T
   5    -66.1199549 -0.519665E-07  0.580E-04    4.43      28.0  T
   6    -66.1199549 -0.255937E-08  0.238E-04    4.43      68.2  T
     SCC iter.                  ...        0 min,  0.010 sec
     gradient                   ...        0 min,  0.020 sec
 * total energy  :   -65.4704602 Eh     change       -0.9927478E-04 Eh
   gradient norm :     0.0024536 Eh/α   predicted    -0.7940218E-04 ( -20.02%)
   displ. norm   :     0.0804417 α      lambda       -0.4792049E-04
   maximum displ.:     0.0448107 α      in ANC's #6, #2, #5, ...

........................................................................
.............................. CYCLE    6 ..............................
........................................................................

 iter      E             dE          RMSdq      gap      omega  full diag
   1    -66.1196410 -0.661196E+02  0.193E-02    4.43       0.0  T
   2    -66.1196412 -0.185034E-06  0.117E-02    4.43       1.4  T
   3    -66.1196411  0.121278E-06  0.213E-03    4.43       7.6  T
   4    -66.1196413 -0.175865E-06  0.670E-04    4.43      24.2  T
   5    -66.1196413 -0.786649E-08  0.341E-04    4.43      47.6  T
     SCC iter.                  ...        0 min,  0.008 sec
     gradient                   ...        0 min,  0.055 sec
 * total energy  :   -65.4704963 Eh     change       -0.3614706E-04 Eh
   gradient norm :     0.0023538 Eh/α   predicted    -0.2415410E-04 ( -33.18%)
   displ. norm   :     0.1183095 α      lambda       -0.5227533E-04
   maximum displ.:     0.0637407 α      in ANC's #6, #2, #7, ...

........................................................................
.............................. CYCLE    7 ..............................
........................................................................

 iter      E             dE          RMSdq      gap      omega  full diag
   1    -66.1197937 -0.661198E+02  0.308E-02    4.43       0.0  T
   2    -66.1197939 -0.226102E-06  0.186E-02    4.43       1.0  T
   3    -66.1197938  0.133804E-06  0.256E-03    4.43       6.3  T
   4    -66.1197941 -0.240680E-06  0.871E-04    4.43      18.6  T
   5    -66.1197941 -0.516819E-08  0.397E-04    4.43      40.9  T
     SCC iter.                  ...        0 min,  0.008 sec
     gradient                   ...        0 min,  0.020 sec
 * total energy  :   -65.4705333 Eh     change       -0.3697656E-04 Eh
   gradient norm :     0.0020225 Eh/α   predicted    -0.2650433E-04 ( -28.32%)
   displ. norm   :     0.1112420 α      lambda       -0.3604715E-04
   maximum displ.:     0.0524158 α      in ANC's #2, #6, #7, ...

........................................................................
.............................. CYCLE    8 ..............................
........................................................................

 iter      E             dE          RMSdq      gap      omega  full diag
   1    -66.1201919 -0.661202E+02  0.316E-02    4.43       0.0  T
   2    -66.1201921 -0.170330E-06  0.190E-02    4.43       1.0  T
   3    -66.1201921  0.423321E-07  0.203E-03    4.43       8.0  T
   4    -66.1201922 -0.127416E-06  0.802E-04    4.43      20.2  T
   5    -66.1201922 -0.357709E-08  0.302E-04    4.43      53.7  T
     SCC iter.                  ...        0 min,  0.008 sec
     gradient                   ...        0 min,  0.053 sec
 * total energy  :   -65.4705604 Eh     change       -0.2706098E-04 Eh
   gradient norm :     0.0018635 Eh/α   predicted    -0.1824990E-04 ( -32.56%)
   displ. norm   :     0.1930023 α      lambda       -0.3713302E-04
   maximum displ.:     0.0954834 α      in ANC's #2, #7, #6, ...

........................................................................
.............................. CYCLE    9 ..............................
........................................................................

 iter      E             dE          RMSdq      gap      omega  full diag
   1    -66.1207140 -0.661207E+02  0.569E-02    4.44       0.0  T
   2    -66.1207145 -0.509749E-06  0.343E-02    4.43       1.0  T
   3    -66.1207146 -0.242086E-07  0.281E-03    4.43       5.8  T
   4    -66.1207147 -0.191369E-06  0.135E-03    4.43      12.1  T
   5    -66.1207148 -0.153436E-07  0.564E-04    4.43      28.7  T
   6    -66.1207148 -0.364194E-08  0.143E-04    4.43     113.1  T
     SCC iter.                  ...        0 min,  0.010 sec
     gradient                   ...        0 min,  0.020 sec
 * total energy  :   -65.4705941 Eh     change       -0.3371462E-04 Eh
   gradient norm :     0.0029720 Eh/α   predicted    -0.1887629E-04 ( -44.01%)
   displ. norm   :     0.0664792 α      lambda       -0.2542837E-04
   maximum displ.:     0.0348391 α      in ANC's #7, #2, #1, ...

........................................................................
.............................. CYCLE   10 ..............................
........................................................................

 iter      E             dE          RMSdq      gap      omega  full diag
   1    -66.1209360 -0.661209E+02  0.191E-02    4.44       0.0  T
   2    -66.1209361 -0.642706E-07  0.114E-02    4.44       1.4  T
   3    -66.1209361 -0.493404E-08  0.857E-04    4.44      18.9  T
   4    -66.1209361 -0.150815E-07  0.401E-04    4.44      40.5  T
     SCC iter.                  ...        0 min,  0.007 sec
     gradient                   ...        0 min,  0.047 sec
 * total energy  :   -65.4706158 Eh     change       -0.2171597E-04 Eh
   gradient norm :     0.0024199 Eh/α   predicted    -0.1278791E-04 ( -41.11%)
   displ. norm   :     0.1979897 α      lambda       -0.5794031E-04
   maximum displ.:     0.1047580 α      in ANC's #7, #2, #1, ...

........................................................................
.............................. CYCLE   11 ..............................
........................................................................

 iter      E             dE          RMSdq      gap      omega  full diag
   1    -66.1203570 -0.661204E+02  0.544E-02    4.43       0.0  T
   2    -66.1203575 -0.489340E-06  0.327E-02    4.43       1.0  T
   3    -66.1203575 -0.317283E-07  0.275E-03    4.43       5.9  T
   4    -66.1203576 -0.158779E-06  0.129E-03    4.43      12.6  T
   5    -66.1203577 -0.898265E-08  0.554E-04    4.43      29.3  T
   6    -66.1203577 -0.388953E-08  0.165E-04    4.43      98.2  T
     SCC iter.                  ...        0 min,  0.010 sec
     gradient                   ...        0 min,  0.020 sec
 * total energy  :   -65.4706535 Eh     change       -0.3768617E-04 Eh
   gradient norm :     0.0023480 Eh/α   predicted    -0.3011394E-04 ( -20.09%)
   displ. norm   :     0.0958561 α      lambda       -0.2085959E-04
   maximum displ.:     0.0516502 α      in ANC's #2, #7, #1, ...

........................................................................
.............................. CYCLE   12 ..............................
........................................................................

 iter      E             dE          RMSdq      gap      omega  full diag
   1    -66.1202984 -0.661203E+02  0.247E-02    4.43       0.0  T
   2    -66.1202985 -0.109054E-06  0.149E-02    4.43       1.1  T
   3    -66.1202985 -0.836124E-09  0.135E-03    4.43      12.0  T
   4    -66.1202985 -0.412821E-07  0.610E-04    4.43      26.6  T
   5    -66.1202985 -0.215091E-08  0.273E-04    4.43      59.5  T
     SCC iter.                  ...        0 min,  0.042 sec
     gradient                   ...        0 min,  0.020 sec
 * total energy  :   -65.4706689 Eh     change       -0.1540644E-04 Eh
   gradient norm :     0.0017622 Eh/α   predicted    -0.1052778E-04 ( -31.67%)
   displ. norm   :     0.1791668 α      lambda       -0.1975455E-04
   maximum displ.:     0.1022103 α      in ANC's #2, #7, #1, ...

........................................................................
.............................. CYCLE   13 ..............................
........................................................................

 iter      E             dE          RMSdq      gap      omega  full diag
   1    -66.1199689 -0.661200E+02  0.455E-02    4.43       0.0  T
   2    -66.1199693 -0.360954E-06  0.275E-02    4.43       1.0  T
   3    -66.1199694 -0.107342E-06  0.200E-03    4.43       8.1  T
   4    -66.1199694 -0.509614E-07  0.110E-03    4.43      14.8  T
   5    -66.1199694 -0.729833E-08  0.392E-04    4.43      41.4  T
   6    -66.1199694 -0.293595E-08  0.153E-04    4.43     106.3  T
     SCC iter.                  ...        0 min,  0.010 sec
     gradient                   ...        0 min,  0.020 sec
 * total energy  :   -65.4706861 Eh     change       -0.1719785E-04 Eh
   gradient norm :     0.0016024 Eh/α   predicted    -0.1001883E-04 ( -41.74%)
   displ. norm   :     0.0511699 α      lambda       -0.1322462E-04
   maximum displ.:     0.0285671 α      in ANC's #6, #2, #5, ...

........................................................................
.............................. CYCLE   14 ..............................
........................................................................

 iter      E             dE          RMSdq      gap      omega  full diag
   1    -66.1211093 -0.661211E+02  0.145E-02    4.43       0.0  T
   2    -66.1211094 -0.104959E-06  0.880E-03    4.43       1.8  T
   3    -66.1211094  0.440502E-07  0.160E-03    4.43      10.1  T
   4    -66.1211095 -0.833851E-07  0.552E-04    4.43      29.4  T
   5    -66.1211095 -0.267406E-08  0.270E-04    4.43      60.0  T
     SCC iter.                  ...        0 min,  0.038 sec
     gradient                   ...        0 min,  0.020 sec
 * total energy  :   -65.4706908 Eh     change       -0.4685226E-05 Eh
   gradient norm :     0.0023319 Eh/α   predicted    -0.6621130E-05 (  41.32%)
   displ. norm   :     0.0804884 α      lambda       -0.1490626E-04
   maximum displ.:     0.0485697 α      in ANC's #2, #7, #9, ...

........................................................................
.............................. CYCLE   15 ..............................
........................................................................

 iter      E             dE          RMSdq      gap      omega  full diag
   1    -66.1208477 -0.661208E+02  0.229E-02    4.43       0.0  T
   2    -66.1208478 -0.106054E-06  0.139E-02    4.43       1.2  T
   3    -66.1208479 -0.239353E-07  0.108E-03    4.43      15.1  T
   4    -66.1208479 -0.183184E-07  0.556E-04    4.43      29.2  T
   5    -66.1208479 -0.157108E-08  0.251E-04    4.43      64.7  T
     SCC iter.                  ...        0 min,  0.008 sec
     gradient                   ...        0 min,  0.020 sec
 * total energy  :   -65.4707018 Eh     change       -0.1100155E-04 Eh
   gradient norm :     0.0013143 Eh/α   predicted    -0.7503732E-05 ( -31.79%)
   displ. norm   :     0.1219505 α      lambda       -0.1024392E-04
   maximum displ.:     0.0764118 α      in ANC's #2, #9, #8, ...

........................................................................
.............................. CYCLE   16 ..............................
........................................................................

 iter      E             dE          RMSdq      gap      omega  full diag
   1    -66.1203393 -0.661203E+02  0.356E-02    4.43       0.0  T
   2    -66.1203396 -0.243621E-06  0.216E-02    4.43       1.0  T
   3    -66.1203396 -0.697039E-07  0.148E-03    4.43      11.0  T
   4    -66.1203397 -0.245844E-07  0.791E-04    4.43      20.5  T
   5    -66.1203397 -0.169655E-08  0.355E-04    4.43      45.7  T
     SCC iter.                  ...        0 min,  0.041 sec
     gradient                   ...        0 min,  0.020 sec
 * total energy  :   -65.4707073 Eh     change       -0.5553245E-05 Eh
   gradient norm :     0.0019095 Eh/α   predicted    -0.5158161E-05 (  -7.11%)
   displ. norm   :     0.0512355 α      lambda       -0.7006923E-05
   maximum displ.:     0.0288984 α      in ANC's #7, #1, #2, ...

........................................................................
.............................. CYCLE   17 ..............................
........................................................................

 iter      E             dE          RMSdq      gap      omega  full diag
   1    -66.1206083 -0.661206E+02  0.128E-02    4.43       0.0  T
   2    -66.1206083 -0.372288E-07  0.773E-03    4.43       2.1  T
   3    -66.1206083 -0.125939E-07  0.629E-04    4.43      25.8  T
   4    -66.1206083 -0.483672E-08  0.348E-04    4.43      46.7  T
     SCC iter.                  ...        0 min,  0.007 sec
     gradient                   ...        0 min,  0.020 sec
 * total energy  :   -65.4707142 Eh     change       -0.6874142E-05 Eh
   gradient norm :     0.0008331 Eh/α   predicted    -0.3508889E-05 ( -48.96%)
   displ. norm   :     0.0577940 α      lambda       -0.4777122E-05
   maximum displ.:     0.0294801 α      in ANC's #6, #2, #3, ...

........................................................................
.............................. CYCLE   18 ..............................
........................................................................

 iter      E             dE          RMSdq      gap      omega  full diag
   1    -66.1206557 -0.661207E+02  0.149E-02    4.43       0.0  T
   2    -66.1206557 -0.338134E-07  0.902E-03    4.43       1.8  T
   3    -66.1206557 -0.141337E-07  0.610E-04    4.43      26.6  T
   4    -66.1206557 -0.369990E-08  0.360E-04    4.43      45.0  T
     SCC iter.                  ...        0 min,  0.007 sec
     gradient                   ...        0 min,  0.020 sec
 * total energy  :   -65.4707194 Eh     change       -0.5204405E-05 Eh
   gradient norm :     0.0005493 Eh/α   predicted    -0.2393348E-05 ( -54.01%)
   displ. norm   :     0.0789364 α      lambda       -0.3649267E-05
   maximum displ.:     0.0480480 α      in ANC's #2, #6, #3, ...

........................................................................
.............................. CYCLE   19 ..............................
........................................................................

 iter      E             dE          RMSdq      gap      omega  full diag
   1    -66.1205943 -0.661206E+02  0.206E-02    4.43       0.0  T
   2    -66.1205944 -0.655625E-07  0.124E-02    4.43       1.3  T
   3    -66.1205944 -0.273261E-07  0.792E-04    4.43      20.5  T
   4    -66.1205944 -0.328167E-08  0.466E-04    4.43      34.8  T
     SCC iter.                  ...        0 min,  0.007 sec
     gradient                   ...        0 min,  0.059 sec
 * total energy  :   -65.4707230 Eh     change       -0.3583834E-05 Eh
   gradient norm :     0.0003856 Eh/α   predicted    -0.1830252E-05 ( -48.93%)
   displ. norm   :     0.0589493 α      lambda       -0.1736057E-05
   maximum displ.:     0.0412751 α      in ANC's #2, #3, #8, ...

   *** GEOMETRY OPTIMIZATION CONVERGED AFTER 19 ITERATIONS ***

------------------------------------------------------------------------
 total energy gain   :        -0.0104328 Eh       -6.5467 kcal/mol
 total RMSD          :         0.2399798 a0        0.1270 Å
 total power (kW/mol):        -1.4416451 (step)  -26.2220 (real)
------------------------------------------------------------------------

 ANCopt (total)                0 d,  0 h,  0 min,  1.045 sec
 optimizer setup                ...        0 min,  0.000 sec (  0.007%)
 model hessian                  ...        0 min,  0.045 sec (  4.290%)
 ANC generation                 ...        0 min,  0.001 sec (  0.118%)
 coordinate transformation      ...        0 min,  0.000 sec (  0.010%)
 single point calculation       ...        0 min,  0.991 sec ( 94.822%)
 optimization log               ...        0 min,  0.004 sec (  0.375%)
 hessian update                 ...        0 min,  0.000 sec (  0.020%)
 rational function              ...        0 min,  0.001 sec (  0.118%)

================
 final structure:
================
38
 xtb: 6.7.1 (edcfbbe)
O           -2.08853011226747       -2.75815722772730        1.63212312456580
C           -2.85355527393101       -2.08959357823381        0.67024596355601
C           -2.37956807287906       -0.64508657603143        0.47913032744812
O           -1.02618189556593       -0.71402341924801        0.06192941375246
C           -0.42993332611992        0.54715607736905       -0.07731902755708
C           -1.14443718060513        1.35917999467466       -1.16945937269762
C           -2.62382887754907        1.49412615993698       -0.80393175409878
C           -3.22976126301245        0.10674481540371       -0.55076427540947
O           -4.53795833920664        0.21242296264475       -0.06304163879377
O           -3.35983328708514        2.10697398131640       -1.83283743536941
O           -0.60136528767135        2.64966024891828       -1.29202170252299
O            0.88981249091036        0.40819967850868       -0.48394437692386
C            1.81408335411304       -0.11834838567800        0.40294155141899
C            1.50076613646691       -0.63497710070577        1.64859436211344
C            2.50862404465905       -1.12857008381293        2.46338084195477
C            3.82258833014484       -1.11052419631366        2.03911720597387
C            4.13407780705957       -0.59927514707422        0.78974955181921
C            3.14298167049958       -0.10073974066465       -0.03575436631143
C            3.45291619825249        0.45912964501011       -1.39842896477064
O            4.83040741519222        0.36681905247575       -1.67306684453558
H           -1.16378426731398       -2.69680830929381        1.36070793831004
H           -2.80323033749994       -2.60425923703903       -0.29887314162546
H           -3.88490361061115       -2.08042961580038        1.02402290759456
H           -2.44302322904430       -0.11238945950979        1.44137347051906
H           -0.49048928049580        1.10303271947225        0.88269472250127
H           -1.04975708193263        0.80601339478473       -2.11697418835722
H           -2.69858529850353        2.09393993220579        0.11866022258117
H           -3.21576548427902       -0.44847691623943       -1.50279151512217
H           -5.00862899234592        0.82364013157099       -0.64495911596989
H           -2.88484031246532        2.90598895731524       -2.09151250704805
H            0.35591395918415        2.56167300876794       -1.37243309787209
H            0.47872243928617       -0.67276144638715        1.98888180276765
H            2.25176515495110       -1.53038116777268        3.43182343333144
H            4.60521642152640       -1.49577539996635        2.67428297277365
H            5.15228836494528       -0.57806880587599        0.43673650502703
H            2.86410626133030       -0.09503228613399       -2.14501551040710
H            3.12169939479558        1.51010775904879       -1.43163933074690
H            4.99199136706726        0.69886958008318       -2.56142815186842

 Bond Distances (Angstroems)
 ---------------------------
O1-C2=1.3991         O1-H21=0.9657        C2-O1=1.3991         C2-C3=1.5322         C2-H22=1.0985        C2-H23=1.0904        
C3-C2=1.5322         C3-O4=1.4179         C3-C8=1.5326         C3-H24=1.1017        O4-C3=1.4179         O4-C5=1.4020         
C5-O4=1.4020         C5-C6=1.5371         C5-O12=1.3879        C5-H25=1.1110        C6-C5=1.5371         C6-C7=1.5298         
C6-O11=1.4054        C6-H26=1.1012        C7-C6=1.5298         C7-C8=1.5350         C7-O10=1.4057        C7-H27=1.1030        
C8-C3=1.5326         C8-C7=1.5350         C8-O9=1.4002         C8-H28=1.1022        O9-C8=1.4002         O9-H29=0.9663        
O10-C7=1.4057        O10-H30=0.9649       O11-C6=1.4054        O11-H31=0.9647       O12-C5=1.3879        O12-C13=1.3850       
C13-O12=1.3850       C13-C14=1.3845       C13-C18=1.3995       C14-C13=1.3845       C14-C15=1.3868       C14-H32=1.0779       
C15-C14=1.3868       C15-C16=1.3809       C15-H33=1.0795       C16-C15=1.3809       C16-C17=1.3854       C16-H34=1.0791       
C17-C16=1.3854       C17-C18=1.3828       C17-H35=1.0779       C18-C13=1.3995       C18-C17=1.3828       C18-C19=1.5055       
C19-C18=1.5055       C19-O20=1.4076       C19-H36=1.1005       C19-H37=1.1024       O20-C19=1.4076       O20-H38=0.9621       
H21-O1=0.9657        H22-C2=1.0985        H23-C2=1.0904        H24-C3=1.1017        H25-C5=1.1110        H26-C6=1.1012        
H27-C7=1.1030        H28-C8=1.1022        H29-O9=0.9663        H30-O10=0.9649       H31-O11=0.9647       H32-C14=1.0779       
H33-C15=1.0795       H34-C16=1.0791       H35-C17=1.0779       H36-C19=1.1005       H37-C19=1.1024       H38-O20=0.9621       
 C  H  Rav=1.0942 sigma=0.0113  Rmin=1.0779  Rmax=1.1110    13
 C  C  Rav=1.4577 sigma=0.0715  Rmin=1.3809  Rmax=1.5371    12
 O  H  Rav=0.9647 sigma=0.0015  Rmin=0.9621  Rmax=0.9663     5
 O  C  Rav=1.4012 sigma=0.0095  Rmin=1.3850  Rmax=1.4179     9

 selected bond angles (degree)
 --------------------
H21-O1-C2=107.46               C3-C2-O1=111.54                H22-C2-O1=110.95               H22-C2-C3=108.51               
H23-C2-O1=107.35               H23-C2-C3=108.97               H23-C2-H22=109.48              O4-C3-C2=106.63                
C8-C3-C2=112.01                C8-C3-O4=110.83                H24-C3-C2=109.21               H24-C3-O4=109.60               
H24-C3-C8=108.53               C5-O4-C3=113.04                C6-C5-O4=110.37                O12-C5-O4=110.09               
O12-C5-C6=106.66               H25-C5-O4=109.94               H25-C5-C6=108.92               H25-C5-O12=110.80              
C7-C6-C5=109.05                O11-C6-C5=111.56               O11-C6-C7=108.27               H26-C6-C5=107.82               
H26-C6-C7=109.45               H26-C6-O11=110.67              C8-C7-C6=109.96                O10-C7-C6=111.71               
O10-C7-C8=107.94               H27-C7-C6=108.26               H27-C7-C8=109.08               H27-C7-O10=109.86              
C7-C8-C3=109.59                O9-C8-C3=108.74                O9-C8-C7=110.98                H28-C8-C3=109.04               
H28-C8-C7=107.93               H28-C8-O9=110.53               H29-O9-C8=107.04               H30-O10-C7=107.43              

 selected dihedral angles (degree)
 ---------------------------------
C3-C2-O1-H21=304.40           H22-C2-O1-H21= 65.50          H23-C2-O1-H21=185.09          O4-C3-C2-O1= 59.83            
O4-C3-C2-H22=297.31           O4-C3-C2-H23=178.17           C8-C3-C2-O1=181.23            C8-C3-C2-H22= 58.71           
C8-C3-C2-H23=299.57           H24-C3-C2-O1=301.48           H24-C3-C2-H22=178.97          H24-C3-C2-H23= 59.82          
C5-O4-C3-C2=183.57            C5-O4-C3-C8= 61.43            C5-O4-C3-H24=301.66           C6-C5-O4-C3=297.37            
O12-C5-O4-C3=179.89           H25-C5-O4-C3= 57.55           C7-C6-C5-O4= 58.02            C7-C6-C5-O12=177.60           
C7-C6-C5-H25=297.23           O11-C6-C5-O4=177.56           O11-C6-C5-O12=297.14          O11-C6-C5-H25= 56.77          
H26-C6-C5-O4=299.27           H26-C6-C5-O12= 58.85          H26-C6-C5-H25=178.48          C8-C7-C6-C5=306.03            
C8-C7-C6-O11=184.48           C8-C7-C6-H26= 63.76           O10-C7-C6-C5=186.20           O10-C7-C6-O11= 64.65          
O10-C7-C6-H26=303.93          H27-C7-C6-C5= 65.11           H27-C7-C6-O11=303.56          H27-C7-C6-H26=182.84          
C7-C8-C3-C2=185.70            C7-C8-C3-O4=304.65            C7-C8-C3-H24= 65.05           O9-C8-C3-C2= 64.23            
O9-C8-C3-O4=183.18            O9-C8-C3-H24=303.58           H28-C8-C3-C2=303.64           H28-C8-C3-O4= 62.58           
H28-C8-C3-H24=182.99          C3-C8-C7-C6= 52.94            C3-C8-C7-O10=175.04           C3-C8-C7-H27=294.36           
O9-C8-C7-C6=173.05            O9-C8-C7-O10=295.15           O9-C8-C7-H27= 54.47           H28-C8-C7-C6=294.31           
H28-C8-C7-O10= 56.41          H28-C8-C7-H27=175.73          H29-O9-C8-C3=169.78           H29-O9-C8-C7= 49.17           
H29-O9-C8-H28=289.45          H30-O10-C7-C6=310.68          H30-O10-C7-C8=189.67          H30-O10-C7-H27= 70.84         
           -------------------------------------------------
          |                Final Singlepoint                |
           -------------------------------------------------

          ...................................................
          :                      SETUP                      :
          :.................................................:
          :  # basis functions                  98          :
          :  # atomic orbitals                  98          :
          :  # shells                           58          :
          :  # electrons                       112          :
          :  max. iterations                   250          :
          :  Hamiltonian                  GFN2-xTB          :
          :  restarted?                      false          :
          :  GBSA solvation                  false          :
          :  PC potential                    false          :
          :  electronic temp.          300.0000000     K    :
          :  accuracy                    1.0000000          :
          :  -> integral cutoff          0.2500000E+02      :
          :  -> integral neglect         0.1000000E-07      :
          :  -> SCF convergence          0.1000000E-05 Eh   :
          :  -> wf. convergence          0.1000000E-03 e    :
          :  Broyden damping             0.4000000          :
          :  net charge                          0          :
          :  unpaired electrons                  0          :
          ...................................................

 iter      E             dE          RMSdq      gap      omega  full diag
   1    -66.1205944 -0.661206E+02  0.161E-04    4.43       0.0  T
   2    -66.1205944 -0.239069E-09  0.104E-04    4.43     155.9  T
   3    -66.1205944 -0.149939E-09  0.659E-05    4.43     246.0  T

   *** convergence criteria satisfied after 3 iterations ***

         #    Occupation            Energy/Eh            Energy/eV
      -------------------------------------------------------------
         1        2.0000           -0.7442851             -20.2530
       ...           ...                  ...                  ...
        50        2.0000           -0.4293134             -11.6822
        51        2.0000           -0.4292080             -11.6793
        52        2.0000           -0.4264671             -11.6048
        53        2.0000           -0.4225879             -11.4992
        54        2.0000           -0.4162099             -11.3256
        55        2.0000           -0.4056022             -11.0370
        56        2.0000           -0.3920117             -10.6672 (HOMO)
        57                         -0.2290991              -6.2341 (LUMO)
        58                         -0.2239804              -6.0948
        59                         -0.0986470              -2.6843
        60                         -0.0339876              -0.9249
        61                         -0.0238871              -0.6500
       ...                                ...                  ...
        98                          0.6593591              17.9421
      -------------------------------------------------------------
                  HL-Gap            0.1629126 Eh            4.4331 eV
             Fermi-level           -0.3105554 Eh           -8.4506 eV

 SCC (total)                   0 d,  0 h,  0 min,  0.032 sec
 SCC setup                      ...        0 min,  0.000 sec (  0.785%)
 Dispersion                     ...        0 min,  0.000 sec (  0.757%)
 classical contributions        ...        0 min,  0.000 sec (  0.358%)
 integral evaluation            ...        0 min,  0.006 sec ( 19.225%)
 iterations                     ...        0 min,  0.005 sec ( 15.599%)
 molecular gradient             ...        0 min,  0.020 sec ( 62.864%)
 printout                       ...        0 min,  0.000 sec (  0.391%)

         :::::::::::::::::::::::::::::::::::::::::::::::::::::
         ::                     SUMMARY                     ::
         :::::::::::::::::::::::::::::::::::::::::::::::::::::
         :: total energy             -65.470722983779 Eh    ::
         :: gradient norm              0.000385538044 Eh/a0 ::
         :: HOMO-LUMO gap              4.433078088845 eV    ::
         ::.................................................::
         :: SCC energy               -66.120358045243 Eh    ::
         :: -> isotropic ES            0.150745926029 Eh    ::
         :: -> anisotropic ES         -0.003928661707 Eh    ::
         :: -> anisotropic XC         -0.002983802146 Eh    ::
         :: -> dispersion             -0.036324456034 Eh    ::
         :: repulsion energy           0.649635061464 Eh    ::
         :: add. restraining           0.000000000000 Eh    ::
         :: total charge              -0.000000000000 e     ::
         :::::::::::::::::::::::::::::::::::::::::::::::::::::

           -------------------------------------------------
          |                Property Printout                |
           -------------------------------------------------

    * Orbital Energies and Occupations

         #    Occupation            Energy/Eh            Energy/eV
      -------------------------------------------------------------
         1        2.0000           -0.7442851             -20.2530
       ...           ...                  ...                  ...
        44        2.0000           -0.4698524             -12.7853
        45        2.0000           -0.4678611             -12.7311
        46        2.0000           -0.4581840             -12.4678
        47        2.0000           -0.4504481             -12.2573
        48        2.0000           -0.4386110             -11.9352
        49        2.0000           -0.4355493             -11.8519
        50        2.0000           -0.4293134             -11.6822
        51        2.0000           -0.4292080             -11.6793
        52        2.0000           -0.4264671             -11.6048
        53        2.0000           -0.4225879             -11.4992
        54        2.0000           -0.4162099             -11.3256
        55        2.0000           -0.4056022             -11.0370
        56        2.0000           -0.3920117             -10.6672 (HOMO)
        57                         -0.2290991              -6.2341 (LUMO)
        58                         -0.2239804              -6.0948
        59                         -0.0986470              -2.6843
        60                         -0.0339876              -0.9249
        61                         -0.0238871              -0.6500
        62                          0.0068336               0.1860
        63                          0.0304318               0.8281
        64                          0.0339767               0.9246
        65                          0.0409729               1.1149
        66                          0.0583192               1.5869
        67                          0.0728299               1.9818
       ...                                ...                  ...
        98                          0.6593591              17.9421
      -------------------------------------------------------------
                  HL-Gap            0.1629126 Eh            4.4331 eV
             Fermi-level           -0.3105554 Eh           -8.4506 eV

     #   Z          covCN         q      C6AA      α(0)
     1   8 O        1.656    -0.426    21.368     6.240
     2   6 C        3.676     0.073    19.568     6.338
     3   6 C        3.756     0.096    19.051     6.223
     4   8 O        1.702    -0.338    19.672     5.988
     5   6 C        3.652     0.247    17.056     5.931
     6   6 C        3.728     0.087    19.229     6.261
     7   6 C        3.731     0.099    19.035     6.228
     8   6 C        3.729     0.095    19.109     6.241
     9   8 O        1.657    -0.438    21.598     6.274
    10   8 O        1.656    -0.443    21.694     6.288
    11   8 O        1.656    -0.443    21.695     6.288
    12   8 O        1.707    -0.297    18.942     5.876
    13   6 C        2.869     0.132    25.113     8.215
    14   6 C        2.917    -0.061    29.506     8.907
    15   6 C        2.922    -0.033    28.827     8.805
    16   6 C        2.918    -0.038    28.957     8.824
    17   6 C        2.924    -0.030    28.752     8.793
    18   6 C        2.969    -0.009    28.229     8.715
    19   6 C        3.679     0.091    19.281     6.289
    20   8 O        1.656    -0.433    21.496     6.259
    21   1 H        0.805     0.305     0.707     1.321
    22   1 H        0.923     0.038     2.478     2.462
    23   1 H        0.924     0.077     2.008     2.216
    24   1 H        0.923     0.040     2.454     2.450
    25   1 H        0.921     0.007     2.947     2.685
    26   1 H        0.923     0.041     2.434     2.440
    27   1 H        0.923     0.034     2.535     2.490
    28   1 H        0.923     0.036     2.499     2.472
    29   1 H        0.805     0.322     0.659     1.276
    30   1 H        0.805     0.316     0.676     1.291
    31   1 H        0.805     0.309     0.696     1.310
    32   1 H        0.926     0.046     2.374     2.410
    33   1 H        0.926     0.043     2.404     2.425
    34   1 H        0.926     0.043     2.409     2.427
    35   1 H        0.926     0.070     2.090     2.261
    36   1 H        0.923     0.033     2.548     2.496
    37   1 H        0.923     0.023     2.693     2.566
    38   1 H        0.805     0.289     0.755     1.365

 Mol. C6AA /au·bohr⁶  :      14032.576726
 Mol. C8AA /au·bohr⁸  :     316345.139968
 Mol. α(0) /au        :        177.343985


Wiberg/Mayer (AO) data.
largest (>0.10) Wiberg bond orders for each atom

 ---------------------------------------------------------------------------
     #   Z sym  total        # sym  WBO       # sym  WBO       # sym  WBO
 ---------------------------------------------------------------------------
     1   8 O    1.969 --     2 C    1.017    21 H    0.890
     2   6 C    3.960 --     1 O    1.017     3 C    0.976    23 H    0.967
                            22 H    0.966
     3   6 C    3.937 --     2 C    0.976     8 C    0.970     4 O    0.958
                            24 H    0.956
     4   8 O    2.077 --     5 C    0.967     3 C    0.958
     5   6 C    3.930 --    12 O    0.991     4 O    0.967     6 C    0.951
                            25 H    0.941
     6   6 C    3.959 --    11 O    0.999     7 C    0.971    26 H    0.956
                             5 C    0.951
     7   6 C    3.963 --    10 O    0.999     6 C    0.971     8 C    0.968
                            27 H    0.956
     8   6 C    3.965 --     9 O    1.007     3 C    0.970     7 C    0.968
                            28 H    0.955
     9   8 O    1.959 --     8 C    1.007    29 H    0.879
    10   8 O    1.958 --     7 C    0.999    30 H    0.882
    11   8 O    1.959 --     6 C    0.999    31 H    0.885
    12   8 O    2.202 --    13 C    0.998     5 C    0.991
    13   6 C    3.915 --    14 C    1.407    18 C    1.336    12 O    0.998
    14   6 C    3.987 --    15 C    1.423    13 C    1.407    32 H    0.964
                            17 C    0.104
    15   6 C    3.991 --    16 C    1.453    14 C    1.423    33 H    0.970
                            18 C    0.108
    16   6 C    3.992 --    15 C    1.453    17 C    1.422    34 H    0.970
    17   6 C    3.988 --    18 C    1.439    16 C    1.422    35 H    0.964
                            14 C    0.104
    18   6 C    3.984 --    17 C    1.439    13 C    1.336    19 C    1.005
                            15 C    0.108
    19   6 C    3.960 --    18 C    1.005    20 O    1.001    36 H    0.957
                            37 H    0.957
    20   8 O    1.959 --    19 C    1.001    38 H    0.902
    21   1 H    0.907 --     1 O    0.890
    22   1 H    0.999 --     2 C    0.966
    23   1 H    0.993 --     2 C    0.967
    24   1 H    0.998 --     3 C    0.956
    25   1 H    1.000 --     5 C    0.941
    26   1 H    0.998 --     6 C    0.956
    27   1 H    0.999 --     7 C    0.956
    28   1 H    0.999 --     8 C    0.955
    29   1 H    0.897 --     9 O    0.879
    30   1 H    0.900 --    10 O    0.882
    31   1 H    0.904 --    11 O    0.885
    32   1 H    0.998 --    14 C    0.964
    33   1 H    0.998 --    15 C    0.970
    34   1 H    0.998 --    16 C    0.970
    35   1 H    0.995 --    17 C    0.964
    36   1 H    0.999 --    19 C    0.957
    37   1 H    0.999 --    19 C    0.957
    38   1 H    0.916 --    20 O    0.902
 ---------------------------------------------------------------------------

Topologies differ in total number of bonds
Writing topology from bond orders to xtbtopo.mol

molecular dipole:
                 x           y           z       tot (Debye)
 q only:        0.479       0.592      -0.557
   full:        0.681       1.083      -1.022       4.161
molecular quadrupole (traceless):
                xx          xy          yy          xz          yz          zz
 q only:       -1.828      -2.155      -1.879       1.503      -1.213       3.707
  q+dip:      -10.191      -3.128      -1.516      -0.108       1.523      11.706
   full:       -9.363      -2.912      -0.238       0.210       1.040       9.601

           -------------------------------------------------
          |                Geometry Summary                 |
           -------------------------------------------------

      molecular mass/u    :      286.2783346
   center of mass at/Å    :       -0.0121154       0.0243944      -0.0198637
  moments of inertia/u·Å² :        0.9495625E+03   0.2477027E+04   0.3207602E+04
rotational constants/cm⁻¹ :        0.1775305E-01   0.6805592E-02   0.5255524E-02

 * 38 selected distances

     #   Z          #   Z                                           value/Å
     1   8 O        2   6 C                                       1.3990886
     2   6 C        3   6 C                                       1.5322500
     3   6 C        4   8 O                                       1.4179081
     4   8 O        5   6 C                                       1.4019546
     5   6 C        6   6 C                                       1.5370978 (max)
     6   6 C        7   6 C                                       1.5298435
     3   6 C        8   6 C                                       1.5325672
     7   6 C        8   6 C                                       1.5349512
     8   6 C        9   8 O                                       1.4001504
     7   6 C       10   8 O                                       1.4056786
     6   6 C       11   8 O                                       1.4054495
     5   6 C       12   8 O                                       1.3879418
    12   8 O       13   6 C                                       1.3849536
    13   6 C       14   6 C                                       1.3844581
    14   6 C       15   6 C                                       1.3868269
    15   6 C       16   6 C                                       1.3808794
    16   6 C       17   6 C                                       1.3853957
    13   6 C       18   6 C                                       1.3995482
    17   6 C       18   6 C                                       1.3828471
    19   6 C       20   8 O                                       1.4076326
     1   8 O       21   1 H                                       0.9657044
     2   6 C       22   1 H                                       1.0984559
     2   6 C       23   1 H                                       1.0903769
     3   6 C       24   1 H                                       1.1016827
     5   6 C       25   1 H                                       1.1109872
     6   6 C       26   1 H                                       1.1012457
     7   6 C       27   1 H                                       1.1029693
     8   6 C       28   1 H                                       1.1021902
     9   8 O       29   1 H                                       0.9663050
    10   8 O       30   1 H                                       0.9648607
    11   8 O       31   1 H                                       0.9646717
    14   6 C       32   1 H                                       1.0778668
    15   6 C       33   1 H                                       1.0794952
    16   6 C       34   1 H                                       1.0790556
    17   6 C       35   1 H                                       1.0778780
    19   6 C       36   1 H                                       1.1005382
    19   6 C       37   1 H                                       1.1024349
    20   8 O       38   1 H                                       0.9620566 (min)

 * 4 distinct bonds (by element types)

   Z      Z             #   av. dist./Å        max./Å        min./Å
   1 H    6 C          13     1.0942443     1.1109872     1.0778668
   6 C    6 C          11     1.4533332     1.5370978     1.3808794
   1 H    8 O           5     0.9647197     0.9663050     0.9620566
   6 C    8 O           9     1.4011953     1.4179081     1.3849536


optimized geometry written to: xtbopt.xyz


           -------------------------------------------------
          | TOTAL ENERGY              -65.470722983779 Eh   |
          | GRADIENT NORM               0.000385538044 Eh/α |
          | HOMO-LUMO GAP               4.433078088845 eV   |
           -------------------------------------------------

------------------------------------------------------------------------
 * finished run on 2025/05/15 at 16:12:37.630     
------------------------------------------------------------------------
 total:
 * wall-time:     0 d,  0 h,  0 min,  1.143 sec
 *  cpu-time:     0 d,  0 h,  0 min,  0.781 sec
 * ratio c/w:     0.683 speedup
 SCF:
 * wall-time:     0 d,  0 h,  0 min,  0.048 sec
 *  cpu-time:     0 d,  0 h,  0 min,  0.048 sec
 * ratio c/w:     0.995 speedup
 ANC optimizer:
 * wall-time:     0 d,  0 h,  0 min,  1.081 sec
 *  cpu-time:     0 d,  0 h,  0 min,  0.722 sec
 * ratio c/w:     0.668 speedup



----- Single-point -----
      -----------------------------------------------------------      
     |                   =====================                   |     
     |                           x T B                           |     
     |                   =====================                   |     
     |                         S. Grimme                         |     
     |          Mulliken Center for Theoretical Chemistry        |     
     |                    University of Bonn                     |     
      -----------------------------------------------------------      

   * xtb version 6.7.1 (edcfbbe) compiled by 'conda@3ef47c1a292c' on 2024-11-25

   xtb is free software: you can redistribute it and/or modify it under
   the terms of the GNU Lesser General Public License as published by
   the Free Software Foundation, either version 3 of the License, or
   (at your option) any later version.
   
   xtb is distributed in the hope that it will be useful,
   but WITHOUT ANY WARRANTY; without even the implied warranty of
   MERCHANTABILITY or FITNESS FOR A PARTICULAR PURPOSE.  See the
   GNU Lesser General Public License for more details.
   
   Cite this work as:
   * C. Bannwarth, E. Caldeweyher, S. Ehlert, A. Hansen, P. Pracht,
     J. Seibert, S. Spicher, S. Grimme, WIREs Comput. Mol. Sci., 2020, 11,
     e01493. DOI: 10.1002/wcms.1493
   
   for GFN2-xTB:
   * C. Bannwarth, S. Ehlert and S. Grimme., J. Chem. Theory Comput., 2019,
     15, 1652-1671. DOI: 10.1021/acs.jctc.8b01176
   for GFN1-xTB:
   * S. Grimme, C. Bannwarth, P. Shushkov, J. Chem. Theory Comput., 2017,
     13, 1989-2009. DOI: 10.1021/acs.jctc.7b00118
   for GFN0-xTB:
   * P. Pracht, E. Caldeweyher, S. Ehlert, S. Grimme, ChemRxiv, 2019, preprint.
     DOI: 10.26434/chemrxiv.8326202.v1
   for GFN-FF:
   * S. Spicher and S. Grimme, Angew. Chem. Int. Ed., 2020, 59, 15665-15673.
     DOI: 10.1002/anie.202004239
   
   for ALPB and GBSA implicit solvation:
   * S. Ehlert, M. Stahn, S. Spicher, S. Grimme, J. Chem. Theory Comput.,
     2021, 17, 4250-4261. DOI: 10.1021/acs.jctc.1c00471
   
   for ddCOSMO and CPCM-X implicit solvation:
   * M. Stahn, S. Ehlert, S. Grimme, J. Phys. Chem. A,
     2023, XX, XXXX-XXXX. DOI: 10.1021/acs.jpca.3c04382
   
   for DFT-D4:
   * E. Caldeweyher, C. Bannwarth and S. Grimme, J. Chem. Phys., 2017,
     147, 034112. DOI: 10.1063/1.4993215
   * E. Caldeweyher, S. Ehlert, A. Hansen, H. Neugebauer, S. Spicher,
     C. Bannwarth and S. Grimme, J. Chem. Phys., 2019, 150, 154122.
     DOI: 10.1063/1.5090222
   * E. Caldeweyher, J.-M. Mewes, S. Ehlert and S. Grimme, Phys. Chem. Chem. Phys.
     2020, 22, 8499-8512. DOI: 10.1039/D0CP00502A
   
   for sTDA-xTB:
   * S. Grimme and C. Bannwarth, J. Chem. Phys., 2016, 145, 054103.
     DOI: 10.1063/1.4959605
   
   in the mass-spec context:
   * V. Asgeirsson, C. Bauer and S. Grimme, Chem. Sci., 2017, 8, 4879.
     DOI: 10.1039/c7sc00601b
   * J. Koopman and S. Grimme, ACS Omega 2019, 4, 12, 15120-15133.
     DOI: 10.1021/acsomega.9b02011
   
   for metadynamics refer to:
   * S. Grimme, J. Chem. Theory Comput., 2019, 155, 2847-2862
     DOI: 10.1021/acs.jctc.9b00143
   
   for SPH calculations refer to:
   * S. Spicher and S. Grimme, J. Chem. Theory Comput., 2021, 17, 1701-1714
     DOI: 10.1021/acs.jctc.0c01306
   
   for ONIOM refer to:
   * C. Plett, A. Katbashev, S. Ehlert, S. Grimme, M. Bursch,
     Phys. Chem. Chem. Phys., 2023, 25, 17860-17868. DOI: 10.1039/D3CP02178E
   
   for DIPRO refer to:
   * J. Kohn, N. Gildemeister, S. Grimme, D. Fazzi, A. Hansen,
     J. Chem. Phys., 2023, just accepted.
   
   for PTB refer to:
   * S. Grimme, M. Mueller, A. Hansen, J. Chem. Phys., 2023, 158, 124111.
     DOI: 10.1063/5.0137838
   
   with help from (in alphabetical order)
   P. Atkinson, C. Bannwarth, F. Bohle, G. Brandenburg, E. Caldeweyher
   M. Checinski, S. Dohm, S. Ehlert, S. Ehrlich, I. Gerasimov, C. Hölzer
   A. Katbashev, J. Kohn, J. Koopman, C. Lavigne, S. Lehtola, F. März, M. Müller,
   F. Musil, H. Neugebauer, J. Pisarek, C. Plett, P. Pracht, F. Pultar,
   J. Seibert, P. Shushkov, S. Spicher, M. Stahn, M. Steiner, T. Strunk,
   J. Stückrath, T. Rose, and J. Unsleber
   
 * started run on 2025/05/15 at 16:12:37.698     
   ID    Z sym.   atoms
    1    8 O      1, 4, 9-12, 20
    2    6 C      2, 3, 5-8, 13-19
    3    1 H      21-38

           -------------------------------------------------
          |                Calculation Setup                |
           -------------------------------------------------

          program call               : xtb /rds/general/user/hgt20/home/callum/QDESCP/Salicin_rdkit_conf_16/Salicin_rdkit_conf_16.xyz --acc 1 --gfn 2 --chrg 0 --uhf 0 --etemp 300 --input /rds/general/user/hgt20/home/callum/QDESCP/Salicin_rdkit_conf_16/Salicin_rdkit_conf_16_xtb.inp -P 1
          hostname                   : login-c
          coordinate file            : /rds/general/user/hgt20/home/callum/QDESCP/Salicin_rdkit_conf_16/Salicin_rdkit_conf_16.xyz
          omp threads                :                     1


           -------------------------------------------------
          |                 G F N 2 - x T B                 |
           -------------------------------------------------

        Reference                      10.1021/acs.jctc.8b01176
      * Hamiltonian:
        H0-scaling (s, p, d)           1.850000    2.230000    2.230000
        zeta-weighting                 0.500000
      * Dispersion:
        s8                             2.700000
        a1                             0.520000
        a2                             5.000000
        s9                             5.000000
      * Repulsion:
        kExp                           1.500000    1.000000
        rExp                           1.000000
      * Coulomb:
        alpha                          2.000000
        third order                    shell-resolved
        anisotropic                    true
        a3                             3.000000
        a5                             4.000000
        cn-shift                       1.200000
        cn-exp                         4.000000
        max-rad                        5.000000

q/qsh data taken from xtbrestart
CAMM data taken from xtbrestart

          ...................................................
          :                      SETUP                      :
          :.................................................:
          :  # basis functions                  98          :
          :  # atomic orbitals                  98          :
          :  # shells                           58          :
          :  # electrons                       112          :
          :  max. iterations                   250          :
          :  Hamiltonian                  GFN2-xTB          :
          :  restarted?                       true          :
          :  GBSA solvation                  false          :
          :  PC potential                    false          :
          :  electronic temp.          300.0000000     K    :
          :  accuracy                    1.0000000          :
          :  -> integral cutoff          0.2500000E+02      :
          :  -> integral neglect         0.1000000E-07      :
          :  -> SCF convergence          0.1000000E-05 Eh   :
          :  -> wf. convergence          0.1000000E-03 e    :
          :  Broyden damping             0.4000000          :
          :  net charge                          0          :
          :  unpaired electrons                  0          :
          ...................................................

 iter      E             dE          RMSdq      gap      omega  full diag
   1    -66.1205944 -0.661206E+02  0.111E-05    4.43       0.0  T
   2    -66.1205944 -0.120792E-11  0.670E-06    4.43    2422.5  T
   3    -66.1205944 -0.426326E-13  0.440E-06    4.43    3683.6  T

   *** convergence criteria satisfied after 3 iterations ***

         #    Occupation            Energy/Eh            Energy/eV
      -------------------------------------------------------------
         1        2.0000           -0.7442848             -20.2530
       ...           ...                  ...                  ...
        50        2.0000           -0.4293134             -11.6822
        51        2.0000           -0.4292080             -11.6793
        52        2.0000           -0.4264671             -11.6048
        53        2.0000           -0.4225878             -11.4992
        54        2.0000           -0.4162102             -11.3257
        55        2.0000           -0.4056023             -11.0370
        56        2.0000           -0.3920115             -10.6672 (HOMO)
        57                         -0.2290990              -6.2341 (LUMO)
        58                         -0.2239804              -6.0948
        59                         -0.0986470              -2.6843
        60                         -0.0339876              -0.9249
        61                         -0.0238869              -0.6500
       ...                                ...                  ...
        98                          0.6593591              17.9421
      -------------------------------------------------------------
                  HL-Gap            0.1629125 Eh            4.4331 eV
             Fermi-level           -0.3105553 Eh           -8.4506 eV

 SCC (total)                   0 d,  0 h,  0 min,  0.034 sec
 SCC setup                      ...        0 min,  0.000 sec (  0.888%)
 Dispersion                     ...        0 min,  0.000 sec (  0.986%)
 classical contributions        ...        0 min,  0.000 sec (  0.354%)
 integral evaluation            ...        0 min,  0.006 sec ( 18.913%)
 iterations                     ...        0 min,  0.006 sec ( 18.642%)
 molecular gradient             ...        0 min,  0.020 sec ( 59.663%)
 printout                       ...        0 min,  0.000 sec (  0.534%)

         :::::::::::::::::::::::::::::::::::::::::::::::::::::
         ::                     SUMMARY                     ::
         :::::::::::::::::::::::::::::::::::::::::::::::::::::
         :: total energy             -65.470722983817 Eh    ::
         :: gradient norm              0.000385512655 Eh/a0 ::
         :: HOMO-LUMO gap              4.433074688276 eV    ::
         ::.................................................::
         :: SCC energy               -66.120358045281 Eh    ::
         :: -> isotropic ES            0.150746190957 Eh    ::
         :: -> anisotropic ES         -0.003928636642 Eh    ::
         :: -> anisotropic XC         -0.002983828939 Eh    ::
         :: -> dispersion             -0.036324452767 Eh    ::
         :: repulsion energy           0.649635061464 Eh    ::
         :: add. restraining           0.000000000000 Eh    ::
         :: total charge              -0.000000000000 e     ::
         :::::::::::::::::::::::::::::::::::::::::::::::::::::

           -------------------------------------------------
          |                Property Printout                |
           -------------------------------------------------

    * Orbital Energies and Occupations

         #    Occupation            Energy/Eh            Energy/eV
      -------------------------------------------------------------
         1        2.0000           -0.7442848             -20.2530
       ...           ...                  ...                  ...
        44        2.0000           -0.4698525             -12.7853
        45        2.0000           -0.4678612             -12.7312
        46        2.0000           -0.4581841             -12.4678
        47        2.0000           -0.4504481             -12.2573
        48        2.0000           -0.4386111             -11.9352
        49        2.0000           -0.4355492             -11.8519
        50        2.0000           -0.4293134             -11.6822
        51        2.0000           -0.4292080             -11.6793
        52        2.0000           -0.4264671             -11.6048
        53        2.0000           -0.4225878             -11.4992
        54        2.0000           -0.4162102             -11.3257
        55        2.0000           -0.4056023             -11.0370
        56        2.0000           -0.3920115             -10.6672 (HOMO)
        57                         -0.2290990              -6.2341 (LUMO)
        58                         -0.2239804              -6.0948
        59                         -0.0986470              -2.6843
        60                         -0.0339876              -0.9249
        61                         -0.0238869              -0.6500
        62                          0.0068337               0.1860
        63                          0.0304318               0.8281
        64                          0.0339767               0.9246
        65                          0.0409730               1.1149
        66                          0.0583193               1.5869
        67                          0.0728300               1.9818
       ...                                ...                  ...
        98                          0.6593591              17.9421
      -------------------------------------------------------------
                  HL-Gap            0.1629125 Eh            4.4331 eV
             Fermi-level           -0.3105553 Eh           -8.4506 eV

     #   Z          covCN         q      C6AA      α(0)
     1   8 O        1.656    -0.426    21.368     6.240
     2   6 C        3.676     0.073    19.568     6.338
     3   6 C        3.756     0.096    19.051     6.223
     4   8 O        1.702    -0.338    19.672     5.988
     5   6 C        3.652     0.247    17.056     5.931
     6   6 C        3.728     0.087    19.229     6.261
     7   6 C        3.731     0.099    19.035     6.228
     8   6 C        3.729     0.095    19.109     6.241
     9   8 O        1.657    -0.438    21.598     6.274
    10   8 O        1.656    -0.443    21.694     6.288
    11   8 O        1.656    -0.443    21.695     6.288
    12   8 O        1.707    -0.297    18.942     5.876
    13   6 C        2.869     0.132    25.113     8.215
    14   6 C        2.917    -0.061    29.506     8.907
    15   6 C        2.922    -0.033    28.827     8.805
    16   6 C        2.918    -0.038    28.957     8.824
    17   6 C        2.924    -0.030    28.752     8.793
    18   6 C        2.969    -0.009    28.229     8.715
    19   6 C        3.679     0.091    19.281     6.289
    20   8 O        1.656    -0.433    21.496     6.259
    21   1 H        0.805     0.305     0.707     1.321
    22   1 H        0.923     0.038     2.478     2.462
    23   1 H        0.924     0.077     2.008     2.216
    24   1 H        0.923     0.040     2.454     2.450
    25   1 H        0.921     0.007     2.947     2.685
    26   1 H        0.923     0.041     2.434     2.440
    27   1 H        0.923     0.034     2.535     2.490
    28   1 H        0.923     0.036     2.499     2.472
    29   1 H        0.805     0.322     0.659     1.276
    30   1 H        0.805     0.316     0.676     1.291
    31   1 H        0.805     0.309     0.696     1.310
    32   1 H        0.926     0.046     2.374     2.410
    33   1 H        0.926     0.043     2.404     2.425
    34   1 H        0.926     0.043     2.409     2.427
    35   1 H        0.926     0.070     2.090     2.261
    36   1 H        0.923     0.033     2.548     2.496
    37   1 H        0.923     0.023     2.693     2.566
    38   1 H        0.805     0.289     0.755     1.365

 Mol. C6AA /au·bohr⁶  :      14032.577219
 Mol. C8AA /au·bohr⁸  :     316345.147438
 Mol. α(0) /au        :        177.343988


Wiberg/Mayer (AO) data.
largest (>0.10) Wiberg bond orders for each atom

 ---------------------------------------------------------------------------
     #   Z sym  total        # sym  WBO       # sym  WBO       # sym  WBO
 ---------------------------------------------------------------------------
     1   8 O    1.969 --     2 C    1.017    21 H    0.890
     2   6 C    3.960 --     1 O    1.017     3 C    0.976    23 H    0.967
                            22 H    0.966
     3   6 C    3.937 --     2 C    0.976     8 C    0.970     4 O    0.958
                            24 H    0.956
     4   8 O    2.077 --     5 C    0.967     3 C    0.958
     5   6 C    3.930 --    12 O    0.991     4 O    0.967     6 C    0.951
                            25 H    0.941
     6   6 C    3.959 --    11 O    0.999     7 C    0.971    26 H    0.956
                             5 C    0.951
     7   6 C    3.963 --    10 O    0.999     6 C    0.971     8 C    0.968
                            27 H    0.956
     8   6 C    3.965 --     9 O    1.007     3 C    0.970     7 C    0.968
                            28 H    0.955
     9   8 O    1.959 --     8 C    1.007    29 H    0.879
    10   8 O    1.958 --     7 C    0.999    30 H    0.882
    11   8 O    1.959 --     6 C    0.999    31 H    0.885
    12   8 O    2.202 --    13 C    0.998     5 C    0.991
    13   6 C    3.915 --    14 C    1.407    18 C    1.336    12 O    0.998
    14   6 C    3.987 --    15 C    1.423    13 C    1.407    32 H    0.964
                            17 C    0.104
    15   6 C    3.991 --    16 C    1.453    14 C    1.423    33 H    0.970
                            18 C    0.108
    16   6 C    3.992 --    15 C    1.453    17 C    1.422    34 H    0.970
    17   6 C    3.988 --    18 C    1.439    16 C    1.422    35 H    0.964
                            14 C    0.104
    18   6 C    3.984 --    17 C    1.439    13 C    1.336    19 C    1.005
                            15 C    0.108
    19   6 C    3.960 --    18 C    1.005    20 O    1.001    36 H    0.957
                            37 H    0.957
    20   8 O    1.959 --    19 C    1.001    38 H    0.902
    21   1 H    0.907 --     1 O    0.890
    22   1 H    0.999 --     2 C    0.966
    23   1 H    0.993 --     2 C    0.967
    24   1 H    0.998 --     3 C    0.956
    25   1 H    1.000 --     5 C    0.941
    26   1 H    0.998 --     6 C    0.956
    27   1 H    0.999 --     7 C    0.956
    28   1 H    0.999 --     8 C    0.955
    29   1 H    0.897 --     9 O    0.879
    30   1 H    0.900 --    10 O    0.882
    31   1 H    0.904 --    11 O    0.885
    32   1 H    0.998 --    14 C    0.964
    33   1 H    0.998 --    15 C    0.970
    34   1 H    0.998 --    16 C    0.970
    35   1 H    0.995 --    17 C    0.964
    36   1 H    0.999 --    19 C    0.957
    37   1 H    0.999 --    19 C    0.957
    38   1 H    0.916 --    20 O    0.902
[...]
   
   Cite this work as:
   * C. Bannwarth, E. Caldeweyher, S. Ehlert, A. Hansen, P. Pracht,
     J. Seibert, S. Spicher, S. Grimme, WIREs Comput. Mol. Sci., 2020, 11,
     e01493. DOI: 10.1002/wcms.1493
   
   for GFN2-xTB:
   * C. Bannwarth, S. Ehlert and S. Grimme., J. Chem. Theory Comput., 2019,
     15, 1652-1671. DOI: 10.1021/acs.jctc.8b01176
   for GFN1-xTB:
   * S. Grimme, C. Bannwarth, P. Shushkov, J. Chem. Theory Comput., 2017,
     13, 1989-2009. DOI: 10.1021/acs.jctc.7b00118
   for GFN0-xTB:
   * P. Pracht, E. Caldeweyher, S. Ehlert, S. Grimme, ChemRxiv, 2019, preprint.
     DOI: 10.26434/chemrxiv.8326202.v1
   for GFN-FF:
   * S. Spicher and S. Grimme, Angew. Chem. Int. Ed., 2020, 59, 15665-15673.
     DOI: 10.1002/anie.202004239
   
   for ALPB and GBSA implicit solvation:
   * S. Ehlert, M. Stahn, S. Spicher, S. Grimme, J. Chem. Theory Comput.,
     2021, 17, 4250-4261. DOI: 10.1021/acs.jctc.1c00471
   
   for ddCOSMO and CPCM-X implicit solvation:
   * M. Stahn, S. Ehlert, S. Grimme, J. Phys. Chem. A,
     2023, XX, XXXX-XXXX. DOI: 10.1021/acs.jpca.3c04382
   
   for DFT-D4:
   * E. Caldeweyher, C. Bannwarth and S. Grimme, J. Chem. Phys., 2017,
     147, 034112. DOI: 10.1063/1.4993215
   * E. Caldeweyher, S. Ehlert, A. Hansen, H. Neugebauer, S. Spicher,
     C. Bannwarth and S. Grimme, J. Chem. Phys., 2019, 150, 154122.
     DOI: 10.1063/1.5090222
   * E. Caldeweyher, J.-M. Mewes, S. Ehlert and S. Grimme, Phys. Chem. Chem. Phys.
     2020, 22, 8499-8512. DOI: 10.1039/D0CP00502A
   
   for sTDA-xTB:
   * S. Grimme and C. Bannwarth, J. Chem. Phys., 2016, 145, 054103.
     DOI: 10.1063/1.4959605
   
   in the mass-spec context:
   * V. Asgeirsson, C. Bauer and S. Grimme, Chem. Sci., 2017, 8, 4879.
     DOI: 10.1039/c7sc00601b
   * J. Koopman and S. Grimme, ACS Omega 2019, 4, 12, 15120-15133.
     DOI: 10.1021/acsomega.9b02011
   
   for metadynamics refer to:
   * S. Grimme, J. Chem. Theory Comput., 2019, 155, 2847-2862
     DOI: 10.1021/acs.jctc.9b00143
   
   for SPH calculations refer to:
   * S. Spicher and S. Grimme, J. Chem. Theory Comput., 2021, 17, 1701-1714
     DOI: 10.1021/acs.jctc.0c01306
   
   for ONIOM refer to:
   * C. Plett, A. Katbashev, S. Ehlert, S. Grimme, M. Bursch,
     Phys. Chem. Chem. Phys., 2023, 25, 17860-17868. DOI: 10.1039/D3CP02178E
   
   for DIPRO refer to:
   * J. Kohn, N. Gildemeister, S. Grimme, D. Fazzi, A. Hansen,
     J. Chem. Phys., 2023, just accepted.
   
   for PTB refer to:
   * S. Grimme, M. Mueller, A. Hansen, J. Chem. Phys., 2023, 158, 124111.
     DOI: 10.1063/5.0137838
   
   with help from (in alphabetical order)
   P. Atkinson, C. Bannwarth, F. Bohle, G. Brandenburg, E. Caldeweyher
   M. Checinski, S. Dohm, S. Ehlert, S. Ehrlich, I. Gerasimov, C. Hölzer
   A. Katbashev, J. Kohn, J. Koopman, C. Lavigne, S. Lehtola, F. März, M. Müller,
   F. Musil, H. Neugebauer, J. Pisarek, C. Plett, P. Pracht, F. Pultar,
   J. Seibert, P. Shushkov, S. Spicher, M. Stahn, M. Steiner, T. Strunk,
   J. Stückrath, T. Rose, and J. Unsleber
   
 * started run on 2025/05/15 at 16:12:39.583     
   ID    Z sym.   atoms
    1    8 O      1, 4, 9-12, 20
    2    6 C      2, 3, 5-8, 13-19
    3    1 H      21-38

           -------------------------------------------------
          |                Calculation Setup                |
           -------------------------------------------------

          program call               : xtb /rds/general/user/hgt20/home/callum/QDESCP/Salicin_rdkit_conf_16/Salicin_rdkit_conf_16.xyz --acc 1 --gfn 2 --chrg 0 --uhf 2 --etemp 300 --input /rds/general/user/hgt20/home/callum/QDESCP/Salicin_rdkit_conf_16/Salicin_rdkit_conf_16_xtb.inp -P 1
          hostname                   : login-c
          coordinate file            : /rds/general/user/hgt20/home/callum/QDESCP/Salicin_rdkit_conf_16/Salicin_rdkit_conf_16.xyz
          omp threads                :                     1


           -------------------------------------------------
          |                 G F N 2 - x T B                 |
           -------------------------------------------------

        Reference                      10.1021/acs.jctc.8b01176
      * Hamiltonian:
        H0-scaling (s, p, d)           1.850000    2.230000    2.230000
        zeta-weighting                 0.500000
      * Dispersion:
        s8                             2.700000
        a1                             0.520000
        a2                             5.000000
        s9                             5.000000
      * Repulsion:
        kExp                           1.500000    1.000000
        rExp                           1.000000
      * Coulomb:
        alpha                          2.000000
        third order                    shell-resolved
        anisotropic                    true
        a3                             3.000000
        a5                             4.000000
        cn-shift                       1.200000
        cn-exp                         4.000000
        max-rad                        5.000000


          ...................................................
          :                      SETUP                      :
          :.................................................:
          :  # basis functions                  98          :
          :  # atomic orbitals                  98          :
          :  # shells                           58          :
          :  # electrons                       112          :
          :  max. iterations                   250          :
          :  Hamiltonian                  GFN2-xTB          :
          :  restarted?                      false          :
          :  GBSA solvation                  false          :
          :  PC potential                    false          :
          :  electronic temp.          300.0000000     K    :
          :  accuracy                    1.0000000          :
          :  -> integral cutoff          0.2500000E+02      :
          :  -> integral neglect         0.1000000E-07      :
          :  -> SCF convergence          0.1000000E-05 Eh   :
          :  -> wf. convergence          0.1000000E-03 e    :
          :  Broyden damping             0.4000000          :
          :  net charge                          0          :
          :  unpaired electrons                  2          :
          ...................................................

 iter      E             dE          RMSdq      gap      omega  full diag
   1    -65.8477799 -0.658478E+02  0.452E+00    0.31       0.0  T
   2    -65.7796755  0.681044E-01  0.363E+00    0.71       1.0  T
   3    -65.8448339 -0.651584E-01  0.252E+00    0.73       1.0  T
   4    -65.9443938 -0.995599E-01  0.581E-01    0.06       1.0  T
   5    -65.9471697 -0.277583E-02  0.528E-01    0.11       1.0  T
   6    -65.9505139 -0.334428E-02  0.407E-01    0.06       1.0  T
   7    -65.9487342  0.177974E-02  0.495E-01    0.14       1.0  T
   8    -65.9528575 -0.412327E-02  0.181E-01    0.08       1.0  T
   9    -65.9533019 -0.444388E-03  0.119E-01    0.08       1.0  T
  10    -65.9535490 -0.247168E-03  0.492E-02    0.08       1.0  T
  11    -65.9535884 -0.393314E-04  0.108E-02    0.07       1.5  T
  12    -65.9535905 -0.215602E-05  0.339E-03    0.07       4.8  T
  13    -65.9535906 -0.111676E-06  0.201E-03    0.07       8.1  T
  14    -65.9535907 -0.749817E-07  0.569E-04    0.07      28.5  T
  15    -65.9535907 -0.381847E-08  0.331E-04    0.07      49.0  T

   *** convergence criteria satisfied after 15 iterations ***

         #    Occupation            Energy/Eh            Energy/eV
      -------------------------------------------------------------
         1        2.0000           -0.7524864             -20.4762
       ...           ...                  ...                  ...
        51        2.0000           -0.4289728             -11.6729
        52        2.0000           -0.4256138             -11.5815
        53        2.0000           -0.4210550             -11.4575
        54        2.0000           -0.4170470             -11.3484
        55        1.9830           -0.3966759             -10.7941
        56        1.0170           -0.3889657             -10.5843
        57        0.8091           -0.2193388              -5.9685 (HOMO)
        58        0.1909           -0.2165948              -5.8938 (LUMO)
        59                         -0.0897256              -2.4416
        60                         -0.0375462              -1.0217
        61                         -0.0281847              -0.7669
        62                          0.0033778               0.0919
       ...                                ...                  ...
        98                          0.6674719              18.1628
      -------------------------------------------------------------
                  HL-Gap            0.0027439 Eh            0.0747 eV
             Fermi-level           -0.3053938 Eh           -8.3102 eV

 transition dipole moment (au) for excitation:          56          57
     X       Y       Z   
   1.2554   0.0822  -0.5422  total (au/Debye):    1.370   3.482
 dE (eV)             :    4.616
 oscillator strength :  0.30015E+00

 SCC (total)                   0 d,  0 h,  0 min,  0.104 sec
 SCC setup                      ...        0 min,  0.000 sec (  0.299%)
 Dispersion                     ...        0 min,  0.000 sec (  0.367%)
 classical contributions        ...        0 min,  0.000 sec (  0.115%)
 integral evaluation            ...        0 min,  0.006 sec (  6.147%)
 iterations                     ...        0 min,  0.026 sec ( 24.814%)
 molecular gradient             ...        0 min,  0.065 sec ( 62.779%)
 printout                       ...        0 min,  0.006 sec (  5.471%)

         :::::::::::::::::::::::::::::::::::::::::::::::::::::
         ::                     SUMMARY                     ::
         :::::::::::::::::::::::::::::::::::::::::::::::::::::
         :: total energy             -65.303719262636 Eh    ::
         :: gradient norm              0.146587960028 Eh/a0 ::
         :: HOMO-LUMO gap              0.074665605561 eV    ::
         ::.................................................::
         :: SCC energy               -65.953354324100 Eh    ::
         :: -> isotropic ES            0.147879994494 Eh    ::
         :: -> anisotropic ES         -0.002124923859 Eh    ::
         :: -> anisotropic XC         -0.003420899656 Eh    ::
         :: -> dispersion             -0.036297514264 Eh    ::
         :: repulsion energy           0.649635061464 Eh    ::
         :: add. restraining           0.000000000000 Eh    ::
         :: total charge               0.000000000009 e     ::
         :::::::::::::::::::::::::::::::::::::::::::::::::::::

           -------------------------------------------------
          |                Property Printout                |
           -------------------------------------------------

    * Orbital Energies and Occupations

         #    Occupation            Energy/Eh            Energy/eV
      -------------------------------------------------------------
         1        2.0000           -0.7524864             -20.4762
       ...           ...                  ...                  ...
        45        2.0000           -0.4639881             -12.6258
        46        2.0000           -0.4595016             -12.5037
        47        2.0000           -0.4522651             -12.3068
        48        2.0000           -0.4389722             -11.9450
        49        2.0000           -0.4337554             -11.8031
        50        2.0000           -0.4325978             -11.7716
        51        2.0000           -0.4289728             -11.6729
        52        2.0000           -0.4256138             -11.5815
        53        2.0000           -0.4210550             -11.4575
        54        2.0000           -0.4170470             -11.3484
        55        1.9830           -0.3966759             -10.7941
        56        1.0170           -0.3889657             -10.5843
        57        0.8091           -0.2193388              -5.9685 (HOMO)
        58        0.1909           -0.2165948              -5.8938 (LUMO)
        59                         -0.0897256              -2.4416
        60                         -0.0375462              -1.0217
        61                         -0.0281847              -0.7669
        62                          0.0033778               0.0919
        63                          0.0270087               0.7349
        64                          0.0312274               0.8497
        65                          0.0366876               0.9983
        66                          0.0541945               1.4747
        67                          0.0696701               1.8958
        68                          0.0729124               1.9840
       ...                                ...                  ...
        98                          0.6674719              18.1628
      -------------------------------------------------------------
                  HL-Gap            0.0027439 Eh            0.0747 eV
             Fermi-level           -0.3053938 Eh           -8.3102 eV

     #   Z          covCN         q      C6AA      α(0)
     1   8 O        1.656    -0.425    21.346     6.237
     2   6 C        3.676     0.073    19.570     6.338
     3   6 C        3.756     0.095    19.061     6.225
     4   8 O        1.702    -0.333    19.587     5.975
     5   6 C        3.652     0.244    17.093     5.938
     6   6 C        3.728     0.087    19.236     6.262
     7   6 C        3.731     0.099    19.040     6.229
     8   6 C        3.729     0.094    19.114     6.241
     9   8 O        1.657    -0.437    21.580     6.271
    10   8 O        1.656    -0.442    21.677     6.285
    11   8 O        1.656    -0.442    21.675     6.285
    12   8 O        1.707    -0.270    18.476     5.804
    13   6 C        2.869     0.130    25.154     8.221
    14   6 C        2.917    -0.074    29.836     8.957
    15   6 C        2.922    -0.049    29.215     8.864
    16   6 C        2.918    -0.029    28.716     8.788
    17   6 C        2.924    -0.047    29.169     8.857
    18   6 C        2.969    -0.021    28.528     8.761
    19   6 C        3.679     0.089    19.308     6.294
    20   8 O        1.656    -0.420    21.243     6.222
    21   1 H        0.805     0.306     0.703     1.317
    22   1 H        0.923     0.038     2.471     2.458
    23   1 H        0.924     0.078     1.996     2.209
    24   1 H        0.923     0.042     2.425     2.435
    25   1 H        0.921     0.016     2.798     2.616
    26   1 H        0.923     0.042     2.427     2.436
    27   1 H        0.923     0.035     2.520     2.482
    28   1 H        0.923     0.037     2.490     2.468
    29   1 H        0.805     0.322     0.658     1.274
    30   1 H        0.805     0.316     0.675     1.290
    31   1 H        0.805     0.308     0.698     1.312
    32   1 H        0.926     0.035     2.519     2.482
    33   1 H        0.926     0.032     2.555     2.500
    34   1 H        0.926     0.038     2.480     2.463
    35   1 H        0.926     0.058     2.217     2.328
    36   1 H        0.923     0.046     2.372     2.408
    37   1 H        0.923     0.036     2.505     2.475
    38   1 H        0.805     0.292     0.744     1.355

 Mol. C6AA /au·bohr⁶  :      14031.247354
 Mol. C8AA /au·bohr⁸  :     316478.671557
 Mol. α(0) /au        :        177.363007


Wiberg/Mayer (AO) data.
largest (>0.10) Wiberg bond orders for each atom

 ---------------------------------------------------------------------------
     #   Z sym  total        # sym  WBO       # sym  WBO       # sym  WBO
 ---------------------------------------------------------------------------
     1   8 O    1.970 --     2 C    1.018    21 H    0.889
     2   6 C    3.959 --     1 O    1.018     3 C    0.975    23 H    0.967
                            22 H    0.966
     3   6 C    3.935 --     2 C    0.975     8 C    0.970     4 O    0.956
                            24 H    0.956
     4   8 O    2.078 --     5 C    0.968     3 C    0.956
     5   6 C    3.927 --    12 O    0.988     4 O    0.968     6 C    0.951
                            25 H    0.937
     6   6 C    3.958 --    11 O    0.999     7 C    0.971    26 H    0.956
                             5 C    0.951
     7   6 C    3.962 --    10 O    1.000     6 C    0.971     8 C    0.968
                            27 H    0.955
     8   6 C    3.965 --     9 O    1.008     3 C    0.970     7 C    0.968
                            28 H    0.955
     9   8 O    1.959 --     8 C    1.008    29 H    0.878
    10   8 O    1.958 --     7 C    1.000    30 H    0.882
    11   8 O    1.960 --     6 C    0.999    31 H    0.886
    12   8 O    2.259 --    13 C    1.060     5 C    0.988
    13   6 C    3.655 --    14 C    1.344    12 O    1.060    18 C    1.029
                            15 C    0.129
    14   6 C    3.866 --    15 C    1.400    13 C    1.344    32 H    0.965
    15   6 C    3.706 --    14 C    1.400    16 C    1.097    33 H    0.971
                            13 C    0.129
    16   6 C    3.736 --    17 C    1.431    15 C    1.097    34 H    0.971
                            18 C    0.144
    17   6 C    3.865 --    16 C    1.431    18 C    1.338    35 H    0.965
    18   6 C    3.681 --    17 C    1.338    19 C    1.030    13 C    1.029
                            16 C    0.144
    19   6 C    3.956 --    18 C    1.030    20 O    1.007    36 H    0.933
                            37 H    0.932
    20   8 O    1.993 --    19 C    1.007    38 H    0.900
    21   1 H    0.906 --     1 O    0.889
    22   1 H    0.999 --     2 C    0.966
    23   1 H    0.993 --     2 C    0.967
    24   1 H    0.998 --     3 C    0.956
    25   1 H    0.999 --     5 C    0.937
    26   1 H    0.998 --     6 C    0.956
    27   1 H    0.999 --     7 C    0.955
    28   1 H    0.999 --     8 C    0.955
    29   1 H    0.896 --     9 O    0.878
    30   1 H    0.900 --    10 O    0.882
    31   1 H    0.905 --    11 O    0.886
    32   1 H    0.998 --    14 C    0.965
    33   1 H    0.999 --    15 C    0.971
    34   1 H    0.998 --    16 C    0.971
    35   1 H    0.996 --    17 C    0.965
    36   1 H    0.992 --    19 C    0.933
    37   1 H    0.993 --    19 C    0.932
    38   1 H    0.914 --    20 O    0.900
 ---------------------------------------------------------------------------

Topologies differ in total number of bonds
Writing topology from bond orders to xtbtopo.mol

molecular dipole:
                 x           y           z       tot (Debye)
 q only:        0.279       0.784      -0.951
   full:        0.493       1.293      -1.460       5.113
molecular quadrupole (traceless):
                xx          xy          yy          xz          yz          zz
 q only:       -2.172      -0.666      -1.267      -1.687      -0.747       3.440
  q+dip:      -11.440      -1.579      -0.446      -3.100       1.935      11.886
   full:      -10.121      -1.354       0.579      -3.007       1.469       9.542


           -------------------------------------------------
          | TOTAL ENERGY              -65.303719262636 Eh   |
          | GRADIENT NORM               0.146587960028 Eh/α |
          | HOMO-LUMO GAP               0.074665605561 eV   |
           -------------------------------------------------

------------------------------------------------------------------------
 * finished run on 2025/05/15 at 16:12:39.699     
------------------------------------------------------------------------
 total:
 * wall-time:     0 d,  0 h,  0 min,  0.116 sec
 *  cpu-time:     0 d,  0 h,  0 min,  0.069 sec
 * ratio c/w:     0.599 speedup
 SCF:
 * wall-time:     0 d,  0 h,  0 min,  0.104 sec
 *  cpu-time:     0 d,  0 h,  0 min,  0.059 sec
 * ratio c/w:     0.565 speedup


