----- Optimization -----
      -----------------------------------------------------------      
     |                   =====================                   |     
     |                           x T B                           |     
     |                   =====================                   |     
     |                         S. Grimme                         |     
     |          Mulliken Center for Theoretical Chemistry        |     
     |                    University of Bonn                     |     
      -----------------------------------------------------------      

   * xtb version 6.7.1 (edcfbbe) compiled by 'conda@3ef47c1a292c' on 2024-11-25

   xtb is free software: you can redistribute it and/or modify it under
   the terms of the GNU Lesser General Public License as published by
   the Free Software Foundation, either version 3 of the License, or
   (at your option) any later version.
   
   xtb is distributed in the hope that it will be useful,
   but WITHOUT ANY WARRANTY; without even the implied warranty of
   MERCHANTABILITY or FITNESS FOR A PARTICULAR PURPOSE.  See the
   GNU Lesser General Public License for more details.
   
   Cite this work as:
   * C. Bannwarth, E. Caldeweyher, S. Ehlert, A. Hansen, P. Pracht,
     J. Seibert, S. Spicher, S. Grimme, WIREs Comput. Mol. Sci., 2020, 11,
     e01493. DOI: 10.1002/wcms.1493
   
   for GFN2-xTB:
   * C. Bannwarth, S. Ehlert and S. Grimme., J. Chem. Theory Comput., 2019,
     15, 1652-1671. DOI: 10.1021/acs.jctc.8b01176
   for GFN1-xTB:
   * S. Grimme, C. Bannwarth, P. Shushkov, J. Chem. Theory Comput., 2017,
     13, 1989-2009. DOI: 10.1021/acs.jctc.7b00118
   for GFN0-xTB:
   * P. Pracht, E. Caldeweyher, S. Ehlert, S. Grimme, ChemRxiv, 2019, preprint.
     DOI: 10.26434/chemrxiv.8326202.v1
   for GFN-FF:
   * S. Spicher and S. Grimme, Angew. Chem. Int. Ed., 2020, 59, 15665-15673.
     DOI: 10.1002/anie.202004239
   
   for ALPB and GBSA implicit solvation:
   * S. Ehlert, M. Stahn, S. Spicher, S. Grimme, J. Chem. Theory Comput.,
     2021, 17, 4250-4261. DOI: 10.1021/acs.jctc.1c00471
   
   for ddCOSMO and CPCM-X implicit solvation:
   * M. Stahn, S. Ehlert, S. Grimme, J. Phys. Chem. A,
     2023, XX, XXXX-XXXX. DOI: 10.1021/acs.jpca.3c04382
   
   for DFT-D4:
   * E. Caldeweyher, C. Bannwarth and S. Grimme, J. Chem. Phys., 2017,
     147, 034112. DOI: 10.1063/1.4993215
   * E. Caldeweyher, S. Ehlert, A. Hansen, H. Neugebauer, S. Spicher,
     C. Bannwarth and S. Grimme, J. Chem. Phys., 2019, 150, 154122.
     DOI: 10.1063/1.5090222
   * E. Caldeweyher, J.-M. Mewes, S. Ehlert and S. Grimme, Phys. Chem. Chem. Phys.
     2020, 22, 8499-8512. DOI: 10.1039/D0CP00502A
   
   for sTDA-xTB:
   * S. Grimme and C. Bannwarth, J. Chem. Phys., 2016, 145, 054103.
     DOI: 10.1063/1.4959605
   
   in the mass-spec context:
   * V. Asgeirsson, C. Bauer and S. Grimme, Chem. Sci., 2017, 8, 4879.
     DOI: 10.1039/c7sc00601b
   * J. Koopman and S. Grimme, ACS Omega 2019, 4, 12, 15120-15133.
     DOI: 10.1021/acsomega.9b02011
   
   for metadynamics refer to:
   * S. Grimme, J. Chem. Theory Comput., 2019, 155, 2847-2862
     DOI: 10.1021/acs.jctc.9b00143
   
   for SPH calculations refer to:
   * S. Spicher and S. Grimme, J. Chem. Theory Comput., 2021, 17, 1701-1714
     DOI: 10.1021/acs.jctc.0c01306
   
   for ONIOM refer to:
   * C. Plett, A. Katbashev, S. Ehlert, S. Grimme, M. Bursch,
     Phys. Chem. Chem. Phys., 2023, 25, 17860-17868. DOI: 10.1039/D3CP02178E
   
   for DIPRO refer to:
   * J. Kohn, N. Gildemeister, S. Grimme, D. Fazzi, A. Hansen,
     J. Chem. Phys., 2023, just accepted.
   
   for PTB refer to:
   * S. Grimme, M. Mueller, A. Hansen, J. Chem. Phys., 2023, 158, 124111.
     DOI: 10.1063/5.0137838
   
   with help from (in alphabetical order)
   P. Atkinson, C. Bannwarth, F. Bohle, G. Brandenburg, E. Caldeweyher
   M. Checinski, S. Dohm, S. Ehlert, S. Ehrlich, I. Gerasimov, C. Hölzer
   A. Katbashev, J. Kohn, J. Koopman, C. Lavigne, S. Lehtola, F. März, M. Müller,
   F. Musil, H. Neugebauer, J. Pisarek, C. Plett, P. Pracht, F. Pultar,
   J. Seibert, P. Shushkov, S. Spicher, M. Stahn, M. Steiner, T. Strunk,
   J. Stückrath, T. Rose, and J. Unsleber
   
 * started run on 2025/05/15 at 16:27:40.528     
   ID    Z sym.   atoms
    1    9 F      1
    2    6 C      2-11, 13-16, 18, 20-26
    3    7 N      12, 17, 19
    4    8 O      27-29
    5    1 H      30-51

           -------------------------------------------------
          |                Calculation Setup                |
           -------------------------------------------------

          program call               : xtb /rds/general/user/hgt20/home/callum/QDESCP/Ketanserin_rdkit_conf_5/Ketanserin_rdkit_conf_5.xyz --opt normal --acc 1 --gfn 2 --chrg 0 --uhf 0 -P 1
          hostname                   : login-c
          coordinate file            : /rds/general/user/hgt20/home/callum/QDESCP/Ketanserin_rdkit_conf_5/Ketanserin_rdkit_conf_5.xyz
          omp threads                :                     1


           -------------------------------------------------
          |                 G F N 2 - x T B                 |
           -------------------------------------------------

        Reference                      10.1021/acs.jctc.8b01176
      * Hamiltonian:
        H0-scaling (s, p, d)           1.850000    2.230000    2.230000
        zeta-weighting                 0.500000
      * Dispersion:
        s8                             2.700000
        a1                             0.520000
        a2                             5.000000
        s9                             5.000000
      * Repulsion:
        kExp                           1.500000    1.000000
        rExp                           1.000000
      * Coulomb:
        alpha                          2.000000
        third order                    shell-resolved
        anisotropic                    true
        a3                             3.000000
        a5                             4.000000
        cn-shift                       1.200000
        cn-exp                         4.000000
        max-rad                        5.000000


          ...................................................
          :                      SETUP                      :
          :.................................................:
          :  # basis functions                 138          :
          :  # atomic orbitals                 138          :
          :  # shells                           80          :
          :  # electrons                       150          :
          :  max. iterations                   250          :
          :  Hamiltonian                  GFN2-xTB          :
          :  restarted?                      false          :
          :  GBSA solvation                  false          :
          :  PC potential                    false          :
          :  electronic temp.          300.0000000     K    :
          :  accuracy                    1.0000000          :
          :  -> integral cutoff          0.2500000E+02      :
          :  -> integral neglect         0.1000000E-07      :
          :  -> SCF convergence          0.1000000E-05 Eh   :
          :  -> wf. convergence          0.1000000E-03 e    :
          :  Broyden damping             0.4000000          :
          :  net charge                          0          :
          :  unpaired electrons                  0          :
          ...................................................

 iter      E             dE          RMSdq      gap      omega  full diag
   1    -84.9901918 -0.849902E+02  0.424E+00    2.44       0.0  T
   2    -85.1515390 -0.161347E+00  0.244E+00    1.93       1.0  T
   3    -85.1610915 -0.955250E-02  0.137E+00    1.86       1.0  T
   4    -85.1750284 -0.139369E-01  0.313E-01    1.46       1.0  T
   5    -85.1784295 -0.340112E-02  0.929E-02    1.48       1.0  T
   6    -85.1785461 -0.116617E-03  0.494E-02    1.52       1.0  T
   7    -85.1786013 -0.551583E-04  0.192E-02    1.52       1.0  T
   8    -85.1786027 -0.145314E-05  0.794E-03    1.52       1.8  T
   9    -85.1786038 -0.108446E-05  0.346E-03    1.52       4.0  T
  10    -85.1786039 -0.124444E-06  0.116E-03    1.52      12.0  T
  11    -85.1786039 -0.196087E-07  0.606E-04    1.52      23.1  T
  12    -85.1786039 -0.385140E-08  0.189E-04    1.52      74.1  T

   *** convergence criteria satisfied after 12 iterations ***

         #    Occupation            Energy/Eh            Energy/eV
      -------------------------------------------------------------
         1        2.0000           -0.8288118             -22.5531
       ...           ...                  ...                  ...
        69        2.0000           -0.4263527             -11.6016
        70        2.0000           -0.4234302             -11.5221
        71        2.0000           -0.4215123             -11.4699
        72        2.0000           -0.4083598             -11.1120
        73        2.0000           -0.4054371             -11.0325
        74        2.0000           -0.3934883             -10.7074
        75        2.0000           -0.3474634              -9.4550 (HOMO)
        76                         -0.2915402              -7.9332 (LUMO)
        77                         -0.2804902              -7.6325
        78                         -0.2546981              -6.9307
        79                         -0.2522233              -6.8633
        80                         -0.2219611              -6.0399
       ...                                ...                  ...
       138                          0.6668272              18.1453
      -------------------------------------------------------------
                  HL-Gap            0.0559232 Eh            1.5217 eV
             Fermi-level           -0.3195018 Eh           -8.6941 eV

 SCC (total)                   0 d,  0 h,  0 min,  0.177 sec
 SCC setup                      ...        0 min,  0.001 sec (  0.292%)
 Dispersion                     ...        0 min,  0.001 sec (  0.392%)
 classical contributions        ...        0 min,  0.000 sec (  0.121%)
 integral evaluation            ...        0 min,  0.052 sec ( 29.440%)
 iterations                     ...        0 min,  0.039 sec ( 22.226%)
 molecular gradient             ...        0 min,  0.084 sec ( 47.382%)
 printout                       ...        0 min,  0.000 sec (  0.142%)

         :::::::::::::::::::::::::::::::::::::::::::::::::::::
         ::                     SUMMARY                     ::
         :::::::::::::::::::::::::::::::::::::::::::::::::::::
         :: total energy             -84.095528455231 Eh    ::
         :: gradient norm              0.086188419243 Eh/a0 ::
         :: HOMO-LUMO gap              1.521747752603 eV    ::
         ::.................................................::
         :: SCC energy               -85.178752003249 Eh    ::
         :: -> isotropic ES            0.117106368008 Eh    ::
         :: -> anisotropic ES          0.004754020825 Eh    ::
         :: -> anisotropic XC          0.029661816755 Eh    ::
         :: -> dispersion             -0.056373447205 Eh    ::
         :: repulsion energy           1.083223548018 Eh    ::
         :: add. restraining           0.000000000000 Eh    ::
         :: total charge              -0.000000000000 e     ::
         :::::::::::::::::::::::::::::::::::::::::::::::::::::

      ----------------------------------------------------------- 
     |                   =====================                   |
     |                        A N C O P T                        |
     |                   =====================                   |
     |               Approximate Normal Coordinate               |
     |                Rational Function Optimizer                |
      ----------------------------------------------------------- 
      ----------------------------------------------------------- 
     |                   =====================                   |
     |                        A N C O P T                        |
     |                   =====================                   |
     |               Approximate Normal Coordinate               |
     |                Rational Function Optimizer                |
      ----------------------------------------------------------- 

          ...................................................
          :                      SETUP                      :
          :.................................................:
          :   optimization level            normal          :
          :   max. optcycles                   200          :
          :   ANC micro-cycles                  20          :
          :   degrees of freedom               147          :
          :.................................................:
          :   RF solver                   davidson          :
          :   write xtbopt.log                true          :
          :   linear?                        false          :
          :   energy convergence         0.5000000E-05 Eh   :
          :   grad. convergence          0.1000000E-02 Eh/α :
          :   maxmium RF displ.          1.0000000          :
          :   Hlow (freq-cutoff)         0.1000000E-01      :
          :   Hmax (freq-cutoff)         5.0000000          :
          :   S6 in model hess.         20.0000000          :
          ...................................................

generating ANC from exact Hessian ...
Using Lindh-Hessian (1995)
 Shifting diagonal of input Hessian by    9.8576771339682848E-003
 Lowest  eigenvalues of input Hessian
    0.000000    0.000000    0.000000    0.000000    0.000000    0.000000
    0.010000    0.010133    0.010412    0.010485    0.010826    0.011056
    0.012316    0.013134    0.014519    0.014913    0.016319    0.016687
 Highest eigenvalues
    2.031314    2.046505    2.091003    2.102442    2.298153    2.471710


........................................................................
.............................. CYCLE    1 ..............................
........................................................................

 iter      E             dE          RMSdq      gap      omega  full diag
   1    -85.1786039 -0.851786E+02  0.689E-05    1.52       0.0  T
   2    -85.1786039 -0.429452E-10  0.421E-05    1.52     332.8  T
   3    -85.1786039 -0.202220E-10  0.267E-05    1.52     523.8  T
     SCC iter.                  ...        0 min,  0.010 sec
     gradient                   ...        0 min,  0.078 sec
 * total energy  :   -84.0955285 Eh     change       -0.5105676E-09 Eh
   gradient norm :     0.0861885 Eh/α   predicted     0.0000000E+00 (-100.00%)
   displ. norm   :     0.2904168 α      lambda       -0.1175095E-01
   maximum displ.:     0.1090772 α      in ANC's #45, #9, #54, ...

........................................................................
.............................. CYCLE    2 ..............................
........................................................................

 iter      E             dE          RMSdq      gap      omega  full diag
   1    -85.2274018 -0.852274E+02  0.172E-01    1.53       0.0  T
   2    -85.2275294 -0.127540E-03  0.101E-01    1.53       1.0  T
   3    -85.2275117  0.176154E-04  0.390E-02    1.53       1.0  T
   4    -85.2275422 -0.304775E-04  0.931E-03    1.52       1.5  T
   5    -85.2275457 -0.345436E-05  0.315E-03    1.53       4.4  T
   6    -85.2275458 -0.155966E-06  0.153E-03    1.53       9.1  T
   7    -85.2275459 -0.250608E-07  0.578E-04    1.53      24.2  T
   8    -85.2275459 -0.365787E-08  0.236E-04    1.53      59.4  T
     SCC iter.                  ...        0 min,  0.025 sec
     gradient                   ...        0 min,  0.084 sec
 * total energy  :   -84.1033960 Eh     change       -0.7867566E-02 Eh
   gradient norm :     0.0322937 Eh/α   predicted    -0.6378513E-02 ( -18.93%)
   displ. norm   :     0.2692756 α      lambda       -0.3098872E-02
   maximum displ.:     0.1331511 α      in ANC's #9, #13, #14, ...

........................................................................
.............................. CYCLE    3 ..............................
........................................................................

 iter      E             dE          RMSdq      gap      omega  full diag
   1    -85.2490464 -0.852490E+02  0.992E-02    1.50       0.0  T
   2    -85.2490898 -0.434441E-04  0.573E-02    1.50       1.0  T
   3    -85.2490829  0.690907E-05  0.250E-02    1.51       1.0  T
   4    -85.2490954 -0.125328E-04  0.541E-03    1.51       2.6  T
   5    -85.2490967 -0.123605E-05  0.174E-03    1.51       8.1  T
   6    -85.2490967 -0.473015E-07  0.837E-04    1.51      16.7  T
   7    -85.2490967 -0.701348E-08  0.326E-04    1.51      43.0  T
     SCC iter.                  ...        0 min,  0.067 sec
     gradient                   ...        0 min,  0.033 sec
 * total energy  :   -84.1052644 Eh     change       -0.1868411E-02 Eh
   gradient norm :     0.0097160 Eh/α   predicted    -0.1662854E-02 ( -11.00%)
   displ. norm   :     0.2019922 α      lambda       -0.6872314E-03
   maximum displ.:     0.1228632 α      in ANC's #9, #13, #14, ...

........................................................................
.............................. CYCLE    4 ..............................
........................................................................

 iter      E             dE          RMSdq      gap      omega  full diag
   1    -85.2510928 -0.852511E+02  0.451E-02    1.48       0.0  T
   2    -85.2510962 -0.345472E-05  0.262E-02    1.48       1.0  T
   3    -85.2510945  0.169750E-05  0.862E-03    1.48       1.6  T
   4    -85.2510969 -0.235787E-05  0.167E-03    1.48       8.4  T
   5    -85.2510970 -0.957616E-07  0.721E-04    1.48      19.4  T
   6    -85.2510970 -0.408275E-08  0.317E-04    1.48      44.2  T
     SCC iter.                  ...        0 min,  0.064 sec
     gradient                   ...        0 min,  0.033 sec
 * total energy  :   -84.1057426 Eh     change       -0.4781591E-03 Eh
   gradient norm :     0.0065506 Eh/α   predicted    -0.3576436E-03 ( -25.20%)
   displ. norm   :     0.2304609 α      lambda       -0.4425603E-03
   maximum displ.:     0.1463391 α      in ANC's #9, #13, #4, ...

........................................................................
.............................. CYCLE    5 ..............................
........................................................................

 iter      E             dE          RMSdq      gap      omega  full diag
   1    -85.2501602 -0.852502E+02  0.459E-02    1.46       0.0  T
   2    -85.2501620 -0.184217E-05  0.268E-02    1.46       1.0  T
   3    -85.2501617  0.345092E-06  0.440E-03    1.47       3.2  T
   4    -85.2501623 -0.610209E-06  0.133E-03    1.47      10.5  T
   5    -85.2501623 -0.371161E-07  0.657E-04    1.47      21.3  T
   6    -85.2501623 -0.319176E-08  0.226E-04    1.47      62.0  T
     SCC iter.                  ...        0 min,  0.019 sec
     gradient                   ...        0 min,  0.084 sec
 * total energy  :   -84.1060086 Eh     change       -0.2660036E-03 Eh
   gradient norm :     0.0051956 Eh/α   predicted    -0.2330376E-03 ( -12.39%)
   displ. norm   :     0.1155438 α      lambda       -0.1223891E-03
   maximum displ.:     0.0673591 α      in ANC's #9, #4, #18, ...

........................................................................
.............................. CYCLE    6 ..............................
........................................................................

 iter      E             dE          RMSdq      gap      omega  full diag
   1    -85.2496150 -0.852496E+02  0.241E-02    1.47       0.0  T
   2    -85.2496156 -0.554971E-06  0.141E-02    1.47       1.0  T
   3    -85.2496153  0.309216E-06  0.310E-03    1.47       4.5  T
   4    -85.2496157 -0.403948E-06  0.813E-04    1.47      17.2  T
   5    -85.2496157 -0.202391E-07  0.344E-04    1.47      40.8  T
     SCC iter.                  ...        0 min,  0.016 sec
     gradient                   ...        0 min,  0.084 sec
 * total energy  :   -84.1060877 Eh     change       -0.7914916E-04 Eh
   gradient norm :     0.0034249 Eh/α   predicted    -0.6201166E-04 ( -21.65%)
   displ. norm   :     0.0973234 α      lambda       -0.6434951E-04
   maximum displ.:     0.0531458 α      in ANC's #4, #9, #3, ...

........................................................................
.............................. CYCLE    7 ..............................
........................................................................

 iter      E             dE          RMSdq      gap      omega  full diag
   1    -85.2497584 -0.852498E+02  0.201E-02    1.47       0.0  T
   2    -85.2497589 -0.473512E-06  0.117E-02    1.47       1.2  T
   3    -85.2497587  0.209164E-06  0.284E-03    1.47       4.9  T
   4    -85.2497589 -0.277194E-06  0.654E-04    1.47      21.4  T
   5    -85.2497590 -0.154279E-07  0.262E-04    1.47      53.5  T
     SCC iter.                  ...        0 min,  0.016 sec
     gradient                   ...        0 min,  0.078 sec
 * total energy  :   -84.1061339 Eh     change       -0.4610637E-04 Eh
   gradient norm :     0.0020578 Eh/α   predicted    -0.3248271E-04 ( -29.55%)
   displ. norm   :     0.1062886 α      lambda       -0.4902532E-04
   maximum displ.:     0.0638869 α      in ANC's #4, #3, #6, ...

........................................................................
.............................. CYCLE    8 ..............................
........................................................................

 iter      E             dE          RMSdq      gap      omega  full diag
   1    -85.2502814 -0.852503E+02  0.229E-02    1.48       0.0  T
   2    -85.2502818 -0.452901E-06  0.134E-02    1.48       1.0  T
   3    -85.2502817  0.118206E-06  0.224E-03    1.48       6.2  T
   4    -85.2502819 -0.169614E-06  0.592E-04    1.48      23.7  T
   5    -85.2502819 -0.120446E-07  0.261E-04    1.48      53.7  T
     SCC iter.                  ...        0 min,  0.016 sec
     gradient                   ...        0 min,  0.084 sec
 * total energy  :   -84.1061712 Eh     change       -0.3732305E-04 Eh
   gradient norm :     0.0021294 Eh/α   predicted    -0.2479390E-04 ( -33.57%)
   displ. norm   :     0.1365492 α      lambda       -0.4893113E-04
   maximum displ.:     0.0822360 α      in ANC's #4, #6, #3, ...

........................................................................
.............................. CYCLE    9 ..............................
........................................................................

 iter      E             dE          RMSdq      gap      omega  full diag
   1    -85.2506523 -0.852507E+02  0.315E-02    1.48       0.0  T
   2    -85.2506526 -0.326473E-06  0.185E-02    1.48       1.0  T
   3    -85.2506526 -0.257643E-09  0.144E-03    1.48       9.7  T
   4    -85.2506526 -0.648975E-07  0.561E-04    1.48      25.0  T
   5    -85.2506526 -0.374047E-08  0.330E-04    1.48      42.5  T
     SCC iter.                  ...        0 min,  0.067 sec
     gradient                   ...        0 min,  0.033 sec
 * total energy  :   -84.1062115 Eh     change       -0.4031490E-04 Eh
   gradient norm :     0.0027479 Eh/α   predicted    -0.2492559E-04 ( -38.17%)
   displ. norm   :     0.1942995 α      lambda       -0.6485003E-04
   maximum displ.:     0.1155966 α      in ANC's #4, #6, #3, ...

........................................................................
.............................. CYCLE   10 ..............................
........................................................................

 iter      E             dE          RMSdq      gap      omega  full diag
   1    -85.2507397 -0.852507E+02  0.479E-02    1.49       0.0  T
   2    -85.2507401 -0.373686E-06  0.281E-02    1.49       1.0  T
   3    -85.2507401 -0.739371E-07  0.157E-03    1.49       8.9  T
   4    -85.2507402 -0.657306E-07  0.825E-04    1.49      17.0  T
   5    -85.2507402 -0.473551E-08  0.443E-04    1.49      31.6  T
     SCC iter.                  ...        0 min,  0.052 sec
     gradient                   ...        0 min,  0.033 sec
 * total energy  :   -84.1062677 Eh     change       -0.5624196E-04 Eh
   gradient norm :     0.0030114 Eh/α   predicted    -0.3364936E-04 ( -40.17%)
   displ. norm   :     0.3068992 α      lambda       -0.9897869E-04
   maximum displ.:     0.1803056 α      in ANC's #4, #6, #3, ...

........................................................................
.............................. CYCLE   11 ..............................
........................................................................

 iter      E             dE          RMSdq      gap      omega  full diag
   1    -85.2501447 -0.852501E+02  0.784E-02    1.49       0.0  T
   2    -85.2501458 -0.109170E-05  0.461E-02    1.49       1.0  T
   3    -85.2501458 -0.114481E-07  0.327E-03    1.49       4.3  T
   4    -85.2501462 -0.396076E-06  0.147E-03    1.49       9.5  T
   5    -85.2501463 -0.226397E-07  0.775E-04    1.49      18.1  T
   6    -85.2501463 -0.805245E-08  0.275E-04    1.49      50.8  T
     SCC iter.                  ...        0 min,  0.019 sec
     gradient                   ...        0 min,  0.084 sec
 * total energy  :   -84.1063522 Eh     change       -0.8444311E-04 Eh
   gradient norm :     0.0033668 Eh/α   predicted    -0.5415362E-04 ( -35.87%)
   displ. norm   :     0.4040172 α      lambda       -0.1229191E-03
   maximum displ.:     0.2359680 α      in ANC's #4, #6, #3, ...

........................................................................
.............................. CYCLE   12 ..............................
........................................................................

 iter      E             dE          RMSdq      gap      omega  full diag
   1    -85.2488782 -0.852489E+02  0.105E-01    1.49       0.0  T
   2    -85.2488806 -0.238304E-05  0.616E-02    1.49       1.0  T
   3    -85.2488800  0.649082E-06  0.566E-03    1.49       2.5  T
   4    -85.2488814 -0.144300E-05  0.209E-03    1.49       6.7  T
   5    -85.2488815 -0.642236E-07  0.112E-03    1.49      12.5  T
   6    -85.2488815 -0.123728E-07  0.416E-04    1.49      33.7  T
   7    -85.2488815 -0.217936E-08  0.173E-04    1.49      81.1  T
     SCC iter.                  ...        0 min,  0.022 sec
     gradient                   ...        0 min,  0.078 sec
 * total energy  :   -84.1064485 Eh     change       -0.9629524E-04 Eh
   gradient norm :     0.0051304 Eh/α   predicted    -0.7149170E-04 ( -25.76%)
   displ. norm   :     0.3810033 α      lambda       -0.1192363E-03
   maximum displ.:     0.2219340 α      in ANC's #4, #3, #6, ...

........................................................................
.............................. CYCLE   13 ..............................
........................................................................

 iter      E             dE          RMSdq      gap      omega  full diag
   1    -85.2483254 -0.852483E+02  0.989E-02    1.49       0.0  T
   2    -85.2483274 -0.200756E-05  0.581E-02    1.50       1.0  T
   3    -85.2483264  0.968150E-06  0.597E-03    1.50       2.3  T
   4    -85.2483281 -0.168733E-05  0.197E-03    1.50       7.1  T
   5    -85.2483282 -0.601373E-07  0.105E-03    1.50      13.3  T
   6    -85.2483282 -0.820711E-08  0.337E-04    1.50      41.5  T
   7    -85.2483282 -0.125856E-08  0.153E-04    1.50      91.3  T
     SCC iter.                  ...        0 min,  0.073 sec
     gradient                   ...        0 min,  0.033 sec
 * total energy  :   -84.1065396 Eh     change       -0.9111108E-04 Eh
   gradient norm :     0.0057524 Eh/α   predicted    -0.6827317E-04 ( -25.07%)
   displ. norm   :     0.3036253 α      lambda       -0.1290625E-03
   maximum displ.:     0.1720178 α      in ANC's #4, #3, #6, ...

........................................................................
.............................. CYCLE   14 ..............................
........................................................................

 iter      E             dE          RMSdq      gap      omega  full diag
   1    -85.2497973 -0.852498E+02  0.794E-02    1.51       0.0  T
   2    -85.2497985 -0.120162E-05  0.466E-02    1.51       1.0  T
   3    -85.2497982  0.237381E-06  0.395E-03    1.51       3.5  T
   4    -85.2497989 -0.629896E-06  0.146E-03    1.51       9.6  T
   5    -85.2497989 -0.293551E-07  0.821E-04    1.51      17.1  T
   6    -85.2497989 -0.463834E-08  0.247E-04    1.51      56.7  T
     SCC iter.                  ...        0 min,  0.070 sec
     gradient                   ...        0 min,  0.033 sec
 * total energy  :   -84.1066364 Eh     change       -0.9678259E-04 Eh
   gradient norm :     0.0042207 Eh/α   predicted    -0.7048153E-04 ( -27.18%)
   displ. norm   :     0.4107290 α      lambda       -0.1229536E-03
   maximum displ.:     0.2324231 α      in ANC's #4, #3, #6, ...

........................................................................
.............................. CYCLE   15 ..............................
........................................................................

 iter      E             dE          RMSdq      gap      omega  full diag
   1    -85.2488332 -0.852488E+02  0.109E-01    1.51       0.0  T
   2    -85.2488361 -0.299101E-05  0.642E-02    1.52       1.0  T
   3    -85.2488353  0.877329E-06  0.594E-03    1.52       2.4  T
   4    -85.2488369 -0.167080E-05  0.201E-03    1.52       7.0  T
   5    -85.2488370 -0.720566E-07  0.111E-03    1.52      12.6  T
   6    -85.2488370 -0.130749E-07  0.502E-04    1.52      27.9  T
   7    -85.2488370 -0.315738E-08  0.157E-04    1.52      89.4  T
     SCC iter.                  ...        0 min,  0.022 sec
     gradient                   ...        0 min,  0.084 sec
 * total energy  :   -84.1067182 Eh     change       -0.8179203E-04 Eh
   gradient norm :     0.0068855 Eh/α   predicted    -0.7184894E-04 ( -12.16%)
   displ. norm   :     0.2711815 α      lambda       -0.1394685E-03
   maximum displ.:     0.1543734 α      in ANC's #3, #4, #6, ...

........................................................................
.............................. CYCLE   16 ..............................
........................................................................

 iter      E             dE          RMSdq      gap      omega  full diag
   1    -85.2519400 -0.852519E+02  0.702E-02    1.55       0.0  T
   2    -85.2519423 -0.236768E-05  0.413E-02    1.55       1.0  T
   3    -85.2519416  0.726262E-06  0.516E-03    1.55       2.7  T
   4    -85.2519427 -0.112462E-05  0.125E-03    1.55      11.2  T
   5    -85.2519428 -0.309904E-07  0.705E-04    1.55      19.9  T
   6    -85.2519428 -0.175741E-08  0.304E-04    1.55      46.0  T
     SCC iter.                  ...        0 min,  0.019 sec
     gradient                   ...        0 min,  0.084 sec
 * total energy  :   -84.1067921 Eh     change       -0.7394738E-04 Eh
   gradient norm :     0.0038873 Eh/α   predicted    -0.7486277E-04 (   1.24%)
   displ. norm   :     0.2873000 α      lambda       -0.6859472E-04
   maximum displ.:     0.1590939 α      in ANC's #3, #4, #6, ...

........................................................................
.............................. CYCLE   17 ..............................
........................................................................

 iter      E             dE          RMSdq      gap      omega  full diag
   1    -85.2501548 -0.852502E+02  0.772E-02    1.55       0.0  T
   2    -85.2501563 -0.146845E-05  0.455E-02    1.55       1.0  T
   3    -85.2501540  0.230802E-05  0.713E-03    1.56       2.0  T
   4    -85.2501569 -0.294827E-05  0.146E-03    1.56       9.6  T
   5    -85.2501569 -0.279847E-07  0.826E-04    1.56      17.0  T
   6    -85.2501570 -0.612572E-08  0.349E-04    1.56      40.1  T
     SCC iter.                  ...        0 min,  0.064 sec
     gradient                   ...        0 min,  0.033 sec
 * total energy  :   -84.1068407 Eh     change       -0.4859899E-04 Eh
   gradient norm :     0.0041788 Eh/α   predicted    -0.3713314E-04 ( -23.59%)
   displ. norm   :     0.1984501 α      lambda       -0.7472748E-04
   maximum displ.:     0.1184871 α      in ANC's #3, #4, #6, ...

........................................................................
.............................. CYCLE   18 ..............................
........................................................................

 iter      E             dE          RMSdq      gap      omega  full diag
   1    -85.2507905 -0.852508E+02  0.535E-02    1.57       0.0  T
   2    -85.2507911 -0.674814E-06  0.315E-02    1.57       1.0  T
   3    -85.2507903  0.857382E-06  0.419E-03    1.57       3.3  T
   4    -85.2507914 -0.110583E-05  0.102E-03    1.57      13.7  T
   5    -85.2507914 -0.238388E-07  0.539E-04    1.57      26.0  T
   6    -85.2507914 -0.125219E-08  0.176E-04    1.57      79.5  T
     SCC iter.                  ...        0 min,  0.065 sec
     gradient                   ...        0 min,  0.033 sec
 * total energy  :   -84.1068967 Eh     change       -0.5601553E-04 Eh
   gradient norm :     0.0037567 Eh/α   predicted    -0.3883680E-04 ( -30.67%)
   displ. norm   :     0.1880167 α      lambda       -0.6603032E-04
   maximum displ.:     0.1152738 α      in ANC's #3, #5, #4, ...

........................................................................
.............................. CYCLE   19 ..............................
........................................................................

 iter      E             dE          RMSdq      gap      omega  full diag
   1    -85.2514735 -0.852515E+02  0.493E-02    1.59       0.0  T
   2    -85.2514742 -0.758442E-06  0.290E-02    1.59       1.0  T
   3    -85.2514738  0.390685E-06  0.323E-03    1.59       4.3  T
   4    -85.2514744 -0.543640E-06  0.892E-04    1.59      15.7  T
   5    -85.2514744 -0.230483E-07  0.445E-04    1.59      31.5  T
     SCC iter.                  ...        0 min,  0.016 sec
     gradient                   ...        0 min,  0.084 sec
 * total energy  :   -84.1069439 Eh     change       -0.4720777E-04 Eh
   gradient norm :     0.0024990 Eh/α   predicted    -0.3418374E-04 ( -27.59%)
   displ. norm   :     0.1827042 α      lambda       -0.4349086E-04
   maximum displ.:     0.1136857 α      in ANC's #3, #5, #4, ...

........................................................................
.............................. CYCLE   20 ..............................
........................................................................

 iter      E             dE          RMSdq      gap      omega  full diag
   1    -85.2518662 -0.852519E+02  0.473E-02    1.60       0.0  T
   2    -85.2518666 -0.357718E-06  0.278E-02    1.60       1.0  T
   3    -85.2518662  0.362209E-06  0.297E-03    1.60       4.7  T
   4    -85.2518667 -0.508946E-06  0.758E-04    1.60      18.5  T
   5    -85.2518667 -0.895699E-08  0.404E-04    1.60      34.7  T
     SCC iter.                  ...        0 min,  0.016 sec
     gradient                   ...        0 min,  0.072 sec
 * total energy  :   -84.1069794 Eh     change       -0.3549809E-04 Eh
   gradient norm :     0.0028077 Eh/α   predicted    -0.2247263E-04 ( -36.69%)
   displ. norm   :     0.2176493 α      lambda       -0.5351860E-04
   maximum displ.:     0.1372375 α      in ANC's #3, #5, #1, ...
 * RMSD in coord.:     0.5233349 α      energy gain  -0.1145097E-01 Eh

generating ANC from exact Hessian ...
Using Lindh-Hessian (1995)
 Shifting diagonal of input Hessian by    9.8554357905288829E-003
 Lowest  eigenvalues of input Hessian
    0.000000    0.000000    0.000000    0.000000    0.000000    0.000000
    0.010000    0.010132    0.010401    0.010501    0.010991    0.011249
    0.012404    0.013380    0.014748    0.015259    0.016567    0.017247
 Highest eigenvalues
    2.077096    2.106191    2.142824    2.187887    2.377082    2.550916


........................................................................
.............................. CYCLE   21 ..............................
........................................................................

 iter      E             dE          RMSdq      gap      omega  full diag
   1    -85.2519579 -0.852520E+02  0.532E-02    1.61       0.0  T
   2    -85.2519586 -0.666834E-06  0.313E-02    1.61       1.0  T
   3    -85.2519576  0.100348E-05  0.485E-03    1.61       2.9  T
   4    -85.2519588 -0.125384E-05  0.863E-04    1.61      16.2  T
   5    -85.2519588 -0.120605E-07  0.444E-04    1.61      31.5  T
   6    -85.2519588 -0.861590E-09  0.170E-04    1.61      82.5  T
     SCC iter.                  ...        0 min,  0.058 sec
     gradient                   ...        0 min,  0.033 sec
 * total energy  :   -84.1070226 Eh     change       -0.4313934E-04 Eh
   gradient norm :     0.0024578 Eh/α   predicted     0.0000000E+00 (-100.00%)
   displ. norm   :     0.0293279 α      lambda       -0.1406651E-04
   maximum displ.:     0.0151603 α      in ANC's #1, #5, #3, ...

........................................................................
.............................. CYCLE   22 ..............................
........................................................................

 iter      E             dE          RMSdq      gap      omega  full diag
   1    -85.2519772 -0.852520E+02  0.761E-03    1.60       0.0  T
   2    -85.2519772 -0.514761E-07  0.449E-03    1.61       3.1  T
   3    -85.2519772  0.269635E-07  0.887E-04    1.61      15.8  T
   4    -85.2519772 -0.348345E-07  0.214E-04    1.61      65.5  T
     SCC iter.                  ...        0 min,  0.057 sec
     gradient                   ...        0 min,  0.033 sec
 * total energy  :   -84.1070380 Eh     change       -0.1540548E-04 Eh
   gradient norm :     0.0012700 Eh/α   predicted    -0.9055675E-05 ( -41.22%)
   displ. norm   :     0.1477002 α      lambda       -0.3982319E-04
   maximum displ.:     0.0762186 α      in ANC's #1, #5, #3, ...

........................................................................
.............................. CYCLE   23 ..............................
........................................................................

 iter      E             dE          RMSdq      gap      omega  full diag
   1    -85.2519575 -0.852520E+02  0.349E-02    1.59       0.0  T
   2    -85.2519581 -0.605273E-06  0.205E-02    1.59       1.0  T
   3    -85.2519577  0.403938E-06  0.331E-03    1.59       4.2  T
   4    -85.2519582 -0.521995E-06  0.847E-04    1.59      16.5  T
   5    -85.2519583 -0.220704E-07  0.367E-04    1.59      38.2  T
     SCC iter.                  ...        0 min,  0.061 sec
     gradient                   ...        0 min,  0.033 sec
 * total energy  :   -84.1070666 Eh     change       -0.2865289E-04 Eh
   gradient norm :     0.0028153 Eh/α   predicted    -0.2010498E-04 ( -29.83%)
   displ. norm   :     0.0335584 α      lambda       -0.1112036E-04
   maximum displ.:     0.0198964 α      in ANC's #1, #3, #5, ...

........................................................................
.............................. CYCLE   24 ..............................
........................................................................

 iter      E             dE          RMSdq      gap      omega  full diag
   1    -85.2520435 -0.852520E+02  0.769E-03    1.59       0.0  T
   2    -85.2520435 -0.146866E-07  0.451E-03    1.59       3.1  T
   3    -85.2520435  0.473932E-08  0.430E-04    1.59      32.6  T
   4    -85.2520435 -0.813463E-08  0.124E-04    1.59     112.8  T
     SCC iter.                  ...        0 min,  0.052 sec
     gradient                   ...        0 min,  0.033 sec
 * total energy  :   -84.1070769 Eh     change       -0.1028338E-04 Eh
   gradient norm :     0.0021862 Eh/α   predicted    -0.5566706E-05 ( -45.87%)
   displ. norm   :     0.1263729 α      lambda       -0.3938506E-04
   maximum displ.:     0.0728007 α      in ANC's #1, #3, #5, ...

........................................................................
.............................. CYCLE   25 ..............................
........................................................................

 iter      E             dE          RMSdq      gap      omega  full diag
   1    -85.2522284 -0.852522E+02  0.297E-02    1.60       0.0  T
   2    -85.2522286 -0.225942E-06  0.175E-02    1.60       1.0  T
   3    -85.2522285  0.908241E-07  0.179E-03    1.60       7.8  T
   4    -85.2522286 -0.144922E-06  0.462E-04    1.60      30.3  T
   5    -85.2522286 -0.373961E-08  0.240E-04    1.60      58.2  T
     SCC iter.                  ...        0 min,  0.062 sec
     gradient                   ...        0 min,  0.033 sec
 * total energy  :   -84.1071057 Eh     change       -0.2884008E-04 Eh
   gradient norm :     0.0010131 Eh/α   predicted    -0.2003403E-04 ( -30.53%)
   displ. norm   :     0.2183229 α      lambda       -0.2438114E-04
   maximum displ.:     0.1269668 α      in ANC's #1, #3, #5, ...

........................................................................
.............................. CYCLE   26 ..............................
........................................................................

 iter      E             dE          RMSdq      gap      omega  full diag
   1    -85.2520501 -0.852521E+02  0.513E-02    1.61       0.0  T
   2    -85.2520504 -0.298080E-06  0.301E-02    1.61       1.0  T
   3    -85.2520504 -0.291564E-09  0.166E-03    1.61       8.5  T
   4    -85.2520506 -0.104683E-06  0.663E-04    1.61      21.1  T
   5    -85.2520506 -0.489408E-08  0.320E-04    1.61      43.8  T
     SCC iter.                  ...        0 min,  0.017 sec
     gradient                   ...        0 min,  0.033 sec
 * total energy  :   -84.1071297 Eh     change       -0.2396421E-04 Eh
   gradient norm :     0.0027022 Eh/α   predicted    -0.1244892E-04 ( -48.05%)
   displ. norm   :     0.0904240 α      lambda       -0.1514746E-04
   maximum displ.:     0.0541592 α      in ANC's #1, #3, #4, ...

........................................................................
.............................. CYCLE   27 ..............................
........................................................................

 iter      E             dE          RMSdq      gap      omega  full diag
   1    -85.2521484 -0.852521E+02  0.216E-02    1.61       0.0  T
   2    -85.2521485 -0.465566E-07  0.127E-02    1.61       1.1  T
   3    -85.2521484  0.306236E-07  0.972E-04    1.61      14.4  T
   4    -85.2521485 -0.514922E-07  0.276E-04    1.61      50.7  T
     SCC iter.                  ...        0 min,  0.013 sec
     gradient                   ...        0 min,  0.033 sec
 * total energy  :   -84.1071436 Eh     change       -0.1389487E-04 Eh
   gradient norm :     0.0022577 Eh/α   predicted    -0.7636906E-05 ( -45.04%)
   displ. norm   :     0.1701946 α      lambda       -0.3307120E-04
   maximum displ.:     0.1028243 α      in ANC's #1, #3, #4, ...

........................................................................
.............................. CYCLE   28 ..............................
........................................................................

 iter      E             dE          RMSdq      gap      omega  full diag
   1    -85.2522948 -0.852523E+02  0.421E-02    1.61       0.0  T
   2    -85.2522950 -0.208819E-06  0.248E-02    1.61       1.0  T
   3    -85.2522947  0.279100E-06  0.253E-03    1.61       5.5  T
   4    -85.2522951 -0.370503E-06  0.526E-04    1.61      26.6  T
   5    -85.2522951 -0.369846E-08  0.272E-04    1.61      51.6  T
     SCC iter.                  ...        0 min,  0.016 sec
     gradient                   ...        0 min,  0.078 sec
 * total energy  :   -84.1071712 Eh     change       -0.2761210E-04 Eh
   gradient norm :     0.0007817 Eh/α   predicted    -0.1701838E-04 ( -38.37%)
   displ. norm   :     0.3638870 α      lambda       -0.3607161E-04
   maximum displ.:     0.2217598 α      in ANC's #1, #3, #4, ...

........................................................................
.............................. CYCLE   29 ..............................
........................................................................

 iter      E             dE          RMSdq      gap      omega  full diag
   1    -85.2517642 -0.852518E+02  0.910E-02    1.62       0.0  T
   2    -85.2517650 -0.789881E-06  0.535E-02    1.62       1.0  T
   3    -85.2517639  0.110299E-05  0.518E-03    1.62       2.7  T
   4    -85.2517654 -0.149459E-05  0.105E-03    1.62      13.4  T
   5    -85.2517654 -0.837477E-08  0.506E-04    1.62      27.7  T
   6    -85.2517654 -0.134018E-08  0.154E-04    1.62      91.1  T
     SCC iter.                  ...        0 min,  0.019 sec
     gradient                   ...        0 min,  0.075 sec
 * total energy  :   -84.1072100 Eh     change       -0.3875422E-04 Eh
   gradient norm :     0.0020392 Eh/α   predicted    -0.1909790E-04 ( -50.72%)
   displ. norm   :     0.1735046 α      lambda       -0.2183798E-04
   maximum displ.:     0.1077051 α      in ANC's #1, #3, #4, ...

........................................................................
.............................. CYCLE   30 ..............................
........................................................................

 iter      E             dE          RMSdq      gap      omega  full diag
   1    -85.2519415 -0.852519E+02  0.442E-02    1.63       0.0  T
   2    -85.2519416 -0.157163E-06  0.260E-02    1.63       1.0  T
   3    -85.2519414  0.242328E-06  0.239E-03    1.63       5.9  T
   4    -85.2519417 -0.328850E-06  0.468E-04    1.62      29.9  T
   5    -85.2519417 -0.727653E-09  0.186E-04    1.63      75.3  T
     SCC iter.                  ...        0 min,  0.016 sec
     gradient                   ...        0 min,  0.075 sec
 * total energy  :   -84.1072297 Eh     change       -0.1978059E-04 Eh
   gradient norm :     0.0020076 Eh/α   predicted    -0.1125292E-04 ( -43.11%)
   displ. norm   :     0.2530573 α      lambda       -0.3630872E-04
   maximum displ.:     0.1576764 α      in ANC's #1, #3, #4, ...

........................................................................
.............................. CYCLE   31 ..............................
........................................................................

 iter      E             dE          RMSdq      gap      omega  full diag
   1    -85.2522864 -0.852523E+02  0.660E-02    1.64       0.0  T
   2    -85.2522867 -0.375289E-06  0.388E-02    1.63       1.0  T
   3    -85.2522861  0.627410E-06  0.381E-03    1.64       3.7  T
   4    -85.2522869 -0.831844E-06  0.713E-04    1.63      19.6  T
   5    -85.2522869 -0.203841E-08  0.324E-04    1.63      43.2  T
     SCC iter.                  ...        0 min,  0.016 sec
     gradient                   ...        0 min,  0.078 sec
 * total energy  :   -84.1072608 Eh     change       -0.3106711E-04 Eh
   gradient norm :     0.0012728 Eh/α   predicted    -0.1931734E-04 ( -37.82%)
   displ. norm   :     0.4758629 α      lambda       -0.3904926E-04
   maximum displ.:     0.2984608 α      in ANC's #1, #3, #4, ...

........................................................................
.............................. CYCLE   32 ..............................
........................................................................

 iter      E             dE          RMSdq      gap      omega  full diag
   1    -85.2516111 -0.852516E+02  0.125E-01    1.66       0.0  T
   2    -85.2516125 -0.143051E-05  0.735E-02    1.65       1.0  T
   3    -85.2516096  0.288440E-05  0.810E-03    1.65       1.7  T
   4    -85.2516133 -0.370770E-05  0.139E-03    1.65      10.1  T
   5    -85.2516134 -0.799982E-08  0.679E-04    1.65      20.6  T
   6    -85.2516134 -0.161472E-08  0.202E-04    1.65      69.4  T
     SCC iter.                  ...        0 min,  0.019 sec
     gradient                   ...        0 min,  0.072 sec
 * total energy  :   -84.1073000 Eh     change       -0.3917728E-04 Eh
   gradient norm :     0.0015458 Eh/α   predicted    -0.2149107E-04 ( -45.14%)
   displ. norm   :     0.2157746 α      lambda       -0.1902996E-04
   maximum displ.:     0.1404261 α      in ANC's #1, #3, #2, ...

........................................................................
.............................. CYCLE   33 ..............................
........................................................................

 iter      E             dE          RMSdq      gap      omega  full diag
   1    -85.2529135 -0.852529E+02  0.561E-02    1.67       0.0  T
   2    -85.2529139 -0.372976E-06  0.330E-02    1.66       1.0  T
   3    -85.2529130  0.815516E-06  0.407E-03    1.67       3.4  T
   4    -85.2529141 -0.102617E-05  0.719E-04    1.66      19.5  T
   5    -85.2529141 -0.360474E-08  0.397E-04    1.66      35.3  T
   6    -85.2529141 -0.787097E-09  0.122E-04    1.66     114.9  T
     SCC iter.                  ...        0 min,  0.019 sec
     gradient                   ...        0 min,  0.072 sec
 * total energy  :   -84.1073220 Eh     change       -0.2203373E-04 Eh
   gradient norm :     0.0013565 Eh/α   predicted    -0.9716950E-05 ( -55.90%)
   displ. norm   :     0.3523615 α      lambda       -0.2614256E-04
   maximum displ.:     0.2293018 α      in ANC's #1, #3, #2, ...

........................................................................
.............................. CYCLE   34 ..............................
........................................................................

 iter      E             dE          RMSdq      gap      omega  full diag
   1    -85.2522720 -0.852523E+02  0.906E-02    1.68       0.0  T
   2    -85.2522729 -0.850203E-06  0.532E-02    1.68       1.0  T
   3    -85.2522708  0.211404E-05  0.673E-03    1.68       2.1  T
   4    -85.2522734 -0.266149E-05  0.111E-03    1.68      12.6  T
   5    -85.2522734 -0.472660E-08  0.574E-04    1.68      24.4  T
   6    -85.2522734 -0.197787E-08  0.144E-04    1.68      97.4  T
     SCC iter.                  ...        0 min,  0.019 sec
     gradient                   ...        0 min,  0.072 sec
 * total energy  :   -84.1073539 Eh     change       -0.3184101E-04 Eh
   gradient norm :     0.0015406 Eh/α   predicted    -0.1379499E-04 ( -56.68%)
   displ. norm   :     0.3505554 α      lambda       -0.3197530E-04
   maximum displ.:     0.2303343 α      in ANC's #1, #3, #2, ...

........................................................................
.............................. CYCLE   35 ..............................
........................................................................

 iter      E             dE          RMSdq      gap      omega  full diag
   1    -85.2525984 -0.852526E+02  0.873E-02    1.70       0.0  T
   2    -85.2525994 -0.100655E-05  0.513E-02    1.70       1.0  T
   3    -85.2525970  0.245763E-05  0.709E-03    1.70       2.0  T
   4    -85.2526001 -0.309167E-05  0.124E-03    1.70      11.3  T
   5    -85.2526001 -0.823682E-08  0.679E-04    1.70      20.6  T
   6    -85.2526001 -0.327964E-08  0.177E-04    1.70      79.2  T
     SCC iter.                  ...        0 min,  0.019 sec
     gradient                   ...        0 min,  0.072 sec
 * total energy  :   -84.1073896 Eh     change       -0.3576747E-04 Eh
   gradient norm :     0.0014342 Eh/α   predicted    -0.1686164E-04 ( -52.86%)
   displ. norm   :     0.3361199 α      lambda       -0.2082446E-04
   maximum displ.:     0.2238998 α      in ANC's #1, #3, #2, ...

........................................................................
.............................. CYCLE   36 ..............................
........................................................................

 iter      E             dE          RMSdq      gap      omega  full diag
   1    -85.2520197 -0.852520E+02  0.813E-02    1.71       0.0  T
   2    -85.2520205 -0.856190E-06  0.478E-02    1.71       1.0  T
   3    -85.2520183  0.221833E-05  0.686E-03    1.71       2.0  T
   4    -85.2520211 -0.277802E-05  0.112E-03    1.71      12.5  T
   5    -85.2520211 -0.465251E-08  0.564E-04    1.71      24.8  T
   6    -85.2520211 -0.178593E-08  0.163E-04    1.71      85.8  T
     SCC iter.                  ...        0 min,  0.019 sec
     gradient                   ...        0 min,  0.060 sec
 * total energy  :   -84.1074115 Eh     change       -0.2191060E-04 Eh
   gradient norm :     0.0015467 Eh/α   predicted    -0.1093944E-04 ( -50.07%)
   displ. norm   :     0.1675102 α      lambda       -0.1389393E-04
   maximum displ.:     0.1133342 α      in ANC's #1, #2, #3, ...

........................................................................
.............................. CYCLE   37 ..............................
........................................................................

 iter      E             dE          RMSdq      gap      omega  full diag
   1    -85.2534995 -0.852535E+02  0.365E-02    1.72       0.0  T
   2    -85.2534997 -0.249352E-06  0.214E-02    1.72       1.0  T
   3    -85.2534994  0.296468E-06  0.266E-03    1.72       5.3  T
   4    -85.2534998 -0.417636E-06  0.632E-04    1.72      22.2  T
   5    -85.2534998 -0.289978E-08  0.353E-04    1.72      39.7  T
     SCC iter.                  ...        0 min,  0.016 sec
     gradient                   ...        0 min,  0.066 sec
 * total energy  :   -84.1074241 Eh     change       -0.1258184E-04 Eh
   gradient norm :     0.0011072 Eh/α   predicted    -0.7034187E-05 ( -44.09%)
   displ. norm   :     0.1775806 α      lambda       -0.8133620E-05
   maximum displ.:     0.1241338 α      in ANC's #1, #2, #3, ...

........................................................................
.............................. CYCLE   38 ..............................
........................................................................

 iter      E             dE          RMSdq      gap      omega  full diag
   1    -85.2530181 -0.852530E+02  0.394E-02    1.72       0.0  T
   2    -85.2530183 -0.200395E-06  0.232E-02    1.72       1.0  T
   3    -85.2530179  0.341538E-06  0.284E-03    1.72       4.9  T
   4    -85.2530184 -0.458911E-06  0.584E-04    1.72      24.0  T
   5    -85.2530184 -0.147492E-08  0.294E-04    1.72      47.7  T
     SCC iter.                  ...        0 min,  0.016 sec
     gradient                   ...        0 min,  0.075 sec
 * total energy  :   -84.1074331 Eh     change       -0.8951372E-05 Eh
   gradient norm :     0.0007388 Eh/α   predicted    -0.4128247E-05 ( -53.88%)
   displ. norm   :     0.0539737 α      lambda       -0.4844964E-05
   maximum displ.:     0.0394232 α      in ANC's #1, #2, #3, ...

........................................................................
.............................. CYCLE   39 ..............................
........................................................................

 iter      E             dE          RMSdq      gap      omega  full diag
   1    -85.2536707 -0.852537E+02  0.982E-03    1.72       0.0  T
   2    -85.2536707 -0.309981E-07  0.577E-03    1.72       2.4  T
   3    -85.2536707  0.198128E-07  0.864E-04    1.72      16.2  T
   4    -85.2536707 -0.307145E-07  0.203E-04    1.72      69.0  T
     SCC iter.                  ...        0 min,  0.013 sec
     gradient                   ...        0 min,  0.033 sec
 * total energy  :   -84.1074383 Eh     change       -0.5262581E-05 Eh
   gradient norm :     0.0008265 Eh/α   predicted    -0.2428030E-05 ( -53.86%)
   displ. norm   :     0.0715249 α      lambda       -0.6189162E-05
   maximum displ.:     0.0501888 α      in ANC's #1, #2, #10, ...

........................................................................
.............................. CYCLE   40 ..............................
........................................................................

 iter      E             dE          RMSdq      gap      omega  full diag
   1    -85.2534938 -0.852535E+02  0.125E-02    1.71       0.0  T
   2    -85.2534939 -0.440220E-07  0.734E-03    1.71       1.9  T
   3    -85.2534938  0.254768E-07  0.969E-04    1.71      14.4  T
   4    -85.2534939 -0.418603E-07  0.277E-04    1.71      50.6  T
     SCC iter.                  ...        0 min,  0.013 sec
     gradient                   ...        0 min,  0.033 sec
 * total energy  :   -84.1074442 Eh     change       -0.5846086E-05 Eh
   gradient norm :     0.0006906 Eh/α   predicted    -0.3103899E-05 ( -46.91%)
   displ. norm   :     0.0478476 α      lambda       -0.3388546E-05
   maximum displ.:     0.0316839 α      in ANC's #1, #2, #5, ...

........................................................................
.............................. CYCLE   41 ..............................
........................................................................

 iter      E             dE          RMSdq      gap      omega  full diag
   1    -85.2536218 -0.852536E+02  0.104E-02    1.71       0.0  T
   2    -85.2536218 -0.219982E-07  0.614E-03    1.71       2.3  T
   3    -85.2536217  0.365711E-07  0.978E-04    1.71      14.3  T
   4    -85.2536218 -0.467156E-07  0.175E-04    1.71      80.0  T
     SCC iter.                  ...        0 min,  0.046 sec
     gradient                   ...        0 min,  0.033 sec
 * total energy  :   -84.1074483 Eh     change       -0.4078168E-05 Eh
   gradient norm :     0.0005785 Eh/α   predicted    -0.1698988E-05 ( -58.34%)
   displ. norm   :     0.0690739 α      lambda       -0.5155590E-05
   maximum displ.:     0.0417473 α      in ANC's #1, #2, #6, ...

   *** GEOMETRY OPTIMIZATION CONVERGED AFTER 41 ITERATIONS ***

------------------------------------------------------------------------
 total energy gain   :        -0.0119198 Eh       -7.4798 kcal/mol
 total RMSD          :         0.8292953 a0        0.4388 Å
 total power (kW/mol):        -0.7633039 (step)   -6.7885 (real)
------------------------------------------------------------------------

 ANCopt (total)                0 d,  0 h,  0 min,  4.610 sec
 optimizer setup                ...        0 min,  0.000 sec (  0.002%)
 model hessian                  ...        0 min,  0.095 sec (  2.062%)
 ANC generation                 ...        0 min,  0.004 sec (  0.094%)
 coordinate transformation      ...        0 min,  0.000 sec (  0.010%)
 single point calculation       ...        0 min,  4.446 sec ( 96.438%)
 optimization log               ...        0 min,  0.059 sec (  1.272%)
 hessian update                 ...        0 min,  0.001 sec (  0.015%)
 rational function              ...        0 min,  0.003 sec (  0.074%)

================
 final structure:
================
51
 xtb: 6.7.1 (edcfbbe)
F           -7.57175934190778        3.12993033986871       -0.61863098852260
C           -6.64889407506553        2.15053050420331       -0.57252807052586
C           -5.69328237547157        2.07686468258183       -1.57048679567053
C           -4.75725773176501        1.06361799824276       -1.51192523914233
C           -4.75731099470373        0.14504876785292       -0.46253031937930
C           -5.73685150869350        0.24181116088948        0.52380517524631
C           -6.68949200565442        1.24149926266163        0.47035732206346
C           -3.71340031230413       -0.92026067304833       -0.48300719615674
C           -3.23058099608206       -1.41730151434391        0.86899081259648
C           -2.68506738724251       -0.26143809790847        1.71902263026691
C           -1.36071517456628        0.23631493410934        1.14236087121393
N           -0.41318783376586       -0.85723608331313        1.15428489900360
C           -0.83335542090634       -1.90713825120968        0.24485172983300
C           -2.15502820919553       -2.49783583248982        0.73195742247294
C            0.96881729950539       -0.47692514754536        1.04061750841218
C            1.38791742902336        0.15469471316602       -0.30535374782322
N            2.81648219177630        0.42515817955835       -0.30710306836080
C            3.21799270800988        1.66682868774960        0.14558289154516
N            4.57315432448130        1.88370832714974        0.15552023024320
C            5.52052185686733        0.96414666059430       -0.22515567092204
C            6.88256151045734        1.25758340833621       -0.18769236646728
C            7.79819740079719        0.30155757169553       -0.57609909091412
C            7.37721249497158       -0.95379890882631       -1.00331862920751
C            6.03222617145019       -1.25022858020511       -1.04126255874314
C            5.09197664567050       -0.29551605678988       -0.65452383087279
C            3.66121994661041       -0.61052453246199       -0.69112175894936
O            3.21228097693617       -1.68413623172735       -1.03150274181030
O            2.44207183025856        2.52188937991230        0.50687655512676
O           -3.28909865460249       -1.34123678559749       -1.53446521807946
H           -5.69622897570358        2.79833198376901       -2.37172259630616
H           -4.00457550757301        0.96935410009430       -2.27993433897736
H           -5.77859640136247       -0.47604347597574        1.32783449206981
H           -7.45988487539724        1.32308438597287        1.22083603093763
H           -4.10211627613376       -1.85036688467811        1.37357661782882
H           -3.40119108251247        0.56026569088649        1.76554554134706
H           -2.50484605431833       -0.62661156173370        2.73120302374465
H           -0.97008785826973        1.04736916818746        1.76103728091682
H           -1.53489321061290        0.63078713047455        0.12494681134925
H           -0.06698888417411       -2.68456683052137        0.23377952648169
H           -0.96536014007721       -1.53698909781314       -0.78257809268986
H           -2.48734970654211       -3.26120850448800        0.02770894777681
H           -1.99758619045534       -2.96069200544184        1.70707350889063
H            1.19097172947430        0.23706585889876        1.83998118365426
H            1.57478273691718       -1.37453041024086        1.19738272856038
H            1.18485848866868       -0.53816002454630       -1.12316226207499
H            0.86811400057895        1.10041635144758       -0.46210056812801
H            4.86705921169081        2.79594728803496        0.47769309345873
H            7.20859239091621        2.23191393185909        0.14501842349142
H            8.85241066383876        0.53230711924775       -0.54666688089555
H            8.10467928504072       -1.69166750934512       -1.30313297808083
H            5.67068589116166       -2.21361458718163       -1.36614024986060

 Bond Distances (Angstroems)
 ---------------------------
F1-C2=1.3465         C2-F1=1.3465         C2-C3=1.3837         C2-C7=1.3841         C3-C2=1.3837         C3-C4=1.3807         
C3-H30=1.0782        C4-C3=1.3807         C4-C5=1.3946         C4-H31=1.0795        C5-C4=1.3946         C5-C6=1.3935         
C5-C8=1.4917         C6-C5=1.3935         C6-C7=1.3819         C6-H32=1.0787        C7-C2=1.3841         C7-C6=1.3819         
C7-H33=1.0786        C8-C5=1.4917         C8-C9=1.5192         C8-O29=1.2095        C9-C8=1.5192         C9-C10=1.5350        
C9-C14=1.5307        C9-H34=1.0962        C10-C9=1.5350        C10-C11=1.5278       C10-H35=1.0910       C10-H36=1.0910       
C11-C10=1.5278       C11-N12=1.4470       C11-H37=1.0923       C11-H38=1.1050       N12-C11=1.4470       N12-C13=1.4512       
N12-C15=1.4379       C13-N12=1.4512       C13-C14=1.5274       C13-H39=1.0917       C13-H40=1.1000       C14-C9=1.5307        
C14-C13=1.5274       C14-H41=1.0905       C14-H42=1.0908       C15-N12=1.4379       C15-C16=1.5447       C15-H43=1.0946       
C15-H44=1.0943       C16-C15=1.5447       C16-N17=1.4539       C16-H45=1.0909       C16-H46=1.0905       N17-C16=1.4539       
N17-C18=1.3813       N17-C26=1.3906       C18-N17=1.3813       C18-N19=1.3724       C18-O28=1.2098       N19-C18=1.3724       
N19-C20=1.3740       N19-H47=1.0111       C20-N19=1.3740       C20-C21=1.3938       C20-C25=1.3981       C21-C20=1.3938       
C21-C22=1.3796       C21-H48=1.0800       C22-C21=1.3796       C22-C23=1.3913       C22-H49=1.0796       C23-C22=1.3913       
C23-C24=1.3778       C23-H50=1.0787       C24-C23=1.3778       C24-C25=1.3947       C24-H51=1.0791       C25-C20=1.3981       
C25-C24=1.3947       C25-C26=1.4655       C26-N17=1.3906       C26-C25=1.4655       C26-O27=1.2125       O27-C26=1.2125       
O28-C18=1.2098       O29-C8=1.2095        H30-C3=1.0782        H31-C4=1.0795        H32-C6=1.0787        H33-C7=1.0786        
H34-C9=1.0962        H35-C10=1.0910       H36-C10=1.0910       H37-C11=1.0923       H38-C11=1.1050       H39-C13=1.0917       
H40-C13=1.1000       H41-C14=1.0905       H42-C14=1.0908       H43-C15=1.0946       H44-C15=1.0943       H45-C16=1.0909       
H46-C16=1.0905       H47-N19=1.0111       H48-C21=1.0800       H49-C22=1.0796       H50-C23=1.0787       H51-C24=1.0791       
 C  H  Rav=1.0881 sigma=0.0079  Rmin=1.0782  Rmax=1.1050    21
 C  C  Rav=1.4398 sigma=0.0657  Rmin=1.3778  Rmax=1.5447    20
 N  H  Rav=1.0111 sigma=0.0000  Rmin=1.0111  Rmax=1.0111     1
 N  C  Rav=1.4135 sigma=0.0346  Rmin=1.3724  Rmax=1.4539     8
 O  C  Rav=1.2106 sigma=0.0013  Rmin=1.2095  Rmax=1.2125     3
 F  C  Rav=1.3465 sigma=0.0000  Rmin=1.3465  Rmax=1.3465     1

 selected bond angles (degree)
 --------------------
C3-C2-F1=119.17                C7-C2-F1=118.91                C7-C2-C3=121.92                C4-C3-C2=118.47                
H30-C3-C2=119.90               H30-C3-C4=121.63               C5-C4-C3=121.01                H31-C4-C3=120.44               
H31-C4-C5=118.55               C6-C5-C4=119.14                C8-C5-C4=117.39                C8-C5-C6=123.45                
C7-C6-C5=120.49                H32-C6-C5=120.57               H32-C6-C7=118.92               C6-C7-C2=118.95                
H33-C7-C2=119.71               H33-C7-C6=121.34               C9-C8-C5=116.35                O29-C8-C5=120.40               
O29-C8-C9=123.25               C10-C9-C8=111.06               C14-C9-C8=112.00               C14-C9-C10=109.35              
H34-C9-C8=106.63               H34-C9-C10=108.97              H34-C9-C14=108.72              C11-C10-C9=110.14              
H35-C10-C9=110.95              H35-C10-C11=109.86             H36-C10-C9=108.69              H36-C10-C11=108.42             
H36-C10-H35=108.72             

 selected dihedral angles (degree)
 ---------------------------------
C4-C3-C2-F1=180.26            C4-C3-C2-C7=359.90            H30-C3-C2-F1=359.92           H30-C3-C2-C7=179.57           
C5-C4-C3-C2=359.02            C5-C4-C3-H30=179.37           H31-C4-C3-C2=179.28           H31-C4-C3-H30=359.62          
C6-C5-C4-C3=  1.30            C6-C5-C4-H31=181.05           C8-C5-C4-C3=179.73            C8-C5-C4-H31=359.48           
C7-C6-C5-C4=359.44            C7-C6-C5-C8=181.12            H32-C6-C5-C4=177.95           H32-C6-C5-C8=359.62           
C6-C7-C2-F1=180.47            C6-C7-C2-C3=  0.82            H33-C7-C2-F1=  0.62           H33-C7-C2-C3=180.97           
C2-C7-C6-C5=359.52            C2-C7-C6-H32=180.99           H33-C7-C6-C5=179.36           H33-C7-C6-H32=  0.84          
C9-C8-C5-C4=148.85            C9-C8-C5-C6=327.20            O29-C8-C5-C4=329.18           O29-C8-C5-C6=147.54           
C10-C9-C8-C5=303.06           C10-C9-C8-O29=122.72          C14-C9-C8-C5=180.47           C14-C9-C8-O29=  0.13          
H34-C9-C8-C5= 61.66           H34-C9-C8-O29=241.31          C11-C10-C9-C8=289.38          C11-C10-C9-C14= 53.49         
C11-C10-C9-H34=172.21         H35-C10-C9-C8= 51.24          H35-C10-C9-C14=175.35         H35-C10-C9-H34=294.07         
H36-C10-C9-C8=170.74          H36-C10-C9-C14=294.84         H36-C10-C9-H34= 53.56         
           -------------------------------------------------
          |                Final Singlepoint                |
           -------------------------------------------------

          ...................................................
          :                      SETUP                      :
          :.................................................:
          :  # basis functions                 138          :
          :  # atomic orbitals                 138          :
          :  # shells                           80          :
          :  # electrons                       150          :
          :  max. iterations                   250          :
          :  Hamiltonian                  GFN2-xTB          :
          :  restarted?                      false          :
          :  GBSA solvation                  false          :
          :  PC potential                    false          :
          :  electronic temp.          300.0000000     K    :
          :  accuracy                    1.0000000          :
          :  -> integral cutoff          0.2500000E+02      :
          :  -> integral neglect         0.1000000E-07      :
          :  -> SCF convergence          0.1000000E-05 Eh   :
          :  -> wf. convergence          0.1000000E-03 e    :
          :  Broyden damping             0.4000000          :
          :  net charge                          0          :
          :  unpaired electrons                  0          :
          ...................................................

 iter      E             dE          RMSdq      gap      omega  full diag
   1    -85.2536218 -0.852536E+02  0.950E-05    1.71       0.0  T
   2    -85.2536218 -0.523670E-10  0.597E-05    1.71     234.6  T
   3    -85.2536218 -0.436273E-11  0.363E-05    1.71     385.4  T

   *** convergence criteria satisfied after 3 iterations ***

         #    Occupation            Energy/Eh            Energy/eV
      -------------------------------------------------------------
         1        2.0000           -0.8250043             -22.4495
       ...           ...                  ...                  ...
        69        2.0000           -0.4261827             -11.5970
        70        2.0000           -0.4257424             -11.5850
        71        2.0000           -0.4203129             -11.4373
        72        2.0000           -0.4103622             -11.1665
        73        2.0000           -0.4056644             -11.0387
        74        2.0000           -0.3939232             -10.7192
        75        2.0000           -0.3459190              -9.4129 (HOMO)
        76                         -0.2830028              -7.7009 (LUMO)
        77                         -0.2786767              -7.5832
        78                         -0.2508067              -6.8248
        79                         -0.2506546              -6.8207
        80                         -0.2175807              -5.9207
       ...                                ...                  ...
       138                          0.7030812              19.1318
      -------------------------------------------------------------
                  HL-Gap            0.0629163 Eh            1.7120 eV
             Fermi-level           -0.3144609 Eh           -8.5569 eV

 SCC (total)                   0 d,  0 h,  0 min,  0.075 sec
 SCC setup                      ...        0 min,  0.000 sec (  0.572%)
 Dispersion                     ...        0 min,  0.000 sec (  0.582%)
 classical contributions        ...        0 min,  0.000 sec (  0.274%)
 integral evaluation            ...        0 min,  0.010 sec ( 13.076%)
 iterations                     ...        0 min,  0.010 sec ( 12.809%)
 molecular gradient             ...        0 min,  0.054 sec ( 72.381%)
 printout                       ...        0 min,  0.000 sec (  0.297%)

         :::::::::::::::::::::::::::::::::::::::::::::::::::::
         ::                     SUMMARY                     ::
         :::::::::::::::::::::::::::::::::::::::::::::::::::::
         :: total energy             -84.107448267088 Eh    ::
         :: gradient norm              0.000581766129 Eh/a0 ::
         :: HOMO-LUMO gap              1.712039340306 eV    ::
         ::.................................................::
         :: SCC energy               -85.253593968462 Eh    ::
         :: -> isotropic ES            0.114584277574 Eh    ::
         :: -> anisotropic ES          0.003998479403 Eh    ::
         :: -> anisotropic XC          0.028059063814 Eh    ::
         :: -> dispersion             -0.057520434869 Eh    ::
         :: repulsion energy           1.146145701375 Eh    ::
         :: add. restraining           0.000000000000 Eh    ::
         :: total charge               0.000000000000 e     ::
         :::::::::::::::::::::::::::::::::::::::::::::::::::::

           -------------------------------------------------
          |                Property Printout                |
           -------------------------------------------------

    * Orbital Energies and Occupations

         #    Occupation            Energy/Eh            Energy/eV
      -------------------------------------------------------------
         1        2.0000           -0.8250043             -22.4495
       ...           ...                  ...                  ...
        63        2.0000           -0.4431218             -12.0580
        64        2.0000           -0.4366851             -11.8828
        65        2.0000           -0.4330248             -11.7832
        66        2.0000           -0.4327395             -11.7754
        67        2.0000           -0.4314709             -11.7409
        68        2.0000           -0.4294686             -11.6864
        69        2.0000           -0.4261827             -11.5970
        70        2.0000           -0.4257424             -11.5850
        71        2.0000           -0.4203129             -11.4373
        72        2.0000           -0.4103622             -11.1665
        73        2.0000           -0.4056644             -11.0387
        74        2.0000           -0.3939232             -10.7192
        75        2.0000           -0.3459190              -9.4129 (HOMO)
        76                         -0.2830028              -7.7009 (LUMO)
        77                         -0.2786767              -7.5832
        78                         -0.2508067              -6.8248
        79                         -0.2506546              -6.8207
        80                         -0.2175807              -5.9207
        81                         -0.2142802              -5.8309
        82                         -0.1781714              -4.8483
        83                         -0.1115214              -3.0347
        84                         -0.0928724              -2.5272
        85                         -0.0299596              -0.8152
        86                          0.0132675               0.3610
       ...                                ...                  ...
       138                          0.7030812              19.1318
      -------------------------------------------------------------
                  HL-Gap            0.0629163 Eh            1.7120 eV
             Fermi-level           -0.3144609 Eh           -8.5569 eV

     #   Z          covCN         q      C6AA      α(0)
     1   9 F        0.787    -0.218    11.424     3.993
     2   6 C        2.788     0.176    24.216     8.061
     3   6 C        2.914    -0.046    29.145     8.853
     4   6 C        2.931    -0.017    28.439     8.746
     5   6 C        2.969    -0.016    28.401     8.742
     6   6 C        2.925    -0.028    28.696     8.785
     7   6 C        2.916    -0.048    29.183     8.858
     8   6 C        2.822     0.233    23.129     7.880
     9   6 C        3.856    -0.039    21.224     6.552
    10   6 C        3.809    -0.063    21.703     6.631
    11   6 C        3.763     0.013    20.408     6.439
    12   7 N        2.732    -0.168    24.640     7.372
    13   6 C        3.764     0.006    20.523     6.457
    14   6 C        3.809    -0.059    21.635     6.621
    15   6 C        3.752     0.001    20.621     6.476
    16   6 C        3.754    -0.002    20.665     6.482
    17   7 N        2.744    -0.111    23.431     7.189
    18   6 C        2.705     0.327    21.437     7.578
    19   7 N        2.702    -0.161    24.484     7.349
    20   6 C        2.916     0.076    26.311     8.411
    21   6 C        2.919    -0.052    29.290     8.875
    22   6 C        2.921    -0.020    28.499     8.754
    23   6 C        2.917    -0.034    28.844     8.807
    24   6 C        2.923    -0.016    28.419     8.742
    25   6 C        2.982    -0.037    28.920     8.821
    26   6 C        2.772     0.271    22.428     7.756
    27   8 O        0.859    -0.410    21.885     6.272
    28   8 O        0.860    -0.444    22.584     6.372
    29   8 O        0.857    -0.356    20.827     6.119
    30   1 H        0.926     0.066     2.132     2.284
    31   1 H        0.926     0.068     2.111     2.272
    32   1 H        0.926     0.050     2.319     2.381
    33   1 H        0.926     0.063     2.162     2.299
    34   1 H        0.924     0.050     2.320     2.382
    35   1 H        0.924     0.035     2.514     2.479
    36   1 H        0.924     0.054     2.266     2.354
    37   1 H        0.924     0.040     2.455     2.450
    38   1 H        0.922     0.008     2.928     2.676
    39   1 H        0.924     0.043     2.412     2.429
    40   1 H        0.923     0.030     2.588     2.516
    41   1 H        0.924     0.051     2.306     2.375
    42   1 H        0.924     0.044     2.391     2.418
    43   1 H        0.924     0.043     2.404     2.425
    44   1 H        0.924     0.049     2.330     2.387
    45   1 H        0.924     0.073     2.052     2.240
    46   1 H        0.924     0.066     2.125     2.279
    47   1 H        0.860     0.201     1.103     1.645
    48   1 H        0.926     0.042     2.419     2.432
    49   1 H        0.926     0.048     2.340     2.392
    50   1 H        0.926     0.049     2.338     2.391
    51   1 H        0.926     0.071     2.076     2.253

 Mol. C6AA /au·bohr⁶  :      30522.891123
 Mol. C8AA /au·bohr⁸  :     723149.160313
 Mol. α(0) /au        :        269.755654


Wiberg/Mayer (AO) data.
largest (>0.10) Wiberg bond orders for each atom

 ---------------------------------------------------------------------------
     #   Z sym  total        # sym  WBO       # sym  WBO       # sym  WBO
 ---------------------------------------------------------------------------
     1   9 F    1.097 --     2 C    0.966
     2   6 C    3.889 --     3 C    1.391     7 C    1.388     1 F    0.966
     3   6 C    3.989 --     4 C    1.454     2 C    1.391    30 H    0.965
                             6 C    0.106
     4   6 C    3.987 --     3 C    1.454     5 C    1.386    31 H    0.965
                             7 C    0.106
     5   6 C    3.988 --     6 C    1.387     4 C    1.386     8 C    1.008
     6   6 C    3.990 --     7 C    1.455     5 C    1.387    32 H    0.964
                             3 C    0.106
     7   6 C    3.989 --     6 C    1.455     2 C    1.388    33 H    0.966
                             4 C    0.106
     8   6 C    3.920 --    29 O    1.837     5 C    1.008     9 C    0.974
     9   6 C    3.995 --    14 C    0.997    10 C    0.977     8 C    0.974
                            34 H    0.938
    10   6 C    3.995 --    11 C    1.003     9 C    0.977    36 H    0.975
                            35 H    0.973
    11   6 C    3.989 --    12 N    1.007    10 C    1.003    37 H    0.972
[...]
   * S. Spicher and S. Grimme, J. Chem. Theory Comput., 2021, 17, 1701-1714
     DOI: 10.1021/acs.jctc.0c01306
   
   for ONIOM refer to:
   * C. Plett, A. Katbashev, S. Ehlert, S. Grimme, M. Bursch,
     Phys. Chem. Chem. Phys., 2023, 25, 17860-17868. DOI: 10.1039/D3CP02178E
   
   for DIPRO refer to:
   * J. Kohn, N. Gildemeister, S. Grimme, D. Fazzi, A. Hansen,
     J. Chem. Phys., 2023, just accepted.
   
   for PTB refer to:
   * S. Grimme, M. Mueller, A. Hansen, J. Chem. Phys., 2023, 158, 124111.
     DOI: 10.1063/5.0137838
   
   with help from (in alphabetical order)
   P. Atkinson, C. Bannwarth, F. Bohle, G. Brandenburg, E. Caldeweyher
   M. Checinski, S. Dohm, S. Ehlert, S. Ehrlich, I. Gerasimov, C. Hölzer
   A. Katbashev, J. Kohn, J. Koopman, C. Lavigne, S. Lehtola, F. März, M. Müller,
   F. Musil, H. Neugebauer, J. Pisarek, C. Plett, P. Pracht, F. Pultar,
   J. Seibert, P. Shushkov, S. Spicher, M. Stahn, M. Steiner, T. Strunk,
   J. Stückrath, T. Rose, and J. Unsleber
   
 * started run on 2025/05/15 at 16:27:48.812     
   ID    Z sym.   atoms
    1    9 F      1
    2    6 C      2-11, 13-16, 18, 20-26
    3    7 N      12, 17, 19
    4    8 O      27-29
    5    1 H      30-51

           -------------------------------------------------
          |                Calculation Setup                |
           -------------------------------------------------

          program call               : xtb /rds/general/user/hgt20/home/callum/QDESCP/Ketanserin_rdkit_conf_5/Ketanserin_rdkit_conf_5.xyz --acc 1 --gfn 2 --chrg 0 --uhf 2 --etemp 300 --input /rds/general/user/hgt20/home/callum/QDESCP/Ketanserin_rdkit_conf_5/Ketanserin_rdkit_conf_5_xtb.inp -P 1
          hostname                   : login-c
          coordinate file            : /rds/general/user/hgt20/home/callum/QDESCP/Ketanserin_rdkit_conf_5/Ketanserin_rdkit_conf_5.xyz
          omp threads                :                     1


           -------------------------------------------------
          |                 G F N 2 - x T B                 |
           -------------------------------------------------

        Reference                      10.1021/acs.jctc.8b01176
      * Hamiltonian:
        H0-scaling (s, p, d)           1.850000    2.230000    2.230000
        zeta-weighting                 0.500000
      * Dispersion:
        s8                             2.700000
        a1                             0.520000
        a2                             5.000000
        s9                             5.000000
      * Repulsion:
        kExp                           1.500000    1.000000
        rExp                           1.000000
      * Coulomb:
        alpha                          2.000000
        third order                    shell-resolved
        anisotropic                    true
        a3                             3.000000
        a5                             4.000000
        cn-shift                       1.200000
        cn-exp                         4.000000
        max-rad                        5.000000


          ...................................................
          :                      SETUP                      :
          :.................................................:
          :  # basis functions                 138          :
          :  # atomic orbitals                 138          :
          :  # shells                           80          :
          :  # electrons                       150          :
          :  max. iterations                   250          :
          :  Hamiltonian                  GFN2-xTB          :
          :  restarted?                      false          :
          :  GBSA solvation                  false          :
          :  PC potential                    false          :
          :  electronic temp.          300.0000000     K    :
          :  accuracy                    1.0000000          :
          :  -> integral cutoff          0.2500000E+02      :
          :  -> integral neglect         0.1000000E-07      :
          :  -> SCF convergence          0.1000000E-05 Eh   :
          :  -> wf. convergence          0.1000000E-03 e    :
          :  Broyden damping             0.4000000          :
          :  net charge                          0          :
          :  unpaired electrons                  2          :
          ...................................................

 iter      E             dE          RMSdq      gap      omega  full diag
   1    -84.8667406 -0.848667E+02  0.402E+00    0.06       0.0  T
   2    -84.7973470  0.693935E-01  0.292E+00    0.65       1.0  T
   3    -84.7680721  0.292749E-01  0.239E+00    1.84       1.0  T
   4    -84.9424082 -0.174336E+00  0.174E+00    0.64       1.0  T
   5    -84.8808582  0.615500E-01  0.143E+00    0.86       1.0  T
   6    -84.9544736 -0.736154E-01  0.114E+00    0.29       1.0  T
   7    -85.0376947 -0.832210E-01  0.112E+00    0.60       1.0  T
   8    -85.0655594 -0.278648E-01  0.862E-01    0.46       1.0  T
   9    -85.1174793 -0.519199E-01  0.601E-01    0.22       1.0  T
  10    -85.1311589 -0.136796E-01  0.449E-01    0.12       1.0  T
  11    -85.1104777  0.206812E-01  0.484E-01    0.02       1.0  T
  12    -85.0942981  0.161796E-01  0.581E-01    0.22       1.0  T
  13    -85.1470878 -0.527898E-01  0.676E-02    0.04       1.0  T
  14    -85.1427221  0.436576E-02  0.181E-01    0.02       1.0  T
  15    -85.1460158 -0.329373E-02  0.117E-01    0.07       1.0  T
  16    -85.1475299 -0.151405E-02  0.440E-02    0.05       1.0  T
  17    -85.1475805 -0.506382E-04  0.356E-02    0.04       1.0  T
  18    -85.1477313 -0.150782E-03  0.193E-02    0.05       1.0  T
  19    -85.1477756 -0.442977E-04  0.118E-03    0.05      11.8  T
  20    -85.1477748  0.817456E-06  0.248E-03    0.05       5.6  T
  21    -85.1477757 -0.906968E-06  0.242E-04    0.05      57.8  T
  22    -85.1477757 -0.327063E-09  0.218E-04    0.05      64.2  T

   *** convergence criteria satisfied after 22 iterations ***

         #    Occupation            Energy/Eh            Energy/eV
      -------------------------------------------------------------
         1        2.0000           -0.8036243             -21.8677
       ...           ...                  ...                  ...
        70        2.0000           -0.4123846             -11.2216
        71        2.0000           -0.4046258             -11.0104
        72        1.9996           -0.4023072             -10.9473
        73        1.9979           -0.4007728             -10.9056
        74        1.9412           -0.3975688             -10.8184
        75        1.0614           -0.3923420             -10.6762
        76        0.7178           -0.2702934              -7.3551 (HOMO)
        77        0.2822           -0.2685198              -7.3068 (LUMO)
        78                         -0.2436703              -6.6306
        79                         -0.2306955              -6.2775
        80                         -0.2108449              -5.7374
        81                         -0.1977918              -5.3822
       ...                                ...                  ...
       138                          0.7095360              19.3075
      -------------------------------------------------------------
                  HL-Gap            0.0017736 Eh            0.0483 eV
             Fermi-level           -0.3321701 Eh           -9.0388 eV

 transition dipole moment (au) for excitation:          75          76
     X       Y       Z   
  -0.0486  -0.0279  -0.0824  total (au/Debye):    0.100   0.253
 dE (eV)             :    3.321
 oscillator strength :  0.11430E-02

 SCC (total)                   0 d,  0 h,  0 min,  0.272 sec
 SCC setup                      ...        0 min,  0.001 sec (  0.194%)
 Dispersion                     ...        0 min,  0.001 sec (  0.263%)
 classical contributions        ...        0 min,  0.000 sec (  0.079%)
 integral evaluation            ...        0 min,  0.010 sec (  3.796%)
 iterations                     ...        0 min,  0.165 sec ( 60.547%)
 molecular gradient             ...        0 min,  0.087 sec ( 31.880%)
 printout                       ...        0 min,  0.009 sec (  3.238%)

         :::::::::::::::::::::::::::::::::::::::::::::::::::::
         ::                     SUMMARY                     ::
         :::::::::::::::::::::::::::::::::::::::::::::::::::::
         :: total energy             -84.001602144916 Eh    ::
         :: gradient norm              0.103931213163 Eh/a0 ::
         :: HOMO-LUMO gap              0.048262180859 eV    ::
         ::.................................................::
         :: SCC energy               -85.147747846290 Eh    ::
         :: -> isotropic ES            0.115775227906 Eh    ::
         :: -> anisotropic ES          0.003321136116 Eh    ::
         :: -> anisotropic XC          0.023745375324 Eh    ::
         :: -> dispersion             -0.057018870321 Eh    ::
         :: repulsion energy           1.146145701375 Eh    ::
         :: add. restraining           0.000000000000 Eh    ::
         :: total charge              -0.000000000002 e     ::
         :::::::::::::::::::::::::::::::::::::::::::::::::::::

           -------------------------------------------------
          |                Property Printout                |
           -------------------------------------------------

    * Orbital Energies and Occupations

         #    Occupation            Energy/Eh            Energy/eV
      -------------------------------------------------------------
         1        2.0000           -0.8036243             -21.8677
       ...           ...                  ...                  ...
        64        2.0000           -0.4536097             -12.3433
        65        2.0000           -0.4407261             -11.9928
        66        2.0000           -0.4377384             -11.9115
        67        2.0000           -0.4295225             -11.6879
        68        2.0000           -0.4253259             -11.5737
        69        2.0000           -0.4190357             -11.4025
        70        2.0000           -0.4123846             -11.2216
        71        2.0000           -0.4046258             -11.0104
        72        1.9996           -0.4023072             -10.9473
        73        1.9979           -0.4007728             -10.9056
        74        1.9412           -0.3975688             -10.8184
        75        1.0614           -0.3923420             -10.6762
        76        0.7178           -0.2702934              -7.3551 (HOMO)
        77        0.2822           -0.2685198              -7.3068 (LUMO)
        78                         -0.2436703              -6.6306
        79                         -0.2306955              -6.2775
        80                         -0.2108449              -5.7374
        81                         -0.1977918              -5.3822
        82                         -0.1717155              -4.6726
        83                         -0.0919244              -2.5014
        84                         -0.0825790              -2.2471
        85                         -0.0433593              -1.1799
        86                         -0.0030406              -0.0827
        87                          0.0216805               0.5900
       ...                                ...                  ...
       138                          0.7095360              19.3075
      -------------------------------------------------------------
                  HL-Gap            0.0017736 Eh            0.0483 eV
             Fermi-level           -0.3321701 Eh           -9.0388 eV

     #   Z          covCN         q      C6AA      α(0)
     1   9 F        0.787    -0.235    11.599     4.023
     2   6 C        2.788     0.155    24.638     8.131
     3   6 C        2.914    -0.051    29.268     8.871
     4   6 C        2.931    -0.033    28.813     8.803
     5   6 C        2.969    -0.023    28.563     8.766
     6   6 C        2.925    -0.047    29.164     8.856
     7   6 C        2.916    -0.051    29.261     8.870
     8   6 C        2.822     0.181    24.125     8.048
     9   6 C        3.856    -0.023    20.941     6.508
    10   6 C        3.809    -0.069    21.813     6.648
    11   6 C        3.763    -0.003    20.670     6.481
    12   7 N        2.732    -0.082    22.840     7.098
    13   6 C        3.764    -0.006    20.727     6.489
    14   6 C        3.809    -0.061    21.665     6.626
    15   6 C        3.752    -0.010    20.807     6.505
    16   6 C        3.754     0.004    20.561     6.466
    17   7 N        2.744    -0.116    23.517     7.202
    18   6 C        2.705     0.325    21.481     7.586
    19   7 N        2.702    -0.160    24.450     7.344
    20   6 C        2.916     0.070    26.430     8.430
    21   6 C        2.919    -0.056    29.379     8.888
    22   6 C        2.921    -0.031    28.784     8.798
    23   6 C        2.917    -0.032    28.786     8.798
    24   6 C        2.923    -0.026    28.642     8.777
    25   6 C        2.982    -0.045    29.106     8.850
    26   6 C        2.772     0.255    22.707     7.804
    27   8 O        0.859    -0.437    22.425     6.349
    28   8 O        0.860    -0.455    22.810     6.403
    29   8 O        0.857    -0.352    20.742     6.106
    30   1 H        0.926     0.056     2.251     2.346
    31   1 H        0.926     0.048     2.342     2.393
    32   1 H        0.926     0.032     2.556     2.500
    33   1 H        0.926     0.051     2.306     2.375
    34   1 H        0.924     0.060     2.197     2.318
    35   1 H        0.924     0.058     2.227     2.334
    36   1 H        0.924     0.062     2.171     2.304
    37   1 H        0.924     0.058     2.221     2.330
    38   1 H        0.922     0.053     2.282     2.363
    39   1 H        0.924     0.064     2.147     2.292
    40   1 H        0.923     0.078     1.997     2.210
    41   1 H        0.924     0.066     2.133     2.284
    42   1 H        0.924     0.058     2.219     2.330
    43   1 H        0.924     0.063     2.165     2.301
    44   1 H        0.924     0.069     2.092     2.262
    45   1 H        0.924     0.081     1.968     2.194
    46   1 H        0.924     0.074     2.043     2.235
    47   1 H        0.860     0.199     1.110     1.650
    48   1 H        0.926     0.034     2.526     2.485
    49   1 H        0.926     0.039     2.459     2.452
    50   1 H        0.926     0.042     2.419     2.432
    51   1 H        0.926     0.062     2.181     2.309

 Mol. C6AA /au·bohr⁶  :      30402.443912
 Mol. C8AA /au·bohr⁸  :     722231.572150
 Mol. α(0) /au        :        269.226208


Wiberg/Mayer (AO) data.
largest (>0.10) Wiberg bond orders for each atom

 ---------------------------------------------------------------------------
     #   Z sym  total        # sym  WBO       # sym  WBO       # sym  WBO
 ---------------------------------------------------------------------------
     1   9 F    1.066 --     2 C    0.950
     2   6 C    3.821 --     7 C    1.363     3 C    1.359     1 F    0.950
     3   6 C    3.979 --     4 C    1.480     2 C    1.359    30 H    0.963
     4   6 C    3.941 --     3 C    1.480     5 C    1.308    31 H    0.968
     5   6 C    3.910 --     6 C    1.315     4 C    1.308     8 C    1.043
     6   6 C    3.940 --     7 C    1.472     5 C    1.315    32 H    0.962
     7   6 C    3.979 --     6 C    1.472     2 C    1.363    33 H    0.966
     8   6 C    3.733 --    29 O    1.621     5 C    1.043     9 C    0.902
     9   6 C    3.968 --    14 C    1.000    10 C    0.989    34 H    0.936
                             8 C    0.902
    10   6 C    3.986 --    11 C    0.995     9 C    0.989    35 H    0.970
                            36 H    0.965
    11   6 C    3.975 --    12 N    1.008    10 C    0.995    37 H    0.970
                            38 H    0.944
    12   7 N    3.332 --    15 C    1.025    13 C    1.014    11 C    1.008
    13   6 C    3.970 --    12 N    1.014    14 C    0.998    39 H    0.967
                            40 H    0.922
    14   6 C    3.990 --     9 C    1.000    13 C    0.998    41 H    0.972
                            42 H    0.963
    15   6 C    3.970 --    12 N    1.025    43 H    0.966    44 H    0.964
                            16 C    0.949
    16   6 C    3.949 --    17 N    0.988    46 H    0.965    45 H    0.962
                            15 C    0.949
    17   7 N    3.509 --    18 C    1.114    26 C    1.064    16 C    0.988
                            28 O    0.127    27 O    0.117
    18   6 C    3.955 --    28 O    1.625    19 N    1.139    17 N    1.114
    19   7 N    3.461 --    18 C    1.139    20 C    1.117    47 H    0.927
                            28 O    0.135
    20   6 C    3.921 --    21 C    1.363    25 C    1.284    19 N    1.117
    21   6 C    3.938 --    22 C    1.431    20 C    1.363    48 H    0.968
    22   6 C    3.910 --    21 C    1.431    23 C    1.392    49 H    0.971
    23   6 C    3.954 --    24 C    1.467    22 C    1.392    50 H    0.970
    24   6 C    3.912 --    23 C    1.467    25 C    1.333    51 H    0.966
    25   6 C    3.937 --    24 C    1.333    20 C    1.284    26 C    1.075
    26   6 C    3.865 --    27 O    1.643    25 C    1.075    17 N    1.064
    27   8 O    1.925 --    26 C    1.643    17 N    0.117
    28   8 O    1.963 --    18 C    1.625    19 N    0.135    17 N    0.127
    29   8 O    2.019 --     8 C    1.621
    30   1 H    0.993 --     3 C    0.963
    31   1 H    0.998 --     4 C    0.968
    32   1 H    0.997 --     6 C    0.962
    33   1 H    0.995 --     7 C    0.966
    34   1 H    0.989 --     9 C    0.936
    35   1 H    0.996 --    10 C    0.970
    36   1 H    0.993 --    10 C    0.965
    37   1 H    0.996 --    11 C    0.970
    38   1 H    0.992 --    11 C    0.944
    39   1 H    0.995 --    13 C    0.967
    40   1 H    0.986 --    13 C    0.922
    41   1 H    0.995 --    14 C    0.972
    42   1 H    0.993 --    14 C    0.963
    43   1 H    0.993 --    15 C    0.966
    44   1 H    0.992 --    15 C    0.964
    45   1 H    0.993 --    16 C    0.962
    46   1 H    0.993 --    16 C    0.965
    47   1 H    0.960 --    19 N    0.927
    48   1 H    0.998 --    21 C    0.968
    49   1 H    0.998 --    22 C    0.971
    50   1 H    0.998 --    23 C    0.970
    51   1 H    0.996 --    24 C    0.966
 ---------------------------------------------------------------------------

Topologies differ in total number of bonds
Writing topology from bond orders to xtbtopo.mol

molecular dipole:
                 x           y           z       tot (Debye)
 q only:        1.527      -0.725       1.709
   full:        1.733      -0.384       1.736       6.311
molecular quadrupole (traceless):
                xx          xy          yy          xz          yz          zz
 q only:       -6.652      24.248      -2.301     -11.866      -7.887       8.953
  q+dip:       -4.175      28.257      -3.384     -12.472      -9.558       7.559
   full:       -4.661      29.413      -4.382     -11.393      -9.939       9.043


           -------------------------------------------------
          | TOTAL ENERGY              -84.001602144916 Eh   |
          | GRADIENT NORM               0.103931213163 Eh/α |
          | HOMO-LUMO GAP               0.048262180859 eV   |
           -------------------------------------------------

------------------------------------------------------------------------
 * finished run on 2025/05/15 at 16:27:49.100     
------------------------------------------------------------------------
 total:
 * wall-time:     0 d,  0 h,  0 min,  0.289 sec
 *  cpu-time:     0 d,  0 h,  0 min,  0.141 sec
 * ratio c/w:     0.490 speedup
 SCF:
 * wall-time:     0 d,  0 h,  0 min,  0.273 sec
 *  cpu-time:     0 d,  0 h,  0 min,  0.127 sec
 * ratio c/w:     0.465 speedup


