51
 energy: -84.107448267088 gnorm: 0.000581766129 xtb: 6.7.1 (edcfbbe)
F           -7.57175934190778        3.12993033986871       -0.61863098852260
C           -6.64889407506553        2.15053050420331       -0.57252807052586
C           -5.69328237547157        2.07686468258183       -1.57048679567053
C           -4.75725773176501        1.06361799824276       -1.51192523914233
C           -4.75731099470373        0.14504876785292       -0.46253031937930
C           -5.73685150869350        0.24181116088948        0.52380517524631
C           -6.68949200565442        1.24149926266163        0.47035732206346
C           -3.71340031230413       -0.92026067304833       -0.48300719615674
C           -3.23058099608206       -1.41730151434391        0.86899081259648
C           -2.68506738724251       -0.26143809790847        1.71902263026691
C           -1.36071517456628        0.23631493410934        1.14236087121393
N           -0.41318783376586       -0.85723608331313        1.15428489900360
C           -0.83335542090634       -1.90713825120968        0.24485172983300
C           -2.15502820919553       -2.49783583248982        0.73195742247294
C            0.96881729950539       -0.47692514754536        1.04061750841218
C            1.38791742902336        0.15469471316602       -0.30535374782322
N            2.81648219177630        0.42515817955835       -0.30710306836080
C            3.21799270800988        1.66682868774960        0.14558289154516
N            4.57315432448130        1.88370832714974        0.15552023024320
C            5.52052185686733        0.96414666059430       -0.22515567092204
C            6.88256151045734        1.25758340833621       -0.18769236646728
C            7.79819740079719        0.30155757169553       -0.57609909091412
C            7.37721249497158       -0.95379890882631       -1.00331862920751
C            6.03222617145019       -1.25022858020511       -1.04126255874314
C            5.09197664567050       -0.29551605678988       -0.65452383087279
C            3.66121994661041       -0.61052453246199       -0.69112175894936
O            3.21228097693617       -1.68413623172735       -1.03150274181030
O            2.44207183025856        2.52188937991230        0.50687655512676
O           -3.28909865460249       -1.34123678559749       -1.53446521807946
H           -5.69622897570358        2.79833198376901       -2.37172259630616
H           -4.00457550757301        0.96935410009430       -2.27993433897736
H           -5.77859640136247       -0.47604347597574        1.32783449206981
H           -7.45988487539724        1.32308438597287        1.22083603093763
H           -4.10211627613376       -1.85036688467811        1.37357661782882
H           -3.40119108251247        0.56026569088649        1.76554554134706
H           -2.50484605431833       -0.62661156173370        2.73120302374465
H           -0.97008785826973        1.04736916818746        1.76103728091682
H           -1.53489321061290        0.63078713047455        0.12494681134925
H           -0.06698888417411       -2.68456683052137        0.23377952648169
H           -0.96536014007721       -1.53698909781314       -0.78257809268986
H           -2.48734970654211       -3.26120850448800        0.02770894777681
H           -1.99758619045534       -2.96069200544184        1.70707350889063
H            1.19097172947430        0.23706585889876        1.83998118365426
H            1.57478273691718       -1.37453041024086        1.19738272856038
H            1.18485848866868       -0.53816002454630       -1.12316226207499
H            0.86811400057895        1.10041635144758       -0.46210056812801
H            4.86705921169081        2.79594728803496        0.47769309345873
H            7.20859239091621        2.23191393185909        0.14501842349142
H            8.85241066383876        0.53230711924775       -0.54666688089555
H            8.10467928504072       -1.69166750934512       -1.30313297808083
H            5.67068589116166       -2.21361458718163       -1.36614024986060
