52
 energy: -76.363942412144 gnorm: 0.000685886625 xtb: 6.7.1 (edcfbbe)
H           -0.74090188865098       -0.95704948714914        1.68969941926011
C           -0.79309309269824       -0.71103933810582        0.61814211142067
C           -2.05845141088813        0.01752309733667        0.32453081323232
N           -2.48576393161567        1.14048304156011        0.98842889585498
C           -3.66996631147452        1.54904550301149        0.44029442016980
C           -3.99641667954796        0.65323168834655       -0.61040154415236
C           -5.16759108729335        0.85404863777984       -1.33937976121091
C           -5.97269414311445        1.92255636754388       -1.01352057941561
C           -5.63767624252780        2.79702529336406        0.02323550791128
C           -4.48615186691575        2.62409443141834        0.76200026844902
C           -2.94519196712658       -0.30865437763718       -0.65859324316050
C           -2.72998985914946       -1.49445053920075       -1.53586715154567
C           -1.24352875233208       -1.86110154877011       -1.48374917832740
N           -0.81093896815754       -1.97486648924308       -0.10130252132223
C            0.41875994651401       -2.70732196999613        0.10344182168357
C            1.68658944824669       -1.92919418181349       -0.28687839152312
C            2.94797458890753       -2.74226610933845       -0.00879288648183
C            4.20108505696475       -1.94585038696549       -0.36079683372125
C            4.23825719206660       -0.62761506601014        0.41548570232867
C            2.96497396409656        0.19169481973687        0.09367391318645
C            1.72220462212099       -0.61799652824650        0.50181012833781
C            0.43274482228728        0.16591326494858        0.27284293605164
H            1.81067865100817       -0.85520996179575        1.56827731047731
C            3.00977542126893        1.49920090709005        0.84077734373589
O            2.78660762481255        2.53958259297060        0.03767577860257
C            2.80634821342957        3.82827567040337        0.63942171998792
O            3.22724406231772        1.60887345242509        2.02553088747531
O            4.34920740477089       -0.91748078989216        1.78163913644339
H            1.64009138170468       -1.69698241913708       -1.35739263151500
H           -2.02171301358736        1.57036886779119        1.76970440287706
H           -5.43368212717468        0.18171793325301       -2.14147056186154
H           -6.88467520057730        2.09442839566697       -1.56649063968909
H           -6.29537639711464        3.62365710306184        0.24833503682218
H           -4.22729223692285        3.30013945017879        1.56420101892248
H           -3.32685442653302       -2.33652498095431       -1.17444342488096
H           -3.02895426029916       -1.28261837932505       -2.56444556823198
H           -1.08405019931762       -2.82893911540933       -1.96408170931307
H           -0.67331879107794       -1.10430048581470       -2.04690144763657
H            0.47529957754609       -2.96252687726685        1.16753334876612
H            0.36401086703480       -3.64032842075467       -0.46220357292987
H            2.98653888753090       -2.99740985960423        1.05113449402282
H            2.92808051506471       -3.67002467356032       -0.58368114618001
H            4.22835636417816       -1.72882093108528       -1.43002640127752
H            5.08894041437589       -2.52180706278672       -0.09961636724668
H            5.11661934370484       -0.04025429384374        0.08719231757877
H            2.93162789314306        0.40894672888266       -0.97716289137147
H            0.41697616317772        1.06376405238669        0.89449206529694
H            0.36887112828405        0.48377772126479       -0.77053086505024
H            3.82667956850563        4.09732623054922        0.91909551501539
H            2.18217626450346        3.83790547052669        1.53505547900655
H            2.42167147936886        4.51921560858043       -0.10598014972990
H            4.13568198716205       -0.11266205637358        2.27985767485879
