29
 energy: -55.282027667561 gnorm: 0.000785226066 xtb: 6.7.1 (edcfbbe)
O           -2.64402903457812       -0.11959676475909        1.87141864482325
C           -1.84468955906198       -0.75147869754302        0.91258761528212
C           -1.96793928890350       -0.07016837027672       -0.45595643548074
C           -1.15430336752462       -0.76663286471746       -1.56058962626554
C           -0.23404074106286        0.34951272289488       -2.12915605342290
C           -0.28277611106421        1.42426302167516       -1.02055175501751
N            0.82326288009400        1.26210797089918       -0.10439373791475
C            1.54749154262875        2.20912323237767        0.53288854833143
N            2.43871696069666        1.65535163224861        1.30583262749108
C            2.23964524621363        0.32917187258798        1.13423993242037
C            3.02298241265564       -0.72883604884633        1.82410405162199
N            2.53908176117803       -1.97001839921843        1.57864766792322
O            3.98025013708676       -0.51142985081915        2.52687544664787
N            1.26376093094059        0.05874331564488        0.28220862428735
O           -1.51249998898646        1.28360349448340       -0.37712915054772
O           -0.68444494100823        0.82732084988805       -3.35655189936932
O           -2.04012171163346       -1.25944053439814       -2.52621106866128
H           -2.44975819121451        0.82588301534652        1.84666024432063
H           -2.20038840278172       -1.78140898703119        0.83931746130774
H           -0.78752191404415       -0.75488293280899        1.21870889731532
H           -3.02546899142772       -0.03243355290836       -0.74174934793278
H           -0.54303145071302       -1.57158886973301       -1.13173926483890
H            0.79142209512469        0.00577557136335       -2.28357592120358
H           -0.22669075992783        2.44006973767649       -1.42793432610051
H            1.39364679432146        3.25968849784142        0.40077895024579
H            2.99714239800054       -2.76325593939553        1.99438081104653
H            1.74950588893612       -2.10200510860301        0.97275545418676
H           -1.65148068209984        0.87569890250346       -3.33639572909308
H           -1.53762391184485       -1.62313691637154       -3.26587066140108
