----- Optimization -----
      -----------------------------------------------------------      
     |                   =====================                   |     
     |                           x T B                           |     
     |                   =====================                   |     
     |                         S. Grimme                         |     
     |          Mulliken Center for Theoretical Chemistry        |     
     |                    University of Bonn                     |     
      -----------------------------------------------------------      

   * xtb version 6.7.1 (edcfbbe) compiled by 'conda@3ef47c1a292c' on 2024-11-25

   xtb is free software: you can redistribute it and/or modify it under
   the terms of the GNU Lesser General Public License as published by
   the Free Software Foundation, either version 3 of the License, or
   (at your option) any later version.
   
   xtb is distributed in the hope that it will be useful,
   but WITHOUT ANY WARRANTY; without even the implied warranty of
   MERCHANTABILITY or FITNESS FOR A PARTICULAR PURPOSE.  See the
   GNU Lesser General Public License for more details.
   
   Cite this work as:
   * C. Bannwarth, E. Caldeweyher, S. Ehlert, A. Hansen, P. Pracht,
     J. Seibert, S. Spicher, S. Grimme, WIREs Comput. Mol. Sci., 2020, 11,
     e01493. DOI: 10.1002/wcms.1493
   
   for GFN2-xTB:
   * C. Bannwarth, S. Ehlert and S. Grimme., J. Chem. Theory Comput., 2019,
     15, 1652-1671. DOI: 10.1021/acs.jctc.8b01176
   for GFN1-xTB:
   * S. Grimme, C. Bannwarth, P. Shushkov, J. Chem. Theory Comput., 2017,
     13, 1989-2009. DOI: 10.1021/acs.jctc.7b00118
   for GFN0-xTB:
   * P. Pracht, E. Caldeweyher, S. Ehlert, S. Grimme, ChemRxiv, 2019, preprint.
     DOI: 10.26434/chemrxiv.8326202.v1
   for GFN-FF:
   * S. Spicher and S. Grimme, Angew. Chem. Int. Ed., 2020, 59, 15665-15673.
     DOI: 10.1002/anie.202004239
   
   for ALPB and GBSA implicit solvation:
   * S. Ehlert, M. Stahn, S. Spicher, S. Grimme, J. Chem. Theory Comput.,
     2021, 17, 4250-4261. DOI: 10.1021/acs.jctc.1c00471
   
   for ddCOSMO and CPCM-X implicit solvation:
   * M. Stahn, S. Ehlert, S. Grimme, J. Phys. Chem. A,
     2023, XX, XXXX-XXXX. DOI: 10.1021/acs.jpca.3c04382
   
   for DFT-D4:
   * E. Caldeweyher, C. Bannwarth and S. Grimme, J. Chem. Phys., 2017,
     147, 034112. DOI: 10.1063/1.4993215
   * E. Caldeweyher, S. Ehlert, A. Hansen, H. Neugebauer, S. Spicher,
     C. Bannwarth and S. Grimme, J. Chem. Phys., 2019, 150, 154122.
     DOI: 10.1063/1.5090222
   * E. Caldeweyher, J.-M. Mewes, S. Ehlert and S. Grimme, Phys. Chem. Chem. Phys.
     2020, 22, 8499-8512. DOI: 10.1039/D0CP00502A
   
   for sTDA-xTB:
   * S. Grimme and C. Bannwarth, J. Chem. Phys., 2016, 145, 054103.
     DOI: 10.1063/1.4959605
   
   in the mass-spec context:
   * V. Asgeirsson, C. Bauer and S. Grimme, Chem. Sci., 2017, 8, 4879.
     DOI: 10.1039/c7sc00601b
   * J. Koopman and S. Grimme, ACS Omega 2019, 4, 12, 15120-15133.
     DOI: 10.1021/acsomega.9b02011
   
   for metadynamics refer to:
   * S. Grimme, J. Chem. Theory Comput., 2019, 155, 2847-2862
     DOI: 10.1021/acs.jctc.9b00143
   
   for SPH calculations refer to:
   * S. Spicher and S. Grimme, J. Chem. Theory Comput., 2021, 17, 1701-1714
     DOI: 10.1021/acs.jctc.0c01306
   
   for ONIOM refer to:
   * C. Plett, A. Katbashev, S. Ehlert, S. Grimme, M. Bursch,
     Phys. Chem. Chem. Phys., 2023, 25, 17860-17868. DOI: 10.1039/D3CP02178E
   
   for DIPRO refer to:
   * J. Kohn, N. Gildemeister, S. Grimme, D. Fazzi, A. Hansen,
     J. Chem. Phys., 2023, just accepted.
   
   for PTB refer to:
   * S. Grimme, M. Mueller, A. Hansen, J. Chem. Phys., 2023, 158, 124111.
     DOI: 10.1063/5.0137838
   
   with help from (in alphabetical order)
   P. Atkinson, C. Bannwarth, F. Bohle, G. Brandenburg, E. Caldeweyher
   M. Checinski, S. Dohm, S. Ehlert, S. Ehrlich, I. Gerasimov, C. Hölzer
   A. Katbashev, J. Kohn, J. Koopman, C. Lavigne, S. Lehtola, F. März, M. Müller,
   F. Musil, H. Neugebauer, J. Pisarek, C. Plett, P. Pracht, F. Pultar,
   J. Seibert, P. Shushkov, S. Spicher, M. Stahn, M. Steiner, T. Strunk,
   J. Stückrath, T. Rose, and J. Unsleber
   
 * started run on 2025/05/15 at 16:32:31.628     
   ID    Z sym.   atoms
    1    7 N      1, 23
    2    6 C      2-22, 24
    3    1 H      25-42

           -------------------------------------------------
          |                Calculation Setup                |
           -------------------------------------------------

          program call               : xtb /rds/general/user/hgt20/home/callum/QDESCP/Bifonazole_rdkit_conf_3/Bifonazole_rdkit_conf_3.xyz --opt normal --acc 1 --gfn 2 --chrg 0 --uhf 0 -P 1
          hostname                   : login-c
          coordinate file            : /rds/general/user/hgt20/home/callum/QDESCP/Bifonazole_rdkit_conf_3/Bifonazole_rdkit_conf_3.xyz
          omp threads                :                     1


           -------------------------------------------------
          |                 G F N 2 - x T B                 |
           -------------------------------------------------

        Reference                      10.1021/acs.jctc.8b01176
      * Hamiltonian:
        H0-scaling (s, p, d)           1.850000    2.230000    2.230000
        zeta-weighting                 0.500000
      * Dispersion:
        s8                             2.700000
        a1                             0.520000
        a2                             5.000000
        s9                             5.000000
      * Repulsion:
        kExp                           1.500000    1.000000
        rExp                           1.000000
      * Coulomb:
        alpha                          2.000000
        third order                    shell-resolved
        anisotropic                    true
        a3                             3.000000
        a5                             4.000000
        cn-shift                       1.200000
        cn-exp                         4.000000
        max-rad                        5.000000


          ...................................................
          :                      SETUP                      :
          :.................................................:
          :  # basis functions                 114          :
          :  # atomic orbitals                 114          :
          :  # shells                           66          :
          :  # electrons                       116          :
          :  max. iterations                   250          :
          :  Hamiltonian                  GFN2-xTB          :
          :  restarted?                      false          :
          :  GBSA solvation                  false          :
          :  PC potential                    false          :
          :  electronic temp.          300.0000000     K    :
          :  accuracy                    1.0000000          :
          :  -> integral cutoff          0.2500000E+02      :
          :  -> integral neglect         0.1000000E-07      :
          :  -> SCF convergence          0.1000000E-05 Eh   :
          :  -> wf. convergence          0.1000000E-03 e    :
          :  Broyden damping             0.4000000          :
          :  net charge                          0          :
          :  unpaired electrons                  0          :
          ...................................................

 iter      E             dE          RMSdq      gap      omega  full diag
   1    -63.0970585 -0.630971E+02  0.409E+00    3.78       0.0  T
   2    -63.1633418 -0.662832E-01  0.254E+00    3.16       1.0  T
   3    -63.1530128  0.103289E-01  0.109E+00    3.39       1.0  T
   4    -63.1675195 -0.145067E-01  0.407E-01    3.19       1.0  T
   5    -63.1735493 -0.602974E-02  0.900E-02    3.21       1.0  T
   6    -63.1737090 -0.159697E-03  0.374E-02    3.21       1.0  T
   7    -63.1737460 -0.370762E-04  0.187E-02    3.20       1.0  T
   8    -63.1737489 -0.287891E-05  0.621E-03    3.20       2.5  T
   9    -63.1737500 -0.103583E-05  0.142E-03    3.20      10.9  T
  10    -63.1737500 -0.367173E-07  0.628E-04    3.20      24.6  T
  11    -63.1737500 -0.864590E-08  0.256E-04    3.20      60.2  T

   *** convergence criteria satisfied after 11 iterations ***

         #    Occupation            Energy/Eh            Energy/eV
      -------------------------------------------------------------
         1        2.0000           -0.6733606             -18.3231
       ...           ...                  ...                  ...
        52        2.0000           -0.4118680             -11.2075
        53        2.0000           -0.4102004             -11.1621
        54        2.0000           -0.4068331             -11.0705
        55        2.0000           -0.4055600             -11.0358
        56        2.0000           -0.3911141             -10.6428
        57        2.0000           -0.3778215             -10.2810
        58        2.0000           -0.3683258             -10.0227 (HOMO)
        59                         -0.2507729              -6.8239 (LUMO)
        60                         -0.2410904              -6.5604
        61                         -0.2372558              -6.4561
        62                         -0.2353398              -6.4039
        63                         -0.2294183              -6.2428
       ...                                ...                  ...
       114                          0.6474520              17.6181
      -------------------------------------------------------------
                  HL-Gap            0.1175529 Eh            3.1988 eV
             Fermi-level           -0.3095493 Eh           -8.4233 eV

 SCC (total)                   0 d,  0 h,  0 min,  0.115 sec
 SCC setup                      ...        0 min,  0.000 sec (  0.314%)
 Dispersion                     ...        0 min,  0.001 sec (  0.459%)
 classical contributions        ...        0 min,  0.000 sec (  0.127%)
 integral evaluation            ...        0 min,  0.008 sec (  6.775%)
 iterations                     ...        0 min,  0.025 sec ( 21.772%)
 molecular gradient             ...        0 min,  0.081 sec ( 70.383%)
 printout                       ...        0 min,  0.000 sec (  0.164%)

         :::::::::::::::::::::::::::::::::::::::::::::::::::::
         ::                     SUMMARY                     ::
         :::::::::::::::::::::::::::::::::::::::::::::::::::::
         :: total energy             -62.111999641367 Eh    ::
         :: gradient norm              0.053228143591 Eh/a0 ::
         :: HOMO-LUMO gap              3.198778504926 eV    ::
         ::.................................................::
         :: SCC energy               -63.173547733830 Eh    ::
         :: -> isotropic ES            0.013721195935 Eh    ::
         :: -> anisotropic ES          0.007720432320 Eh    ::
         :: -> anisotropic XC          0.045844330700 Eh    ::
         :: -> dispersion             -0.048600224041 Eh    ::
         :: repulsion energy           1.061548092463 Eh    ::
         :: add. restraining           0.000000000000 Eh    ::
         :: total charge              -0.000000000000 e     ::
         :::::::::::::::::::::::::::::::::::::::::::::::::::::

      ----------------------------------------------------------- 
     |                   =====================                   |
     |                        A N C O P T                        |
     |                   =====================                   |
     |               Approximate Normal Coordinate               |
     |                Rational Function Optimizer                |
      ----------------------------------------------------------- 
      ----------------------------------------------------------- 
     |                   =====================                   |
     |                        A N C O P T                        |
     |                   =====================                   |
     |               Approximate Normal Coordinate               |
     |                Rational Function Optimizer                |
      ----------------------------------------------------------- 

          ...................................................
          :                      SETUP                      :
          :.................................................:
          :   optimization level            normal          :
          :   max. optcycles                   200          :
          :   ANC micro-cycles                  20          :
          :   degrees of freedom               120          :
          :.................................................:
          :   RF solver                   davidson          :
          :   write xtbopt.log                true          :
          :   linear?                        false          :
          :   energy convergence         0.5000000E-05 Eh   :
          :   grad. convergence          0.1000000E-02 Eh/α :
          :   maxmium RF displ.          1.0000000          :
          :   Hlow (freq-cutoff)         0.1000000E-01      :
          :   Hmax (freq-cutoff)         5.0000000          :
          :   S6 in model hess.         20.0000000          :
          ...................................................

generating ANC from exact Hessian ...
Using Lindh-Hessian (1995)
 Shifting diagonal of input Hessian by    9.7528925090706042E-003
 Lowest  eigenvalues of input Hessian
    0.000000    0.000000    0.000000    0.000000    0.000000    0.000000
    0.010000    0.010400    0.010563    0.010840    0.011104    0.011637
    0.011736    0.012133    0.012693    0.016776    0.017582    0.020679
 Highest eigenvalues
    1.925425    1.934175    1.936642    1.964267    2.003534    2.091020


........................................................................
.............................. CYCLE    1 ..............................
........................................................................

 iter      E             dE          RMSdq      gap      omega  full diag
   1    -63.1737500 -0.631737E+02  0.813E-05    3.20       0.0  T
   2    -63.1737500 -0.810161E-10  0.511E-05    3.20     302.2  T
   3    -63.1737500 -0.680913E-10  0.270E-05    3.20     572.2  T
     SCC iter.                  ...        0 min,  0.007 sec
     gradient                   ...        0 min,  0.077 sec
 * total energy  :   -62.1119996 Eh     change       -0.5158256E-09 Eh
   gradient norm :     0.0532272 Eh/α   predicted     0.0000000E+00 (-100.00%)
   displ. norm   :     0.3109849 α      lambda       -0.9129776E-02
   maximum displ.:     0.1219128 α      in ANC's #14, #12, #62, ...

........................................................................
.............................. CYCLE    2 ..............................
........................................................................

 iter      E             dE          RMSdq      gap      omega  full diag
   1    -63.2374218 -0.632374E+02  0.153E-01    3.23       0.0  T
   2    -63.2374434 -0.216281E-04  0.925E-02    3.22       1.0  T
   3    -63.2373821  0.613508E-04  0.381E-02    3.22       1.0  T
   4    -63.2374546 -0.725236E-04  0.666E-03    3.22       2.3  T
   5    -63.2374564 -0.179957E-05  0.235E-03    3.22       6.6  T
   6    -63.2374564 -0.279535E-07  0.120E-03    3.22      12.9  T
   7    -63.2374565 -0.314142E-07  0.322E-04    3.22      48.0  T
   8    -63.2374565 -0.171214E-08  0.130E-04    3.22     119.0  T
     SCC iter.                  ...        0 min,  0.075 sec
     gradient                   ...        0 min,  0.026 sec
 * total energy  :   -62.1179404 Eh     change       -0.5940794E-02 Eh
   gradient norm :     0.0156210 Eh/α   predicted    -0.5006946E-02 ( -15.72%)
   displ. norm   :     0.2994458 α      lambda       -0.2090539E-02
   maximum displ.:     0.1397365 α      in ANC's #14, #12, #9, ...

........................................................................
.............................. CYCLE    3 ..............................
........................................................................

 iter      E             dE          RMSdq      gap      omega  full diag
   1    -63.2650803 -0.632651E+02  0.833E-02    3.23       0.0  T
   2    -63.2650933 -0.130080E-04  0.514E-02    3.22       1.0  T
   3    -63.2650766  0.166446E-04  0.230E-02    3.23       1.0  T
   4    -63.2650983 -0.217049E-04  0.496E-03    3.23       3.1  T
   5    -63.2650994 -0.106364E-05  0.123E-03    3.22      12.5  T
   6    -63.2650994 -0.223139E-07  0.641E-04    3.22      24.1  T
   7    -63.2650994 -0.547507E-08  0.189E-04    3.22      81.5  T
     SCC iter.                  ...        0 min,  0.068 sec
     gradient                   ...        0 min,  0.026 sec
 * total energy  :   -62.1192653 Eh     change       -0.1324901E-02 Eh
   gradient norm :     0.0062790 Eh/α   predicted    -0.1139924E-02 ( -13.96%)
   displ. norm   :     0.2508476 α      lambda       -0.6514665E-03
   maximum displ.:     0.1311982 α      in ANC's #9, #7, #14, ...

........................................................................
.............................. CYCLE    4 ..............................
........................................................................

 iter      E             dE          RMSdq      gap      omega  full diag
   1    -63.2695713 -0.632696E+02  0.649E-02    3.22       0.0  T
   2    -63.2695747 -0.331751E-05  0.390E-02    3.22       1.0  T
   3    -63.2695671  0.758508E-05  0.136E-02    3.23       1.1  T
   4    -63.2695759 -0.884985E-05  0.227E-03    3.22       6.8  T
   5    -63.2695761 -0.213211E-06  0.618E-04    3.22      25.0  T
   6    -63.2695761 -0.369223E-08  0.348E-04    3.22      44.3  T
     SCC iter.                  ...        0 min,  0.013 sec
     gradient                   ...        0 min,  0.026 sec
 * total energy  :   -62.1197319 Eh     change       -0.4665267E-03 Eh
   gradient norm :     0.0052401 Eh/α   predicted    -0.3462612E-03 ( -25.78%)
   displ. norm   :     0.2819706 α      lambda       -0.4274868E-03
   maximum displ.:     0.1622309 α      in ANC's #9, #7, #3, ...

........................................................................
.............................. CYCLE    5 ..............................
........................................................................

 iter      E             dE          RMSdq      gap      omega  full diag
   1    -63.2676502 -0.632677E+02  0.802E-02    3.22       0.0  T
   2    -63.2676514 -0.112216E-05  0.471E-02    3.22       1.0  T
   3    -63.2676491  0.224518E-05  0.791E-03    3.22       1.9  T
   4    -63.2676518 -0.271500E-05  0.144E-03    3.22      10.7  T
   5    -63.2676519 -0.334846E-07  0.676E-04    3.22      22.8  T
   6    -63.2676519  0.608296E-09  0.267E-04    3.22      57.8  T
     SCC iter.                  ...        0 min,  0.013 sec
     gradient                   ...        0 min,  0.083 sec
 * total energy  :   -62.1200236 Eh     change       -0.2917570E-03 Eh
   gradient norm :     0.0035486 Eh/α   predicted    -0.2307395E-03 ( -20.91%)
   displ. norm   :     0.2312969 α      lambda       -0.2143090E-03
   maximum displ.:     0.1239802 α      in ANC's #9, #7, #3, ...

........................................................................
.............................. CYCLE    6 ..............................
........................................................................

 iter      E             dE          RMSdq      gap      omega  full diag
   1    -63.2649509 -0.632650E+02  0.694E-02    3.21       0.0  T
   2    -63.2649514 -0.518277E-06  0.406E-02    3.21       1.0  T
   3    -63.2649511  0.363190E-06  0.365E-03    3.21       4.2  T
   4    -63.2649517 -0.592383E-06  0.106E-03    3.21      14.5  T
   5    -63.2649517 -0.564822E-08  0.423E-04    3.21      36.5  T
   6    -63.2649517 -0.196548E-08  0.124E-04    3.21     124.0  T
     SCC iter.                  ...        0 min,  0.013 sec
     gradient                   ...        0 min,  0.083 sec
 * total energy  :   -62.1201853 Eh     change       -0.1617065E-03 Eh
   gradient norm :     0.0034567 Eh/α   predicted    -0.1128900E-03 ( -30.19%)
   displ. norm   :     0.2625089 α      lambda       -0.2039732E-03
   maximum displ.:     0.1226724 α      in ANC's #3, #7, #9, ...

........................................................................
.............................. CYCLE    7 ..............................
........................................................................

 iter      E             dE          RMSdq      gap      omega  full diag
   1    -63.2629879 -0.632630E+02  0.823E-02    3.20       0.0  T
   2    -63.2629890 -0.110962E-05  0.481E-02    3.20       1.0  T
   3    -63.2629881  0.938832E-06  0.536E-03    3.20       2.9  T
   4    -63.2629895 -0.136216E-05  0.148E-03    3.20      10.4  T
   5    -63.2629895 -0.261779E-07  0.659E-04    3.20      23.4  T
   6    -63.2629895 -0.225574E-08  0.205E-04    3.20      75.4  T
     SCC iter.                  ...        0 min,  0.013 sec
     gradient                   ...        0 min,  0.077 sec
 * total energy  :   -62.1203359 Eh     change       -0.1505426E-03 Eh
   gradient norm :     0.0036936 Eh/α   predicted    -0.1090176E-03 ( -27.58%)
   displ. norm   :     0.2443047 α      lambda       -0.1545735E-03
   maximum displ.:     0.1204939 α      in ANC's #3, #8, #7, ...

........................................................................
.............................. CYCLE    8 ..............................
........................................................................

 iter      E             dE          RMSdq      gap      omega  full diag
   1    -63.2632294 -0.632632E+02  0.785E-02    3.19       0.0  T
   2    -63.2632302 -0.820783E-06  0.460E-02    3.19       1.0  T
   3    -63.2632294  0.882731E-06  0.503E-03    3.19       3.1  T
   4    -63.2632306 -0.122163E-05  0.128E-03    3.19      12.0  T
   5    -63.2632306 -0.222643E-07  0.597E-04    3.19      25.8  T
   6    -63.2632306 -0.188869E-08  0.225E-04    3.19      68.7  T
     SCC iter.                  ...        0 min,  0.013 sec
     gradient                   ...        0 min,  0.083 sec
 * total energy  :   -62.1204443 Eh     change       -0.1084216E-03 Eh
   gradient norm :     0.0029055 Eh/α   predicted    -0.8190826E-04 ( -24.45%)
   displ. norm   :     0.1701292 α      lambda       -0.8673079E-04
   maximum displ.:     0.0901983 α      in ANC's #8, #3, #5, ...

........................................................................
.............................. CYCLE    9 ..............................
........................................................................

 iter      E             dE          RMSdq      gap      omega  full diag
   1    -63.2650447 -0.632650E+02  0.553E-02    3.18       0.0  T
   2    -63.2650450 -0.323429E-06  0.324E-02    3.18       1.0  T
   3    -63.2650444  0.645830E-06  0.379E-03    3.18       4.1  T
   4    -63.2650452 -0.831547E-06  0.831E-04    3.18      18.6  T
   5    -63.2650452 -0.330861E-08  0.373E-04    3.18      41.4  T
     SCC iter.                  ...        0 min,  0.011 sec
     gradient                   ...        0 min,  0.083 sec
 * total energy  :   -62.1205069 Eh     change       -0.6260669E-04 Eh
   gradient norm :     0.0017381 Eh/α   predicted    -0.4462096E-04 ( -28.73%)
   displ. norm   :     0.2217310 α      lambda       -0.5922209E-04
   maximum displ.:     0.1220462 α      in ANC's #8, #3, #5, ...

........................................................................
.............................. CYCLE   10 ..............................
........................................................................

 iter      E             dE          RMSdq      gap      omega  full diag
   1    -63.2672730 -0.632673E+02  0.691E-02    3.16       0.0  T
   2    -63.2672735 -0.487701E-06  0.405E-02    3.16       1.0  T
   3    -63.2672720  0.145289E-05  0.550E-03    3.16       2.8  T
   4    -63.2672738 -0.174851E-05  0.936E-04    3.16      16.5  T
   5    -63.2672738 -0.109371E-07  0.502E-04    3.16      30.7  T
   6    -63.2672738 -0.274650E-08  0.148E-04    3.16     104.6  T
     SCC iter.                  ...        0 min,  0.013 sec
     gradient                   ...        0 min,  0.077 sec
 * total energy  :   -62.1205648 Eh     change       -0.5793256E-04 Eh
   gradient norm :     0.0021955 Eh/α   predicted    -0.3025874E-04 ( -47.77%)
   displ. norm   :     0.1079081 α      lambda       -0.3788893E-04
   maximum displ.:     0.0580085 α      in ANC's #8, #3, #5, ...

........................................................................
.............................. CYCLE   11 ..............................
........................................................................

 iter      E             dE          RMSdq      gap      omega  full diag
   1    -63.2670387 -0.632670E+02  0.311E-02    3.16       0.0  T
   2    -63.2670388 -0.969945E-07  0.182E-02    3.16       1.0  T
   3    -63.2670386  0.169736E-06  0.216E-03    3.16       7.1  T
   4    -63.2670389 -0.217540E-06  0.417E-04    3.16      37.0  T
   5    -63.2670389 -0.198491E-08  0.214E-04    3.16      72.1  T
     SCC iter.                  ...        0 min,  0.011 sec
     gradient                   ...        0 min,  0.077 sec
 * total energy  :   -62.1205976 Eh     change       -0.3275257E-04 Eh
   gradient norm :     0.0017759 Eh/α   predicted    -0.1916742E-04 ( -41.48%)
   displ. norm   :     0.3044773 α      lambda       -0.6736856E-04
   maximum displ.:     0.1544819 α      in ANC's #8, #3, #9, ...

........................................................................
.............................. CYCLE   12 ..............................
........................................................................

 iter      E             dE          RMSdq      gap      omega  full diag
   1    -63.2657812 -0.632658E+02  0.827E-02    3.14       0.0  T
   2    -63.2657816 -0.474591E-06  0.485E-02    3.14       1.0  T
   3    -63.2657811  0.552538E-06  0.441E-03    3.14       3.5  T
   4    -63.2657819 -0.801660E-06  0.892E-04    3.14      17.3  T
   5    -63.2657819 -0.308361E-08  0.463E-04    3.14      33.3  T
     SCC iter.                  ...        0 min,  0.011 sec
     gradient                   ...        0 min,  0.083 sec
 * total energy  :   -62.1206547 Eh     change       -0.5711174E-04 Eh
   gradient norm :     0.0018238 Eh/α   predicted    -0.3507349E-04 ( -38.59%)
   displ. norm   :     0.0772515 α      lambda       -0.1291959E-04
   maximum displ.:     0.0404804 α      in ANC's #9, #3, #1, ...

........................................................................
.............................. CYCLE   13 ..............................
........................................................................

 iter      E             dE          RMSdq      gap      omega  full diag
   1    -63.2661346 -0.632661E+02  0.201E-02    3.14       0.0  T
   2    -63.2661347 -0.843133E-07  0.118E-02    3.14       1.3  T
   3    -63.2661344  0.318622E-06  0.272E-03    3.14       5.7  T
   4    -63.2661348 -0.373244E-06  0.296E-04    3.14      52.1  T
   5    -63.2661348 -0.132975E-08  0.165E-04    3.14      93.5  T
     SCC iter.                  ...        0 min,  0.011 sec
     gradient                   ...        0 min,  0.083 sec
 * total energy  :   -62.1206669 Eh     change       -0.1219871E-04 Eh
   gradient norm :     0.0008915 Eh/α   predicted    -0.6478011E-05 ( -46.90%)
   displ. norm   :     0.0582390 α      lambda       -0.6571342E-05
   maximum displ.:     0.0264711 α      in ANC's #2, #9, #1, ...

........................................................................
.............................. CYCLE   14 ..............................
........................................................................

 iter      E             dE          RMSdq      gap      omega  full diag
   1    -63.2660867 -0.632661E+02  0.181E-02    3.14       0.0  T
   2    -63.2660867 -0.837931E-07  0.106E-02    3.14       1.4  T
   3    -63.2660865  0.232280E-06  0.250E-03    3.14       6.2  T
   4    -63.2660868 -0.276594E-06  0.315E-04    3.14      49.0  T
   5    -63.2660868 -0.116365E-08  0.158E-04    3.14      97.4  T
     SCC iter.                  ...        0 min,  0.011 sec
     gradient                   ...        0 min,  0.077 sec
 * total energy  :   -62.1206725 Eh     change       -0.5598935E-05 Eh
   gradient norm :     0.0004952 Eh/α   predicted    -0.3294158E-05 ( -41.16%)
   displ. norm   :     0.0320549 α      lambda       -0.2768932E-05
   maximum displ.:     0.0165025 α      in ANC's #2, #6, #1, ...

........................................................................
.............................. CYCLE   15 ..............................
........................................................................

 iter      E             dE          RMSdq      gap      omega  full diag
   1    -63.2660886 -0.632661E+02  0.119E-02    3.14       0.0  T
   2    -63.2660886 -0.145988E-07  0.699E-03    3.14       2.2  T
   3    -63.2660886  0.229600E-07  0.858E-04    3.14      18.0  T
   4    -63.2660886 -0.307171E-07  0.150E-04    3.14     102.9  T
     SCC iter.                  ...        0 min,  0.009 sec
     gradient                   ...        0 min,  0.077 sec
 * total energy  :   -62.1206760 Eh     change       -0.3489421E-05 Eh
   gradient norm :     0.0005158 Eh/α   predicted    -0.1385968E-05 ( -60.28%)
   displ. norm   :     0.0699141 α      lambda       -0.5603092E-05
   maximum displ.:     0.0343739 α      in ANC's #2, #5, #1, ...

   *** GEOMETRY OPTIMIZATION CONVERGED AFTER 15 ITERATIONS ***

------------------------------------------------------------------------
 total energy gain   :        -0.0086763 Eh       -5.4445 kcal/mol
 total RMSD          :         0.3279148 a0        0.1735 Å
 total power (kW/mol):        -1.5186486 (step)  -14.3873 (real)
------------------------------------------------------------------------

 ANCopt (total)                0 d,  0 h,  0 min,  1.583 sec
 optimizer setup                ...        0 min,  0.000 sec (  0.005%)
 model hessian                  ...        0 min,  0.011 sec (  0.711%)
 ANC generation                 ...        0 min,  0.002 sec (  0.096%)
 coordinate transformation      ...        0 min,  0.000 sec (  0.007%)
 single point calculation       ...        0 min,  1.565 sec ( 98.841%)
 optimization log               ...        0 min,  0.003 sec (  0.178%)
 hessian update                 ...        0 min,  0.000 sec (  0.012%)
 rational function              ...        0 min,  0.001 sec (  0.060%)

================
 final structure:
================
42
 xtb: 6.7.1 (edcfbbe)
N           -2.61445311859682       -1.52996332848243       -0.04217624732082
C           -2.03740069759847       -0.38520866369164       -0.71528553093753
C           -0.53522487176313       -0.32689726769013       -0.53247829436564
C            0.24088733868058        0.30825987893762       -1.49401275054478
C            1.61190147522850        0.38757770960184       -1.35163736133440
C            2.24400759298834       -0.16249722171481       -0.23872732378870
C            3.70468414456293       -0.08791097057401       -0.08635781887262
C            4.54436089858775       -0.32310007767494       -1.17239804771217
C            5.91766547854368       -0.26391528408224       -1.02500332678656
C            6.47348944135136        0.03820702223970        0.20682469767210
C            5.64762699727329        0.27881188451169        1.29213207996626
C            4.27442582542232        0.21317687853414        1.14847062268780
C            1.46074125681634       -0.79079148634015        0.72561283047820
C            0.08897659985233       -0.87384117463430        0.58070152469272
C           -2.72475000242609        0.88097857612179       -0.23965486603619
C           -2.18350732024289        1.67292451654432        0.76369186052380
C           -2.85630403525342        2.80064771065540        1.20119102732281
C           -4.07501568364468        3.14597567709807        0.64336865875455
C           -4.62039282396864        2.35949952315387       -0.35701154135980
C           -3.94826877697450        1.23322525898013       -0.79564850836733
C           -2.66832211072560       -2.80094938417566       -0.54220964310100
C           -3.22190779831273       -3.57005366411848        0.43881292427906
N           -3.50227182464303       -2.80399172541077        1.52491107357886
C           -3.12518248513172       -1.59593440236140        1.21027642974630
H           -2.24753432028297       -0.50693225071167       -1.78740442783316
H           -0.23638031435870        0.74581424465859       -2.35972414799727
H            2.20000882915208        0.89470610408799       -2.10228193697349
H            4.11582241699820       -0.57578333316050       -2.13156156154819
H            6.55772332774314       -0.45644718372660       -1.87381001509607
H            7.54638739233055        0.08561339957625        0.32082725913003
H            6.07601849009501        0.51868241033107        2.25441696571511
H            3.63387718331676        0.41586395148274        1.99466801946757
H            1.93297941343997       -1.23776889867374        1.58789848455513
H           -0.49713147690261       -1.37447748047035        1.33814963205006
H           -1.23313273354040        1.40880847383746        1.20386586467600
H           -2.42695187925788        3.40969579863752        1.98284567561543
H           -4.59907213973994        4.02507475299413        0.98751941444744
H           -5.57095070554958        2.62293826584443       -0.79649014177610
H           -4.37854003561305        0.61856904678366       -1.57388258256078
H           -2.31612118094658       -3.03795352423540       -1.52538400408535
H           -3.43736888197787       -4.61963721109590        0.43310378393446
H           -3.21529888493094       -0.74089655158593        1.85015124910644

 Bond Distances (Angstroems)
 ---------------------------
N1-C2=1.4479         N1-C21=1.3669        N1-C24=1.3542        C2-N1=1.4479         C2-C3=1.5144         C2-C15=1.5172        
C2-H25=1.0993        C3-C2=1.5144         C3-C4=1.3894         C3-C14=1.3885        C4-C3=1.3894         C4-C5=1.3807         
C4-H26=1.0811        C5-C4=1.3807         C5-C6=1.3931         C5-H27=1.0801        C6-C5=1.3931         C6-C7=1.4705         
C6-C13=1.3922        C7-C6=1.4705         C7-C8=1.3928         C7-C12=1.3929        C8-C7=1.3928         C8-C9=1.3825         
C8-H28=1.0805        C9-C8=1.3825         C9-C10=1.3848        C9-H29=1.0804        C10-C9=1.3848        C10-C11=1.3849       
C10-H30=1.0800       C11-C10=1.3849       C11-C12=1.3823       C11-H31=1.0803       C12-C7=1.3929        C12-C11=1.3823       
C12-H32=1.0805       C13-C6=1.3922        C13-C14=1.3819       C13-H33=1.0800       C14-C3=1.3885        C14-C13=1.3819       
C14-H34=1.0807       C15-C2=1.5172        C15-C16=1.3881       C15-C20=1.3893       C16-C15=1.3881       C16-C17=1.3841       
C16-H35=1.0801       C17-C16=1.3841       C17-C18=1.3841       C17-H36=1.0799       C18-C17=1.3841       C18-C19=1.3845       
C18-H37=1.0798       C19-C18=1.3845       C19-C20=1.3830       C19-H38=1.0799       C20-C15=1.3893       C20-C19=1.3830       
C20-H39=1.0810       C21-N1=1.3669        C21-C22=1.3640       C21-H40=1.0709       C22-C21=1.3640       C22-N23=1.3583       
C22-H41=1.0715       N23-C22=1.3583       N23-C24=1.3041       C24-N1=1.3542        C24-N23=1.3041       C24-H42=1.0718       
H25-C2=1.0993        H26-C4=1.0811        H27-C5=1.0801        H28-C8=1.0805        H29-C9=1.0804        H30-C10=1.0800       
H31-C11=1.0803       H32-C12=1.0805       H33-C13=1.0800       H34-C14=1.0807       H35-C16=1.0801       H36-C17=1.0799       
H37-C18=1.0798       H38-C19=1.0799       H39-C20=1.0810       H40-C21=1.0709       H41-C22=1.0715       H42-C24=1.0718       
 C  H  Rav=1.0799 sigma=0.0058  Rmin=1.0709  Rmax=1.0993    18
 C  C  Rav=1.4011 sigma=0.0408  Rmin=1.3640  Rmax=1.5172    22
 N  C  Rav=1.3663 sigma=0.0464  Rmin=1.3041  Rmax=1.4479     5

 selected bond angles (degree)
 --------------------
C21-N1-C2=125.51               C24-N1-C2=128.23               C24-N1-C21=106.15              C3-C2-N1=111.69                
C15-C2-N1=109.48               C15-C2-C3=112.30               H25-C2-N1=106.84               H25-C2-C3=108.16               
H25-C2-C15=108.15              C4-C3-C2=119.22                C14-C3-C2=121.84               C14-C3-C4=118.93               
C5-C4-C3=120.64                H26-C4-C3=119.51               H26-C4-C5=119.85               C6-C5-C4=120.68                
H27-C5-C4=119.74               H27-C5-C6=119.57               C7-C6-C5=120.89                C13-C6-C5=118.44               
C13-C6-C7=120.66               C8-C7-C6=120.63                C12-C7-C6=120.61               C12-C7-C8=118.76               
C9-C8-C7=120.57                H28-C8-C7=119.51               H28-C8-C9=119.91               C10-C9-C8=120.19               
H29-C9-C8=119.81               H29-C9-C10=120.00              C11-C10-C9=119.71              H30-C10-C9=120.15              
H30-C10-C11=120.14             

 selected dihedral angles (degree)
 ---------------------------------
C3-C2-N1-C21=277.26           C3-C2-N1-C24= 92.80           C15-C2-N1-C21=152.24          C15-C2-N1-C24=327.78          
H25-C2-N1-C21= 35.35          H25-C2-N1-C24=210.88          C4-C3-C2-N1=153.44            C4-C3-C2-C15=276.88           
C4-C3-C2-H25= 36.14           C14-C3-C2-N1=332.47           C14-C3-C2-C15= 95.91          C14-C3-C2-H25=215.17          
C5-C4-C3-C2=179.50            C5-C4-C3-C14=  0.44           H26-C4-C3-C2=359.65           H26-C4-C3-C14=180.59          
C6-C5-C4-C3=359.73            C6-C5-C4-H26=179.58           H27-C5-C4-C3=180.71           H27-C5-C4-H26=  0.55          
C7-C6-C5-C4=179.62            C7-C6-C5-H27=358.65           C13-C6-C5-C4=359.89           C13-C6-C5-H27=178.91          
C8-C7-C6-C5=317.49            C8-C7-C6-C13=137.22           C12-C7-C6-C5=137.79           C12-C7-C6-C13=317.52          
C9-C8-C7-C6=180.56            C9-C8-C7-C12=  0.26           H28-C8-C7-C6=359.16           H28-C8-C7-C12=178.87          
C10-C9-C8-C7=359.64           C10-C9-C8-H28=181.04          H29-C9-C8-C7=179.50           H29-C9-C8-H28=  0.90          
C11-C10-C9-C8=  0.11          C11-C10-C9-H29=180.25         H30-C10-C9-C8=180.09          H30-C10-C9-H29=  0.23         
           -------------------------------------------------
          |                Final Singlepoint                |
           -------------------------------------------------

          ...................................................
          :                      SETUP                      :
          :.................................................:
          :  # basis functions                 114          :
          :  # atomic orbitals                 114          :
          :  # shells                           66          :
          :  # electrons                       116          :
          :  max. iterations                   250          :
          :  Hamiltonian                  GFN2-xTB          :
          :  restarted?                      false          :
          :  GBSA solvation                  false          :
          :  PC potential                    false          :
          :  electronic temp.          300.0000000     K    :
          :  accuracy                    1.0000000          :
          :  -> integral cutoff          0.2500000E+02      :
          :  -> integral neglect         0.1000000E-07      :
          :  -> SCF convergence          0.1000000E-05 Eh   :
          :  -> wf. convergence          0.1000000E-03 e    :
          :  Broyden damping             0.4000000          :
          :  net charge                          0          :
          :  unpaired electrons                  0          :
          ...................................................

 iter      E             dE          RMSdq      gap      omega  full diag
   1    -63.2660886 -0.632661E+02  0.756E-05    3.14       0.0  T
   2    -63.2660886 -0.857341E-10  0.509E-05    3.14     303.1  T
   3    -63.2660886 -0.852651E-10  0.219E-05    3.14     704.3  T

   *** convergence criteria satisfied after 3 iterations ***

         #    Occupation            Energy/Eh            Energy/eV
      -------------------------------------------------------------
         1        2.0000           -0.6778040             -18.4440
       ...           ...                  ...                  ...
        52        2.0000           -0.4142696             -11.2728
        53        2.0000           -0.4121430             -11.2150
        54        2.0000           -0.4084270             -11.1139
        55        2.0000           -0.4074568             -11.0875
        56        2.0000           -0.3901382             -10.6162
        57        2.0000           -0.3788185             -10.3082
        58        2.0000           -0.3672569              -9.9936 (HOMO)
        59                         -0.2519488              -6.8559 (LUMO)
        60                         -0.2374404              -6.4611
        61                         -0.2343851              -6.3779
        62                         -0.2314325              -6.2976
        63                         -0.2259548              -6.1485
       ...                                ...                  ...
       114                          0.6845886              18.6286
      -------------------------------------------------------------
                  HL-Gap            0.1153080 Eh            3.1377 eV
             Fermi-level           -0.3096029 Eh           -8.4247 eV

 SCC (total)                   0 d,  0 h,  0 min,  0.040 sec
 SCC setup                      ...        0 min,  0.000 sec (  0.739%)
 Dispersion                     ...        0 min,  0.000 sec (  0.765%)
 classical contributions        ...        0 min,  0.000 sec (  0.355%)
 integral evaluation            ...        0 min,  0.008 sec ( 18.728%)
 iterations                     ...        0 min,  0.007 sec ( 16.074%)
 molecular gradient             ...        0 min,  0.025 sec ( 62.961%)
 printout                       ...        0 min,  0.000 sec (  0.359%)

         :::::::::::::::::::::::::::::::::::::::::::::::::::::
         ::                     SUMMARY                     ::
         :::::::::::::::::::::::::::::::::::::::::::::::::::::
         :: total energy             -62.120675982254 Eh    ::
         :: gradient norm              0.000515767277 Eh/a0 ::
         :: HOMO-LUMO gap              3.137690880269 eV    ::
         ::.................................................::
         :: SCC energy               -63.265870416255 Eh    ::
         :: -> isotropic ES            0.014018848149 Eh    ::
         :: -> anisotropic ES          0.007053126138 Eh    ::
         :: -> anisotropic XC          0.043513368418 Eh    ::
         :: -> dispersion             -0.049893004768 Eh    ::
         :: repulsion energy           1.145194434001 Eh    ::
         :: add. restraining           0.000000000000 Eh    ::
         :: total charge               0.000000000000 e     ::
         :::::::::::::::::::::::::::::::::::::::::::::::::::::

           -------------------------------------------------
          |                Property Printout                |
           -------------------------------------------------

    * Orbital Energies and Occupations

         #    Occupation            Energy/Eh            Energy/eV
      -------------------------------------------------------------
         1        2.0000           -0.6778040             -18.4440
       ...           ...                  ...                  ...
        46        2.0000           -0.4350739             -11.8390
        47        2.0000           -0.4332309             -11.7888
        48        2.0000           -0.4265498             -11.6070
        49        2.0000           -0.4245653             -11.5530
        50        2.0000           -0.4168202             -11.3423
        51        2.0000           -0.4158716             -11.3164
        52        2.0000           -0.4142696             -11.2728
        53        2.0000           -0.4121430             -11.2150
        54        2.0000           -0.4084270             -11.1139
        55        2.0000           -0.4074568             -11.0875
        56        2.0000           -0.3901382             -10.6162
        57        2.0000           -0.3788185             -10.3082
        58        2.0000           -0.3672569              -9.9936 (HOMO)
        59                         -0.2519488              -6.8559 (LUMO)
        60                         -0.2374404              -6.4611
        61                         -0.2343851              -6.3779
        62                         -0.2314325              -6.2976
        63                         -0.2259548              -6.1485
        64                         -0.2061274              -5.6090
        65                         -0.1937295              -5.2716
        66                         -0.1554075              -4.2289
        67                         -0.1119528              -3.0464
        68                         -0.1078698              -2.9353
        69                         -0.0812998              -2.2123
       ...                                ...                  ...
       114                          0.6845886              18.6286
      -------------------------------------------------------------
                  HL-Gap            0.1153080 Eh            3.1377 eV
             Fermi-level           -0.3096029 Eh           -8.4247 eV

     #   Z          covCN         q      C6AA      α(0)
     1   7 N        2.864    -0.022    21.672     6.914
     2   6 C        3.800     0.033    20.027     6.372
     3   6 C        2.973     0.002    27.979     8.676
     4   6 C        2.923    -0.037    28.923     8.819
     5   6 C        2.924    -0.033    28.831     8.805
     6   6 C        2.977     0.010    27.789     8.647
     7   6 C        2.977     0.010    27.791     8.647
     8   6 C        2.925    -0.033    28.831     8.805
     9   6 C        2.918    -0.029    28.726     8.789
    10   6 C        2.920    -0.030    28.754     8.794
    11   6 C        2.918    -0.029    28.724     8.789
    12   6 C        2.925    -0.033    28.829     8.805
    13   6 C        2.925    -0.033    28.834     8.806
    14   6 C        2.921    -0.034    28.841     8.807
    15   6 C        2.975     0.005    27.895     8.663
    16   6 C        2.922    -0.033    28.814     8.803
    17   6 C        2.920    -0.028    28.691     8.784
    18   6 C        2.920    -0.028    28.705     8.786
    19   6 C        2.919    -0.027    28.678     8.782
    20   6 C        2.925    -0.033    28.835     8.806
    21   6 C        3.050    -0.026    28.608     8.772
    22   6 C        3.162     0.016    27.325     8.544
    23   7 N        1.916    -0.272    27.916     7.834
    24   6 C        3.177     0.083    25.765     8.289
    25   1 H        0.923     0.050     2.324     2.384
    26   1 H        0.926     0.028     2.608     2.526
    27   1 H        0.926     0.036     2.505     2.475
    28   1 H        0.926     0.031     2.571     2.507
    29   1 H        0.926     0.031     2.575     2.509
    30   1 H        0.926     0.031     2.574     2.509
    31   1 H        0.926     0.031     2.570     2.507
    32   1 H        0.926     0.032     2.565     2.504
    33   1 H        0.926     0.037     2.489     2.467
    34   1 H        0.926     0.038     2.482     2.464
    35   1 H        0.926     0.036     2.501     2.473
    36   1 H        0.926     0.036     2.498     2.472
    37   1 H        0.926     0.037     2.495     2.470
    38   1 H        0.926     0.037     2.488     2.467
    39   1 H        0.926     0.033     2.550     2.497
    40   1 H        0.926     0.024     2.679     2.560
    41   1 H        0.926     0.029     2.598     2.520
    42   1 H        0.926     0.028     2.614     2.528

 Mol. C6AA /au·bohr⁶  :      23986.967198
 Mol. C8AA /au·bohr⁸  :     595543.079217
 Mol. α(0) /au        :        249.378321


Wiberg/Mayer (AO) data.
largest (>0.10) Wiberg bond orders for each atom

 ---------------------------------------------------------------------------
     #   Z sym  total        # sym  WBO       # sym  WBO       # sym  WBO
 ---------------------------------------------------------------------------
     1   7 N    3.636 --    24 C    1.249    21 C    1.201     2 C    0.967
                            23 N    0.102
     2   6 C    3.971 --     3 C    0.980    15 C    0.972     1 N    0.967
                            25 H    0.951
     3   6 C    3.982 --    14 C    1.410     4 C    1.403     2 C    0.980
                             6 C    0.102
     4   6 C    3.990 --     5 C    1.459     3 C    1.403    26 H    0.969
                            13 C    0.107
     5   6 C    3.990 --     4 C    1.459     6 C    1.384    27 H    0.968
                            14 C    0.106
     6   6 C    3.988 --    13 C    1.390     5 C    1.384     7 C    1.046
                             3 C    0.102
     7   6 C    3.989 --     8 C    1.390    12 C    1.389     6 C    1.046
                            10 C    0.106
     8   6 C    3.991 --     9 C    1.451     7 C    1.390    28 H    0.969
                            11 C    0.109
     9   6 C    3.992 --     8 C    1.451    10 C    1.435    29 H    0.971
                            12 C    0.109
    10   6 C    3.987 --     9 C    1.435    11 C    1.435    30 H    0.972
                             7 C    0.106
    11   6 C    3.992 --    12 C    1.452    10 C    1.435    31 H    0.971
                             8 C    0.109
    12   6 C    3.991 --    11 C    1.452     7 C    1.389    32 H    0.969
                             9 C    0.109
    13   6 C    3.991 --    14 C    1.450     6 C    1.390    33 H    0.968
                             4 C    0.107
    14   6 C    3.991 --    13 C    1.450     3 C    1.410    34 H    0.966
                             5 C    0.106
    15   6 C    3.985 --    16 C    1.418    20 C    1.413     2 C    0.972
                            18 C    0.110
    16   6 C    3.991 --    17 C    1.441    15 C    1.418    35 H    0.966
                            19 C    0.111
    17   6 C    3.992 --    16 C    1.441    18 C    1.441    36 H    0.971
                            20 C    0.112
    18   6 C    3.991 --    17 C    1.441    19 C    1.437    37 H    0.971
                            15 C    0.110
    19   6 C    3.991 --    20 C    1.446    18 C    1.437    38 H    0.971
                            16 C    0.111
    20   6 C    3.991 --    19 C    1.446    15 C    1.413    39 H    0.969
                            17 C    0.112
    21   6 C    3.940 --    22 C    1.581     1 N    1.201    40 H    0.971
                            24 C    0.113
    22   6 C    3.975 --    21 C    1.581    23 N    1.299    41 H    0.971
    23   7 N    3.024 --    24 C    1.545    22 C    1.299     1 N    0.102
    24   6 C    3.958 --    23 N    1.545     1 N    1.249    42 H    0.964
                            21 C    0.113
    25   1 H    0.997 --     2 C    0.951
    26   1 H    0.999 --     4 C    0.969
    27   1 H    0.998 --     5 C    0.968
    28   1 H    0.999 --     8 C    0.969
    29   1 H    0.998 --     9 C    0.971
    30   1 H    0.999 --    10 C    0.972
    31   1 H    0.998 --    11 C    0.971
    32   1 H    0.999 --    12 C    0.969
    33   1 H    0.998 --    13 C    0.968
    34   1 H    0.998 --    14 C    0.966
    35   1 H    0.999 --    16 C    0.966
    36   1 H    0.998 --    17 C    0.971
    37   1 H    0.998 --    18 C    0.971
    38   1 H    0.998 --    19 C    0.971
    39   1 H    0.999 --    20 C    0.969
    40   1 H    0.999 --    21 C    0.971
    41   1 H    0.998 --    22 C    0.971
    42   1 H    0.999 --    24 C    0.964
 ---------------------------------------------------------------------------

Topologies differ in total number of bonds
Writing topology from bond orders to xtbtopo.mol

molecular dipole:
                 x           y           z       tot (Debye)
 q only:        0.595       0.984      -0.608
   full:        0.762       1.169      -1.007       4.373
molecular quadrupole (traceless):
                xx          xy          yy          xz          yz          zz
 q only:        0.753     -11.147      -3.401       6.781       5.952       2.648
  q+dip:        2.408     -14.887      -8.580      12.752      10.921       6.172
   full:        0.564     -14.665      -4.987      11.858      10.312       4.423

           -------------------------------------------------
          |                Geometry Summary                 |
           -------------------------------------------------

      molecular mass/u    :      310.3925297
   center of mass at/Å    :       -0.1068344      -0.1057047       0.0531386
  moments of inertia/u·Å² :        0.1134382E+04   0.4159350E+04   0.4744376E+04
rotational constants/cm⁻¹ :        0.1486063E-01   0.4052949E-02   0.3553182E-02

 * 42 selected distances

     #   Z          #   Z                                           value/Å
     1   7 N        2   6 C                                       1.4479397 (max)
     3   6 C        4   6 C                                       1.3893609
     4   6 C        5   6 C                                       1.3806673
     5   6 C        6   6 C                                       1.3930936
     7   6 C        8   6 C                                       1.3927867
     8   6 C        9   6 C                                       1.3824594
     9   6 C       10   6 C                                       1.3847811
    10   6 C       11   6 C                                       1.3848581
     7   6 C       12   6 C                                       1.3928608
    11   6 C       12   6 C                                       1.3822548
     6   6 C       13   6 C                                       1.3921969
     3   6 C       14   6 C                                       1.3885045
    13   6 C       14   6 C                                       1.3818955
    15   6 C       16   6 C                                       1.3881020
    16   6 C       17   6 C                                       1.3841318
    17   6 C       18   6 C                                       1.3840793
    18   6 C       19   6 C                                       1.3844645
    15   6 C       20   6 C                                       1.3893183
    19   6 C       20   6 C                                       1.3829849
     1   7 N       21   6 C                                       1.3668728
    21   6 C       22   6 C                                       1.3639590
    22   6 C       23   7 N                                       1.3583315
     1   7 N       24   6 C                                       1.3541915
    23   7 N       24   6 C                                       1.3040683
     2   6 C       25   1 H                                       1.0992779
     4   6 C       26   1 H                                       1.0810618
     5   6 C       27   1 H                                       1.0800541
     8   6 C       28   1 H                                       1.0805040
     9   6 C       29   1 H                                       1.0803775
    10   6 C       30   1 H                                       1.0799788
    11   6 C       31   1 H                                       1.0803007
    12   6 C       32   1 H                                       1.0804790
    13   6 C       33   1 H                                       1.0799697
    14   6 C       34   1 H                                       1.0806883
    16   6 C       35   1 H                                       1.0801493
    17   6 C       36   1 H                                       1.0799384
    18   6 C       37   1 H                                       1.0797640
    19   6 C       38   1 H                                       1.0798620
    20   6 C       39   1 H                                       1.0810107
    21   6 C       40   1 H                                       1.0709101 (min)
    22   6 C       41   1 H                                       1.0714858
    24   6 C       42   1 H                                       1.0717512

 * 3 distinct bonds (by element types)

   Z      Z             #   av. dist./Å        max./Å        min./Å
   1 H    6 C          18     1.0798646     1.0992779     1.0709101
   6 C    6 C          19     1.3854084     1.3930936     1.3639590
   6 C    7 N           5     1.3662807     1.4479397     1.3040683


optimized geometry written to: xtbopt.xyz


           -------------------------------------------------
          | TOTAL ENERGY              -62.120675982254 Eh   |
          | GRADIENT NORM               0.000515767277 Eh/α |
          | HOMO-LUMO GAP               3.137690880269 eV   |
           -------------------------------------------------

------------------------------------------------------------------------
 * finished run on 2025/05/15 at 16:32:33.490     
------------------------------------------------------------------------
 total:
 * wall-time:     0 d,  0 h,  0 min,  1.862 sec
 *  cpu-time:     0 d,  0 h,  0 min,  0.817 sec
 * ratio c/w:     0.439 speedup
 SCF:
 * wall-time:     0 d,  0 h,  0 min,  0.116 sec
 *  cpu-time:     0 d,  0 h,  0 min,  0.059 sec
 * ratio c/w:     0.513 speedup
 ANC optimizer:
 * wall-time:     0 d,  0 h,  0 min,  1.626 sec
 *  cpu-time:     0 d,  0 h,  0 min,  0.746 sec
 * ratio c/w:     0.459 speedup



----- Single-point -----
      -----------------------------------------------------------      
     |                   =====================                   |     
     |                           x T B                           |     
     |                   =====================                   |     
     |                         S. Grimme                         |     
     |          Mulliken Center for Theoretical Chemistry        |     
     |                    University of Bonn                     |     
      -----------------------------------------------------------      

   * xtb version 6.7.1 (edcfbbe) compiled by 'conda@3ef47c1a292c' on 2024-11-25

   xtb is free software: you can redistribute it and/or modify it under
   the terms of the GNU Lesser General Public License as published by
   the Free Software Foundation, either version 3 of the License, or
   (at your option) any later version.
   
   xtb is distributed in the hope that it will be useful,
   but WITHOUT ANY WARRANTY; without even the implied warranty of
   MERCHANTABILITY or FITNESS FOR A PARTICULAR PURPOSE.  See the
   GNU Lesser General Public License for more details.
   
   Cite this work as:
   * C. Bannwarth, E. Caldeweyher, S. Ehlert, A. Hansen, P. Pracht,
     J. Seibert, S. Spicher, S. Grimme, WIREs Comput. Mol. Sci., 2020, 11,
     e01493. DOI: 10.1002/wcms.1493
   
   for GFN2-xTB:
   * C. Bannwarth, S. Ehlert and S. Grimme., J. Chem. Theory Comput., 2019,
     15, 1652-1671. DOI: 10.1021/acs.jctc.8b01176
   for GFN1-xTB:
   * S. Grimme, C. Bannwarth, P. Shushkov, J. Chem. Theory Comput., 2017,
     13, 1989-2009. DOI: 10.1021/acs.jctc.7b00118
   for GFN0-xTB:
   * P. Pracht, E. Caldeweyher, S. Ehlert, S. Grimme, ChemRxiv, 2019, preprint.
     DOI: 10.26434/chemrxiv.8326202.v1
   for GFN-FF:
   * S. Spicher and S. Grimme, Angew. Chem. Int. Ed., 2020, 59, 15665-15673.
     DOI: 10.1002/anie.202004239
   
   for ALPB and GBSA implicit solvation:
   * S. Ehlert, M. Stahn, S. Spicher, S. Grimme, J. Chem. Theory Comput.,
     2021, 17, 4250-4261. DOI: 10.1021/acs.jctc.1c00471
   
   for ddCOSMO and CPCM-X implicit solvation:
   * M. Stahn, S. Ehlert, S. Grimme, J. Phys. Chem. A,
     2023, XX, XXXX-XXXX. DOI: 10.1021/acs.jpca.3c04382
   
   for DFT-D4:
   * E. Caldeweyher, C. Bannwarth and S. Grimme, J. Chem. Phys., 2017,
     147, 034112. DOI: 10.1063/1.4993215
   * E. Caldeweyher, S. Ehlert, A. Hansen, H. Neugebauer, S. Spicher,
     C. Bannwarth and S. Grimme, J. Chem. Phys., 2019, 150, 154122.
     DOI: 10.1063/1.5090222
   * E. Caldeweyher, J.-M. Mewes, S. Ehlert and S. Grimme, Phys. Chem. Chem. Phys.
     2020, 22, 8499-8512. DOI: 10.1039/D0CP00502A
   
   for sTDA-xTB:
   * S. Grimme and C. Bannwarth, J. Chem. Phys., 2016, 145, 054103.
     DOI: 10.1063/1.4959605
   
   in the mass-spec context:
   * V. Asgeirsson, C. Bauer and S. Grimme, Chem. Sci., 2017, 8, 4879.
     DOI: 10.1039/c7sc00601b
   * J. Koopman and S. Grimme, ACS Omega 2019, 4, 12, 15120-15133.
     DOI: 10.1021/acsomega.9b02011
   
   for metadynamics refer to:
   * S. Grimme, J. Chem. Theory Comput., 2019, 155, 2847-2862
     DOI: 10.1021/acs.jctc.9b00143
   
   for SPH calculations refer to:
   * S. Spicher and S. Grimme, J. Chem. Theory Comput., 2021, 17, 1701-1714
     DOI: 10.1021/acs.jctc.0c01306
   
   for ONIOM refer to:
   * C. Plett, A. Katbashev, S. Ehlert, S. Grimme, M. Bursch,
     Phys. Chem. Chem. Phys., 2023, 25, 17860-17868. DOI: 10.1039/D3CP02178E
   
   for DIPRO refer to:
   * J. Kohn, N. Gildemeister, S. Grimme, D. Fazzi, A. Hansen,
     J. Chem. Phys., 2023, just accepted.
   
   for PTB refer to:
   * S. Grimme, M. Mueller, A. Hansen, J. Chem. Phys., 2023, 158, 124111.
     DOI: 10.1063/5.0137838
   
   with help from (in alphabetical order)
   P. Atkinson, C. Bannwarth, F. Bohle, G. Brandenburg, E. Caldeweyher
   M. Checinski, S. Dohm, S. Ehlert, S. Ehrlich, I. Gerasimov, C. Hölzer
   A. Katbashev, J. Kohn, J. Koopman, C. Lavigne, S. Lehtola, F. März, M. Müller,
   F. Musil, H. Neugebauer, J. Pisarek, C. Plett, P. Pracht, F. Pultar,
   J. Seibert, P. Shushkov, S. Spicher, M. Stahn, M. Steiner, T. Strunk,
   J. Stückrath, T. Rose, and J. Unsleber
   
 * started run on 2025/05/15 at 16:32:33.506     
   ID    Z sym.   atoms
    1    7 N      1, 23
    2    6 C      2-22, 24
    3    1 H      25-42

           -------------------------------------------------
          |                Calculation Setup                |
           -------------------------------------------------

          program call               : xtb /rds/general/user/hgt20/home/callum/QDESCP/Bifonazole_rdkit_conf_3/Bifonazole_rdkit_conf_3.xyz --acc 1 --gfn 2 --chrg 0 --uhf 0 --etemp 300 --input /rds/general/user/hgt20/home/callum/QDESCP/Bifonazole_rdkit_conf_3/Bifonazole_rdkit_conf_3_xtb.inp -P 1
          hostname                   : login-c
          coordinate file            : /rds/general/user/hgt20/home/callum/QDESCP/Bifonazole_rdkit_conf_3/Bifonazole_rdkit_conf_3.xyz
          omp threads                :                     1


           -------------------------------------------------
          |                 G F N 2 - x T B                 |
           -------------------------------------------------

        Reference                      10.1021/acs.jctc.8b01176
      * Hamiltonian:
        H0-scaling (s, p, d)           1.850000    2.230000    2.230000
        zeta-weighting                 0.500000
      * Dispersion:
        s8                             2.700000
        a1                             0.520000
        a2                             5.000000
        s9                             5.000000
      * Repulsion:
        kExp                           1.500000    1.000000
        rExp                           1.000000
      * Coulomb:
        alpha                          2.000000
        third order                    shell-resolved
        anisotropic                    true
        a3                             3.000000
        a5                             4.000000
        cn-shift                       1.200000
        cn-exp                         4.000000
        max-rad                        5.000000

q/qsh data taken from xtbrestart
CAMM data taken from xtbrestart

          ...................................................
          :                      SETUP                      :
          :.................................................:
          :  # basis functions                 114          :
          :  # atomic orbitals                 114          :
          :  # shells                           66          :
          :  # electrons                       116          :
          :  max. iterations                   250          :
          :  Hamiltonian                  GFN2-xTB          :
          :  restarted?                       true          :
          :  GBSA solvation                  false          :
          :  PC potential                    false          :
          :  electronic temp.          300.0000000     K    :
          :  accuracy                    1.0000000          :
          :  -> integral cutoff          0.2500000E+02      :
          :  -> integral neglect         0.1000000E-07      :
          :  -> SCF convergence          0.1000000E-05 Eh   :
          :  -> wf. convergence          0.1000000E-03 e    :
          :  Broyden damping             0.4000000          :
          :  net charge                          0          :
          :  unpaired electrons                  0          :
          ...................................................

 iter      E             dE          RMSdq      gap      omega  full diag
   1    -63.2660886 -0.632661E+02  0.719E-06    3.14       0.0  T
   2    -63.2660886 -0.104450E-11  0.507E-06    3.14    3043.5  T
   3    -63.2660886 -0.137845E-11  0.170E-06    3.14    9063.5  T

   *** convergence criteria satisfied after 3 iterations ***

         #    Occupation            Energy/Eh            Energy/eV
      -------------------------------------------------------------
         1        2.0000           -0.6778041             -18.4440
       ...           ...                  ...                  ...
        52        2.0000           -0.4142696             -11.2728
        53        2.0000           -0.4121430             -11.2150
        54        2.0000           -0.4084270             -11.1139
        55        2.0000           -0.4074568             -11.0875
        56        2.0000           -0.3901381             -10.6162
        57        2.0000           -0.3788186             -10.3082
        58        2.0000           -0.3672568              -9.9936 (HOMO)
        59                         -0.2519488              -6.8559 (LUMO)
        60                         -0.2374404              -6.4611
        61                         -0.2343851              -6.3779
        62                         -0.2314324              -6.2976
        63                         -0.2259548              -6.1485
       ...                                ...                  ...
       114                          0.6845886              18.6286
      -------------------------------------------------------------
                  HL-Gap            0.1153080 Eh            3.1377 eV
             Fermi-level           -0.3096028 Eh           -8.4247 eV

 SCC (total)                   0 d,  0 h,  0 min,  0.093 sec
 SCC setup                      ...        0 min,  0.000 sec (  0.392%)
 Dispersion                     ...        0 min,  0.001 sec (  0.546%)
 classical contributions        ...        0 min,  0.000 sec (  0.156%)
 integral evaluation            ...        0 min,  0.008 sec (  8.523%)
 iterations                     ...        0 min,  0.008 sec (  8.366%)
 molecular gradient             ...        0 min,  0.076 sec ( 81.770%)
 printout                       ...        0 min,  0.000 sec (  0.239%)

         :::::::::::::::::::::::::::::::::::::::::::::::::::::
         ::                     SUMMARY                     ::
         :::::::::::::::::::::::::::::::::::::::::::::::::::::
         :: total energy             -62.120675982256 Eh    ::
         :: gradient norm              0.000515804824 Eh/a0 ::
         :: HOMO-LUMO gap              3.137691292226 eV    ::
         ::.................................................::
         :: SCC energy               -63.265870416257 Eh    ::
         :: -> isotropic ES            0.014018804843 Eh    ::
         :: -> anisotropic ES          0.007053115516 Eh    ::
         :: -> anisotropic XC          0.043513370029 Eh    ::
         :: -> dispersion             -0.049893004791 Eh    ::
         :: repulsion energy           1.145194434001 Eh    ::
         :: add. restraining           0.000000000000 Eh    ::
         :: total charge               0.000000000000 e     ::
         :::::::::::::::::::::::::::::::::::::::::::::::::::::

           -------------------------------------------------
          |                Property Printout                |
           -------------------------------------------------

    * Orbital Energies and Occupations

         #    Occupation            Energy/Eh            Energy/eV
      -------------------------------------------------------------
         1        2.0000           -0.6778041             -18.4440
       ...           ...                  ...                  ...
        46        2.0000           -0.4350739             -11.8390
        47        2.0000           -0.4332309             -11.7888
        48        2.0000           -0.4265498             -11.6070
        49        2.0000           -0.4245652             -11.5530
        50        2.0000           -0.4168202             -11.3423
        51        2.0000           -0.4158716             -11.3164
        52        2.0000           -0.4142696             -11.2728
        53        2.0000           -0.4121430             -11.2150
        54        2.0000           -0.4084270             -11.1139
        55        2.0000           -0.4074568             -11.0875
        56        2.0000           -0.3901381             -10.6162
        57        2.0000           -0.3788186             -10.3082
        58        2.0000           -0.3672568              -9.9936 (HOMO)
        59                         -0.2519488              -6.8559 (LUMO)
        60                         -0.2374404              -6.4611
        61                         -0.2343851              -6.3779
        62                         -0.2314324              -6.2976
        63                         -0.2259548              -6.1485
        64                         -0.2061273              -5.6090
        65                         -0.1937295              -5.2716
        66                         -0.1554075              -4.2289
        67                         -0.1119528              -3.0464
        68                         -0.1078698              -2.9353
        69                         -0.0812997              -2.2123
       ...                                ...                  ...
       114                          0.6845886              18.6286
      -------------------------------------------------------------
                  HL-Gap            0.1153080 Eh            3.1377 eV
             Fermi-level           -0.3096028 Eh           -8.4247 eV

     #   Z          covCN         q      C6AA      α(0)
     1   7 N        2.864    -0.022    21.672     6.914
     2   6 C        3.800     0.033    20.027     6.372
     3   6 C        2.973     0.002    27.979     8.676
     4   6 C        2.923    -0.037    28.923     8.819
     5   6 C        2.924    -0.033    28.831     8.805
     6   6 C        2.977     0.010    27.789     8.647
     7   6 C        2.977     0.010    27.791     8.647
     8   6 C        2.925    -0.033    28.831     8.805
     9   6 C        2.918    -0.029    28.726     8.789
    10   6 C        2.920    -0.030    28.754     8.794
    11   6 C        2.918    -0.029    28.724     8.789
    12   6 C        2.925    -0.033    28.829     8.805
    13   6 C        2.925    -0.033    28.834     8.806
    14   6 C        2.921    -0.034    28.841     8.807
    15   6 C        2.975     0.005    27.895     8.663
    16   6 C        2.922    -0.033    28.814     8.803
    17   6 C        2.920    -0.028    28.691     8.784
    18   6 C        2.920    -0.028    28.705     8.786
    19   6 C        2.919    -0.027    28.678     8.782
    20   6 C        2.925    -0.033    28.835     8.806
    21   6 C        3.050    -0.026    28.608     8.772
    22   6 C        3.162     0.016    27.325     8.544
    23   7 N        1.916    -0.272    27.916     7.834
    24   6 C        3.177     0.083    25.765     8.289
    25   1 H        0.923     0.050     2.324     2.384
    26   1 H        0.926     0.028     2.608     2.526
    27   1 H        0.926     0.036     2.505     2.475
    28   1 H        0.926     0.031     2.571     2.507
    29   1 H        0.926     0.031     2.575     2.509
    30   1 H        0.926     0.031     2.574     2.509
    31   1 H        0.926     0.031     2.570     2.507
    32   1 H        0.926     0.032     2.565     2.504
    33   1 H        0.926     0.037     2.489     2.467
    34   1 H        0.926     0.038     2.482     2.464
    35   1 H        0.926     0.036     2.501     2.473
    36   1 H        0.926     0.036     2.498     2.472
    37   1 H        0.926     0.037     2.495     2.470
    38   1 H        0.926     0.037     2.488     2.467
    39   1 H        0.926     0.033     2.550     2.497
    40   1 H        0.926     0.024     2.679     2.560
    41   1 H        0.926     0.029     2.598     2.520
    42   1 H        0.926     0.028     2.614     2.528

 Mol. C6AA /au·bohr⁶  :      23986.967199
 Mol. C8AA /au·bohr⁸  :     595543.079287
 Mol. α(0) /au        :        249.378321


Wiberg/Mayer (AO) data.
largest (>0.10) Wiberg bond orders for each atom

 ---------------------------------------------------------------------------
     #   Z sym  total        # sym  WBO       # sym  WBO       # sym  WBO
 ---------------------------------------------------------------------------
     1   7 N    3.636 --    24 C    1.249    21 C    1.201     2 C    0.967
                            23 N    0.102
     2   6 C    3.971 --     3 C    0.980    15 C    0.972     1 N    0.967
                            25 H    0.951
     3   6 C    3.982 --    14 C    1.410     4 C    1.403     2 C    0.980
                             6 C    0.102
     4   6 C    3.990 --     5 C    1.459     3 C    1.403    26 H    0.969
                            13 C    0.107
     5   6 C    3.990 --     4 C    1.459     6 C    1.384    27 H    0.968
                            14 C    0.106
     6   6 C    3.988 --    13 C    1.390     5 C    1.384     7 C    1.046
                             3 C    0.102
     7   6 C    3.989 --     8 C    1.390    12 C    1.389     6 C    1.046
                            10 C    0.106
     8   6 C    3.991 --     9 C    1.451     7 C    1.390    28 H    0.969
                            11 C    0.109
     9   6 C    3.992 --     8 C    1.451    10 C    1.435    29 H    0.971
                            12 C    0.109
    10   6 C    3.987 --     9 C    1.435    11 C    1.435    30 H    0.972
                             7 C    0.106
    11   6 C    3.992 --    12 C    1.452    10 C    1.435    31 H    0.971
                             8 C    0.109
    12   6 C    3.991 --    11 C    1.452     7 C    1.389    32 H    0.969
                             9 C    0.109
    13   6 C    3.991 --    14 C    1.450     6 C    1.390    33 H    0.968
                             4 C    0.107
    14   6 C    3.991 --    13 C    1.450     3 C    1.410    34 H    0.966
                             5 C    0.106
    15   6 C    3.985 --    16 C    1.418    20 C    1.413     2 C    0.972
                            18 C    0.110
    16   6 C    3.991 --    17 C    1.441    15 C    1.418    35 H    0.966
                            19 C    0.111
    17   6 C    3.992 --    16 C    1.441    18 C    1.441    36 H    0.971
                            20 C    0.112
    18   6 C    3.991 --    17 C    1.441    19 C    1.437    37 H    0.971
                            15 C    0.110
    19   6 C    3.991 --    20 C    1.446    18 C    1.437    38 H    0.971
                            16 C    0.111
    20   6 C    3.991 --    19 C    1.446    15 C    1.413    39 H    0.969
                            17 C    0.112
    21   6 C    3.940 --    22 C    1.581     1 N    1.201    40 H    0.971
                            24 C    0.113
    22   6 C    3.975 --    21 C    1.581    23 N    1.299    41 H    0.971
    23   7 N    3.024 --    24 C    1.545    22 C    1.299     1 N    0.102
    24   6 C    3.958 --    23 N    1.545     1 N    1.249    42 H    0.964
                            21 C    0.113
    25   1 H    0.997 --     2 C    0.951
    26   1 H    0.999 --     4 C    0.969
    27   1 H    0.998 --     5 C    0.968
    28   1 H    0.999 --     8 C    0.969
    29   1 H    0.998 --     9 C    0.971
    30   1 H    0.999 --    10 C    0.972
    31   1 H    0.998 --    11 C    0.971
    32   1 H    0.999 --    12 C    0.969
    33   1 H    0.998 --    13 C    0.968
    34   1 H    0.998 --    14 C    0.966
    35   1 H    0.999 --    16 C    0.966
    36   1 H    0.998 --    17 C    0.971
    37   1 H    0.998 --    18 C    0.971
    38   1 H    0.998 --    19 C    0.971
    39   1 H    0.999 --    20 C    0.969
    40   1 H    0.999 --    21 C    0.971
    41   1 H    0.998 --    22 C    0.971
    42   1 H    0.999 --    24 C    0.964
 ---------------------------------------------------------------------------

Topologies differ in total number of bonds
Writing topology from bond orders to xtbtopo.mol

molecular dipole:
                 x           y           z       tot (Debye)
 q only:        0.595       0.984      -0.608
   full:        0.762       1.169      -1.007       4.373
molecular quadrupole (traceless):
                xx          xy          yy          xz          yz          zz
 q only:        0.753     -11.147      -3.401       6.781       5.952       2.648
  q+dip:        2.408     -14.887      -8.580      12.752      10.921       6.172
   full:        0.564     -14.665      -4.987      11.858      10.312       4.423


           -------------------------------------------------
          | TOTAL ENERGY              -62.120675982256 Eh   |
          | GRADIENT NORM               0.000515804824 Eh/α |
          | HOMO-LUMO GAP               3.137691292226 eV   |
           -------------------------------------------------

------------------------------------------------------------------------
 * finished run on 2025/05/15 at 16:32:33.614     
------------------------------------------------------------------------
 total:
 * wall-time:     0 d,  0 h,  0 min,  0.108 sec
 *  cpu-time:     0 d,  0 h,  0 min,  0.055 sec
 * ratio c/w:     0.511 speedup
 SCF:
 * wall-time:     0 d,  0 h,  0 min,  0.094 sec
 *  cpu-time:     0 d,  0 h,  0 min,  0.042 sec
 * ratio c/w:     0.452 speedup



----- FOD -----
      -----------------------------------------------------------      
     |                   =====================                   |     
     |                           x T B                           |     
     |                   =====================                   |     
     |                         S. Grimme                         |     
[...]
   * M. Stahn, S. Ehlert, S. Grimme, J. Phys. Chem. A,
     2023, XX, XXXX-XXXX. DOI: 10.1021/acs.jpca.3c04382
   
   for DFT-D4:
   * E. Caldeweyher, C. Bannwarth and S. Grimme, J. Chem. Phys., 2017,
     147, 034112. DOI: 10.1063/1.4993215
   * E. Caldeweyher, S. Ehlert, A. Hansen, H. Neugebauer, S. Spicher,
     C. Bannwarth and S. Grimme, J. Chem. Phys., 2019, 150, 154122.
     DOI: 10.1063/1.5090222
   * E. Caldeweyher, J.-M. Mewes, S. Ehlert and S. Grimme, Phys. Chem. Chem. Phys.
     2020, 22, 8499-8512. DOI: 10.1039/D0CP00502A
   
   for sTDA-xTB:
   * S. Grimme and C. Bannwarth, J. Chem. Phys., 2016, 145, 054103.
     DOI: 10.1063/1.4959605
   
   in the mass-spec context:
   * V. Asgeirsson, C. Bauer and S. Grimme, Chem. Sci., 2017, 8, 4879.
     DOI: 10.1039/c7sc00601b
   * J. Koopman and S. Grimme, ACS Omega 2019, 4, 12, 15120-15133.
     DOI: 10.1021/acsomega.9b02011
   
   for metadynamics refer to:
   * S. Grimme, J. Chem. Theory Comput., 2019, 155, 2847-2862
     DOI: 10.1021/acs.jctc.9b00143
   
   for SPH calculations refer to:
   * S. Spicher and S. Grimme, J. Chem. Theory Comput., 2021, 17, 1701-1714
     DOI: 10.1021/acs.jctc.0c01306
   
   for ONIOM refer to:
   * C. Plett, A. Katbashev, S. Ehlert, S. Grimme, M. Bursch,
     Phys. Chem. Chem. Phys., 2023, 25, 17860-17868. DOI: 10.1039/D3CP02178E
   
   for DIPRO refer to:
   * J. Kohn, N. Gildemeister, S. Grimme, D. Fazzi, A. Hansen,
     J. Chem. Phys., 2023, just accepted.
   
   for PTB refer to:
   * S. Grimme, M. Mueller, A. Hansen, J. Chem. Phys., 2023, 158, 124111.
     DOI: 10.1063/5.0137838
   
   with help from (in alphabetical order)
   P. Atkinson, C. Bannwarth, F. Bohle, G. Brandenburg, E. Caldeweyher
   M. Checinski, S. Dohm, S. Ehlert, S. Ehrlich, I. Gerasimov, C. Hölzer
   A. Katbashev, J. Kohn, J. Koopman, C. Lavigne, S. Lehtola, F. März, M. Müller,
   F. Musil, H. Neugebauer, J. Pisarek, C. Plett, P. Pracht, F. Pultar,
   J. Seibert, P. Shushkov, S. Spicher, M. Stahn, M. Steiner, T. Strunk,
   J. Stückrath, T. Rose, and J. Unsleber
   
 * started run on 2025/05/15 at 16:32:36.132     
   ID    Z sym.   atoms
    1    7 N      1, 23
    2    6 C      2-22, 24
    3    1 H      25-42

           -------------------------------------------------
          |                Calculation Setup                |
           -------------------------------------------------

          program call               : xtb /rds/general/user/hgt20/home/callum/QDESCP/Bifonazole_rdkit_conf_3/Bifonazole_rdkit_conf_3.xyz --acc 1 --gfn 2 --chrg 0 --uhf 2 --etemp 300 --input /rds/general/user/hgt20/home/callum/QDESCP/Bifonazole_rdkit_conf_3/Bifonazole_rdkit_conf_3_xtb.inp -P 1
          hostname                   : login-c
          coordinate file            : /rds/general/user/hgt20/home/callum/QDESCP/Bifonazole_rdkit_conf_3/Bifonazole_rdkit_conf_3.xyz
          omp threads                :                     1


           -------------------------------------------------
          |                 G F N 2 - x T B                 |
           -------------------------------------------------

        Reference                      10.1021/acs.jctc.8b01176
      * Hamiltonian:
        H0-scaling (s, p, d)           1.850000    2.230000    2.230000
        zeta-weighting                 0.500000
      * Dispersion:
        s8                             2.700000
        a1                             0.520000
        a2                             5.000000
        s9                             5.000000
      * Repulsion:
        kExp                           1.500000    1.000000
        rExp                           1.000000
      * Coulomb:
        alpha                          2.000000
        third order                    shell-resolved
        anisotropic                    true
        a3                             3.000000
        a5                             4.000000
        cn-shift                       1.200000
        cn-exp                         4.000000
        max-rad                        5.000000


          ...................................................
          :                      SETUP                      :
          :.................................................:
          :  # basis functions                 114          :
          :  # atomic orbitals                 114          :
          :  # shells                           66          :
          :  # electrons                       116          :
          :  max. iterations                   250          :
          :  Hamiltonian                  GFN2-xTB          :
          :  restarted?                      false          :
          :  GBSA solvation                  false          :
          :  PC potential                    false          :
          :  electronic temp.          300.0000000     K    :
          :  accuracy                    1.0000000          :
          :  -> integral cutoff          0.2500000E+02      :
          :  -> integral neglect         0.1000000E-07      :
          :  -> SCF convergence          0.1000000E-05 Eh   :
          :  -> wf. convergence          0.1000000E-03 e    :
          :  Broyden damping             0.4000000          :
          :  net charge                          0          :
          :  unpaired electrons                  2          :
          ...................................................

 iter      E             dE          RMSdq      gap      omega  full diag
   1    -63.0010643 -0.630011E+02  0.386E+00    0.55       0.0  T
   2    -62.8332684  0.167796E+00  0.320E+00    0.15       1.0  T
   3    -62.7207965  0.112472E+00  0.260E+00    0.60       1.0  T
   4    -62.8815463 -0.160750E+00  0.180E+00    0.19       1.0  T
   5    -63.0925926 -0.211046E+00  0.892E-01    0.17       1.0  T
   6    -63.1142423 -0.216498E-01  0.604E-01    0.29       1.0  T
   7    -63.1191701 -0.492777E-02  0.493E-01    0.26       1.0  T
   8    -63.1231845 -0.401434E-02  0.359E-01    0.30       1.0  T
   9    -63.0772744  0.459101E-01  0.719E-01    0.36       1.0  T
  10    -63.1250300 -0.477556E-01  0.248E-01    0.30       1.0  T
  11    -63.1258450 -0.815044E-03  0.209E-01    0.29       1.0  T
  12    -63.1266390 -0.793992E-03  0.176E-01    0.29       1.0  T
  13    -63.1275326 -0.893547E-03  0.142E-01    0.29       1.0  T
  14    -63.1291714 -0.163879E-02  0.330E-02    0.29       1.0  T
  15    -63.1287103  0.461102E-03  0.787E-02    0.29       1.0  T
  16    -63.1292644 -0.554159E-03  0.649E-03    0.28       2.4  T
  17    -63.1292675 -0.303750E-05  0.274E-03    0.28       5.6  T
  18    -63.1292642  0.322847E-05  0.654E-03    0.28       2.4  T
  19    -63.1292680 -0.374100E-05  0.555E-04    0.28      27.8  T
  20    -63.1292678  0.138127E-06  0.137E-03    0.28      11.2  T
  21    -63.1292680 -0.158006E-06  0.331E-04    0.28      46.7  T
  22    -63.1292680  0.383900E-08  0.390E-04    0.28      39.6  T

   *** convergence criteria satisfied after 22 iterations ***

         #    Occupation            Energy/Eh            Energy/eV
      -------------------------------------------------------------
         1        2.0000           -0.6899385             -18.7742
       ...           ...                  ...                  ...
        53        2.0000           -0.4086041             -11.1187
        54        2.0000           -0.4070076             -11.0752
        55        2.0000           -0.4031357             -10.9699
        56        1.9968           -0.3918459             -10.6627
        57        1.9056           -0.3885492             -10.5730
        58        1.0976           -0.3842884             -10.4570
        59        0.9958           -0.2455329              -6.6813 (HOMO)
        60        0.0040           -0.2350881              -6.3971 (LUMO)
        61        0.0002           -0.2320739              -6.3151
        62        0.0000           -0.2250645              -6.1243
        63                         -0.2211255              -6.0171
        64                         -0.2067518              -5.6260
       ...                                ...                  ...
       114                          0.6902510              18.7827
      -------------------------------------------------------------
                  HL-Gap            0.0104448 Eh            0.2842 eV
             Fermi-level           -0.3133657 Eh           -8.5271 eV

 transition dipole moment (au) for excitation:          58          59
     X       Y       Z   
   2.1241   0.0488   0.1920  total (au/Debye):    2.133   5.423
 dE (eV)             :    3.776
 oscillator strength :  0.59539E+00

 SCC (total)                   0 d,  0 h,  0 min,  0.162 sec
 SCC setup                      ...        0 min,  0.000 sec (  0.220%)
 Dispersion                     ...        0 min,  0.001 sec (  0.314%)
 classical contributions        ...        0 min,  0.000 sec (  0.090%)
 integral evaluation            ...        0 min,  0.047 sec ( 28.970%)
 iterations                     ...        0 min,  0.049 sec ( 30.177%)
 molecular gradient             ...        0 min,  0.058 sec ( 35.867%)
 printout                       ...        0 min,  0.007 sec (  4.358%)

         :::::::::::::::::::::::::::::::::::::::::::::::::::::
         ::                     SUMMARY                     ::
         :::::::::::::::::::::::::::::::::::::::::::::::::::::
         :: total energy             -61.983855360259 Eh    ::
         :: gradient norm              0.157461420729 Eh/a0 ::
         :: HOMO-LUMO gap              0.284216964245 eV    ::
         ::.................................................::
         :: SCC energy               -63.129049794260 Eh    ::
         :: -> isotropic ES            0.011182936371 Eh    ::
         :: -> anisotropic ES          0.007940903314 Eh    ::
         :: -> anisotropic XC          0.041261383128 Eh    ::
         :: -> dispersion             -0.049919352757 Eh    ::
         :: repulsion energy           1.145194434001 Eh    ::
         :: add. restraining           0.000000000000 Eh    ::
         :: total charge               0.000000000000 e     ::
         :::::::::::::::::::::::::::::::::::::::::::::::::::::

           -------------------------------------------------
          |                Property Printout                |
           -------------------------------------------------

    * Orbital Energies and Occupations

         #    Occupation            Energy/Eh            Energy/eV
      -------------------------------------------------------------
         1        2.0000           -0.6899385             -18.7742
       ...           ...                  ...                  ...
        47        2.0000           -0.4295602             -11.6889
        48        2.0000           -0.4232813             -11.5181
        49        2.0000           -0.4216207             -11.4729
        50        2.0000           -0.4144121             -11.2767
        51        2.0000           -0.4134823             -11.2514
        52        2.0000           -0.4125971             -11.2273
        53        2.0000           -0.4086041             -11.1187
        54        2.0000           -0.4070076             -11.0752
        55        2.0000           -0.4031357             -10.9699
        56        1.9968           -0.3918459             -10.6627
        57        1.9056           -0.3885492             -10.5730
        58        1.0976           -0.3842884             -10.4570
        59        0.9958           -0.2455329              -6.6813 (HOMO)
        60        0.0040           -0.2350881              -6.3971 (LUMO)
        61        0.0002           -0.2320739              -6.3151
        62        0.0000           -0.2250645              -6.1243
        63                         -0.2211255              -6.0171
        64                         -0.2067518              -5.6260
        65                         -0.1994416              -5.4271
        66                         -0.1707430              -4.6462
        67                         -0.1070009              -2.9116
        68                         -0.1046179              -2.8468
        69                         -0.0750645              -2.0426
        70                          0.0140171               0.3814
       ...                                ...                  ...
       114                          0.6902510              18.7827
      -------------------------------------------------------------
                  HL-Gap            0.0104448 Eh            0.2842 eV
             Fermi-level           -0.3133657 Eh           -8.5271 eV

     #   Z          covCN         q      C6AA      α(0)
     1   7 N        2.864    -0.012    21.485     6.884
     2   6 C        3.800     0.032    20.039     6.374
     3   6 C        2.973    -0.008    28.218     8.713
     4   6 C        2.923    -0.039    28.973     8.827
     5   6 C        2.924    -0.034    28.846     8.808
     6   6 C        2.977     0.001    27.998     8.680
     7   6 C        2.977     0.009    27.822     8.652
     8   6 C        2.925    -0.033    28.834     8.806
     9   6 C        2.918    -0.030    28.742     8.791
    10   6 C        2.920    -0.031    28.776     8.797
    11   6 C        2.918    -0.030    28.739     8.791
    12   6 C        2.925    -0.034    28.835     8.806
    13   6 C        2.925    -0.034    28.844     8.807
    14   6 C        2.921    -0.037    28.932     8.821
    15   6 C        2.975     0.002    27.978     8.676
    16   6 C        2.922    -0.033    28.818     8.803
    17   6 C        2.920    -0.030    28.742     8.792
    18   6 C        2.920    -0.031    28.773     8.796
    19   6 C        2.919    -0.028    28.691     8.784
    20   6 C        2.925    -0.037    28.918     8.819
    21   6 C        3.050    -0.022    28.503     8.756
    22   6 C        3.162     0.015    27.339     8.547
    23   7 N        1.916    -0.236    27.014     7.706
    24   6 C        3.177     0.084    25.755     8.287
    25   1 H        0.923     0.055     2.255     2.349
    26   1 H        0.926     0.023     2.687     2.564
    27   1 H        0.926     0.032     2.560     2.502
    28   1 H        0.926     0.029     2.597     2.520
    29   1 H        0.926     0.028     2.613     2.528
    30   1 H        0.926     0.027     2.629     2.535
    31   1 H        0.926     0.028     2.610     2.526
    32   1 H        0.926     0.030     2.593     2.518
    33   1 H        0.926     0.032     2.556     2.500
    34   1 H        0.926     0.028     2.619     2.531
    35   1 H        0.926     0.037     2.496     2.470
    36   1 H        0.926     0.035     2.517     2.481
    37   1 H        0.926     0.034     2.526     2.486
    38   1 H        0.926     0.035     2.517     2.481
    39   1 H        0.926     0.029     2.601     2.522
    40   1 H        0.926     0.035     2.519     2.482
    41   1 H        0.926     0.038     2.469     2.457
    42   1 H        0.926     0.040     2.448     2.447

 Mol. C6AA /au·bohr⁶  :      23992.664097
 Mol. C8AA /au·bohr⁸  :     595695.745149
 Mol. α(0) /au        :        249.421449


Wiberg/Mayer (AO) data.
largest (>0.10) Wiberg bond orders for each atom

 ---------------------------------------------------------------------------
     #   Z sym  total        # sym  WBO       # sym  WBO       # sym  WBO
 ---------------------------------------------------------------------------
     1   7 N    3.637 --    24 C    1.261    21 C    1.206     2 C    0.961
     2   6 C    3.959 --     3 C    0.990    15 C    0.962     1 N    0.961
                            25 H    0.943
     3   6 C    3.797 --    14 C    1.262     4 C    1.252     2 C    0.990
     4   6 C    3.959 --     5 C    1.580     3 C    1.252    26 H    0.969
     5   6 C    3.954 --     4 C    1.580     6 C    1.187    27 H    0.968
     6   6 C    3.882 --     7 C    1.231     5 C    1.187    13 C    1.186
     7   6 C    3.889 --     6 C    1.231     8 C    1.203    12 C    1.202
     8   6 C    3.949 --     9 C    1.551     7 C    1.203    28 H    0.969
     9   6 C    3.964 --     8 C    1.551    10 C    1.310    29 H    0.970
    10   6 C    3.792 --    11 C    1.310     9 C    1.310    30 H    0.972
    11   6 C    3.964 --    12 C    1.551    10 C    1.310    31 H    0.970
    12   6 C    3.949 --    11 C    1.551     7 C    1.202    32 H    0.969
    13   6 C    3.951 --    14 C    1.571     6 C    1.186    33 H    0.969
    14   6 C    3.963 --    13 C    1.571     3 C    1.262    34 H    0.966
    15   6 C    3.955 --    16 C    1.407    20 C    1.397     2 C    0.962
                            18 C    0.100
    16   6 C    3.985 --    17 C    1.447    15 C    1.407    35 H    0.966
                            19 C    0.109
    17   6 C    3.982 --    16 C    1.447    18 C    1.427    36 H    0.970
                            20 C    0.106
    18   6 C    3.966 --    19 C    1.432    17 C    1.427    37 H    0.971
                            15 C    0.100
    19   6 C    3.988 --    20 C    1.449    18 C    1.432    38 H    0.971
                            16 C    0.109
    20   6 C    3.975 --    19 C    1.449    15 C    1.397    39 H    0.969
                            17 C    0.106
    21   6 C    3.929 --    22 C    1.574     1 N    1.206    40 H    0.970
                            24 C    0.106
    22   6 C    3.962 --    21 C    1.574    23 N    1.294    41 H    0.970
    23   7 N    2.994 --    24 C    1.527    22 C    1.294
    24   6 C    3.951 --    23 N    1.527     1 N    1.261    42 H    0.963
                            21 C    0.106
    25   1 H    0.989 --     2 C    0.943
    26   1 H    0.999 --     4 C    0.969
    27   1 H    0.998 --     5 C    0.968
    28   1 H    0.999 --     8 C    0.969
    29   1 H    0.999 --     9 C    0.970
    30   1 H    0.999 --    10 C    0.972
    31   1 H    0.999 --    11 C    0.970
    32   1 H    0.999 --    12 C    0.969
    33   1 H    0.999 --    13 C    0.969
    34   1 H    0.999 --    14 C    0.966
    35   1 H    0.999 --    16 C    0.966
    36   1 H    0.998 --    17 C    0.970
    37   1 H    0.998 --    18 C    0.971
    38   1 H    0.998 --    19 C    0.971
    39   1 H    0.999 --    20 C    0.969
    40   1 H    0.998 --    21 C    0.970
    41   1 H    0.996 --    22 C    0.970
    42   1 H    0.998 --    24 C    0.963
 ---------------------------------------------------------------------------

Topologies differ in total number of bonds
Writing topology from bond orders to xtbtopo.mol

molecular dipole:
                 x           y           z       tot (Debye)
 q only:       -0.002       0.526      -0.492
   full:        0.131       0.681      -0.836       2.760
molecular quadrupole (traceless):
                xx          xy          yy          xz          yz          zz
 q only:       -0.742      -6.520      -1.400       5.527       5.363       2.143
  q+dip:        2.090      -9.736      -6.582      11.132       9.954       4.493
   full:       -0.221      -9.520      -3.107      10.150       9.189       3.328


           -------------------------------------------------
          | TOTAL ENERGY              -61.983855360259 Eh   |
          | GRADIENT NORM               0.157461420729 Eh/α |
          | HOMO-LUMO GAP               0.284216964245 eV   |
           -------------------------------------------------

------------------------------------------------------------------------
 * finished run on 2025/05/15 at 16:32:36.307     
------------------------------------------------------------------------
 total:
 * wall-time:     0 d,  0 h,  0 min,  0.175 sec
 *  cpu-time:     0 d,  0 h,  0 min,  0.102 sec
 * ratio c/w:     0.581 speedup
 SCF:
 * wall-time:     0 d,  0 h,  0 min,  0.162 sec
 *  cpu-time:     0 d,  0 h,  0 min,  0.090 sec
 * ratio c/w:     0.553 speedup


