42
 energy: -62.120675982254 gnorm: 0.000515767277 xtb: 6.7.1 (edcfbbe)
N           -2.61445311859682       -1.52996332848243       -0.04217624732082
C           -2.03740069759847       -0.38520866369164       -0.71528553093753
C           -0.53522487176313       -0.32689726769013       -0.53247829436564
C            0.24088733868058        0.30825987893762       -1.49401275054478
C            1.61190147522850        0.38757770960184       -1.35163736133440
C            2.24400759298834       -0.16249722171481       -0.23872732378870
C            3.70468414456293       -0.08791097057401       -0.08635781887262
C            4.54436089858775       -0.32310007767494       -1.17239804771217
C            5.91766547854368       -0.26391528408224       -1.02500332678656
C            6.47348944135136        0.03820702223970        0.20682469767210
C            5.64762699727329        0.27881188451169        1.29213207996626
C            4.27442582542232        0.21317687853414        1.14847062268780
C            1.46074125681634       -0.79079148634015        0.72561283047820
C            0.08897659985233       -0.87384117463430        0.58070152469272
C           -2.72475000242609        0.88097857612179       -0.23965486603619
C           -2.18350732024289        1.67292451654432        0.76369186052380
C           -2.85630403525342        2.80064771065540        1.20119102732281
C           -4.07501568364468        3.14597567709807        0.64336865875455
C           -4.62039282396864        2.35949952315387       -0.35701154135980
C           -3.94826877697450        1.23322525898013       -0.79564850836733
C           -2.66832211072560       -2.80094938417566       -0.54220964310100
C           -3.22190779831273       -3.57005366411848        0.43881292427906
N           -3.50227182464303       -2.80399172541077        1.52491107357886
C           -3.12518248513172       -1.59593440236140        1.21027642974630
H           -2.24753432028297       -0.50693225071167       -1.78740442783316
H           -0.23638031435870        0.74581424465859       -2.35972414799727
H            2.20000882915208        0.89470610408799       -2.10228193697349
H            4.11582241699820       -0.57578333316050       -2.13156156154819
H            6.55772332774314       -0.45644718372660       -1.87381001509607
H            7.54638739233055        0.08561339957625        0.32082725913003
H            6.07601849009501        0.51868241033107        2.25441696571511
H            3.63387718331676        0.41586395148274        1.99466801946757
H            1.93297941343997       -1.23776889867374        1.58789848455513
H           -0.49713147690261       -1.37447748047035        1.33814963205006
H           -1.23313273354040        1.40880847383746        1.20386586467600
H           -2.42695187925788        3.40969579863752        1.98284567561543
H           -4.59907213973994        4.02507475299413        0.98751941444744
H           -5.57095070554958        2.62293826584443       -0.79649014177610
H           -4.37854003561305        0.61856904678366       -1.57388258256078
H           -2.31612118094658       -3.03795352423540       -1.52538400408535
H           -3.43736888197787       -4.61963721109590        0.43310378393446
H           -3.21529888493094       -0.74089655158593        1.85015124910644
