----- Optimization -----
      -----------------------------------------------------------      
     |                   =====================                   |     
     |                           x T B                           |     
     |                   =====================                   |     
     |                         S. Grimme                         |     
     |          Mulliken Center for Theoretical Chemistry        |     
     |                    University of Bonn                     |     
      -----------------------------------------------------------      

   * xtb version 6.7.1 (edcfbbe) compiled by 'conda@3ef47c1a292c' on 2024-11-25

   xtb is free software: you can redistribute it and/or modify it under
   the terms of the GNU Lesser General Public License as published by
   the Free Software Foundation, either version 3 of the License, or
   (at your option) any later version.
   
   xtb is distributed in the hope that it will be useful,
   but WITHOUT ANY WARRANTY; without even the implied warranty of
   MERCHANTABILITY or FITNESS FOR A PARTICULAR PURPOSE.  See the
   GNU Lesser General Public License for more details.
   
   Cite this work as:
   * C. Bannwarth, E. Caldeweyher, S. Ehlert, A. Hansen, P. Pracht,
     J. Seibert, S. Spicher, S. Grimme, WIREs Comput. Mol. Sci., 2020, 11,
     e01493. DOI: 10.1002/wcms.1493
   
   for GFN2-xTB:
   * C. Bannwarth, S. Ehlert and S. Grimme., J. Chem. Theory Comput., 2019,
     15, 1652-1671. DOI: 10.1021/acs.jctc.8b01176
   for GFN1-xTB:
   * S. Grimme, C. Bannwarth, P. Shushkov, J. Chem. Theory Comput., 2017,
     13, 1989-2009. DOI: 10.1021/acs.jctc.7b00118
   for GFN0-xTB:
   * P. Pracht, E. Caldeweyher, S. Ehlert, S. Grimme, ChemRxiv, 2019, preprint.
     DOI: 10.26434/chemrxiv.8326202.v1
   for GFN-FF:
   * S. Spicher and S. Grimme, Angew. Chem. Int. Ed., 2020, 59, 15665-15673.
     DOI: 10.1002/anie.202004239
   
   for ALPB and GBSA implicit solvation:
   * S. Ehlert, M. Stahn, S. Spicher, S. Grimme, J. Chem. Theory Comput.,
     2021, 17, 4250-4261. DOI: 10.1021/acs.jctc.1c00471
   
   for ddCOSMO and CPCM-X implicit solvation:
   * M. Stahn, S. Ehlert, S. Grimme, J. Phys. Chem. A,
     2023, XX, XXXX-XXXX. DOI: 10.1021/acs.jpca.3c04382
   
   for DFT-D4:
   * E. Caldeweyher, C. Bannwarth and S. Grimme, J. Chem. Phys., 2017,
     147, 034112. DOI: 10.1063/1.4993215
   * E. Caldeweyher, S. Ehlert, A. Hansen, H. Neugebauer, S. Spicher,
     C. Bannwarth and S. Grimme, J. Chem. Phys., 2019, 150, 154122.
     DOI: 10.1063/1.5090222
   * E. Caldeweyher, J.-M. Mewes, S. Ehlert and S. Grimme, Phys. Chem. Chem. Phys.
     2020, 22, 8499-8512. DOI: 10.1039/D0CP00502A
   
   for sTDA-xTB:
   * S. Grimme and C. Bannwarth, J. Chem. Phys., 2016, 145, 054103.
     DOI: 10.1063/1.4959605
   
   in the mass-spec context:
   * V. Asgeirsson, C. Bauer and S. Grimme, Chem. Sci., 2017, 8, 4879.
     DOI: 10.1039/c7sc00601b
   * J. Koopman and S. Grimme, ACS Omega 2019, 4, 12, 15120-15133.
     DOI: 10.1021/acsomega.9b02011
   
   for metadynamics refer to:
   * S. Grimme, J. Chem. Theory Comput., 2019, 155, 2847-2862
     DOI: 10.1021/acs.jctc.9b00143
   
   for SPH calculations refer to:
   * S. Spicher and S. Grimme, J. Chem. Theory Comput., 2021, 17, 1701-1714
     DOI: 10.1021/acs.jctc.0c01306
   
   for ONIOM refer to:
   * C. Plett, A. Katbashev, S. Ehlert, S. Grimme, M. Bursch,
     Phys. Chem. Chem. Phys., 2023, 25, 17860-17868. DOI: 10.1039/D3CP02178E
   
   for DIPRO refer to:
   * J. Kohn, N. Gildemeister, S. Grimme, D. Fazzi, A. Hansen,
     J. Chem. Phys., 2023, just accepted.
   
   for PTB refer to:
   * S. Grimme, M. Mueller, A. Hansen, J. Chem. Phys., 2023, 158, 124111.
     DOI: 10.1063/5.0137838
   
   with help from (in alphabetical order)
   P. Atkinson, C. Bannwarth, F. Bohle, G. Brandenburg, E. Caldeweyher
   M. Checinski, S. Dohm, S. Ehlert, S. Ehrlich, I. Gerasimov, C. Hölzer
   A. Katbashev, J. Kohn, J. Koopman, C. Lavigne, S. Lehtola, F. März, M. Müller,
   F. Musil, H. Neugebauer, J. Pisarek, C. Plett, P. Pracht, F. Pultar,
   J. Seibert, P. Shushkov, S. Spicher, M. Stahn, M. Steiner, T. Strunk,
   J. Stückrath, T. Rose, and J. Unsleber
   
 * started run on 2025/05/15 at 16:29:24.065     
   ID    Z sym.   atoms
    1    7 N      1, 3, 6, 9, 11
    2    6 C      2, 4, 7, 8, 10, 12-15, 17
    3   17 Cl     5
    4    8 O      16, 18, 19
    5    1 H      20-31

           -------------------------------------------------
          |                Calculation Setup                |
           -------------------------------------------------

          program call               : xtb /rds/general/user/hgt20/home/callum/QDESCP/Cladribine_rdkit_conf_23/Cladribine_rdkit_conf_23.xyz --opt normal --acc 1 --gfn 2 --chrg 0 --uhf 0 -P 1
          hostname                   : login-c
          coordinate file            : /rds/general/user/hgt20/home/callum/QDESCP/Cladribine_rdkit_conf_23/Cladribine_rdkit_conf_23.xyz
          omp threads                :                     1


           -------------------------------------------------
          |                 G F N 2 - x T B                 |
           -------------------------------------------------

        Reference                      10.1021/acs.jctc.8b01176
      * Hamiltonian:
        H0-scaling (s, p, d)           1.850000    2.230000    2.230000
        zeta-weighting                 0.500000
      * Dispersion:
        s8                             2.700000
        a1                             0.520000
        a2                             5.000000
        s9                             5.000000
      * Repulsion:
        kExp                           1.500000    1.000000
        rExp                           1.000000
      * Coulomb:
        alpha                          2.000000
        third order                    shell-resolved
        anisotropic                    true
        a3                             3.000000
        a5                             4.000000
        cn-shift                       1.200000
        cn-exp                         4.000000
        max-rad                        5.000000


          ...................................................
          :                      SETUP                      :
          :.................................................:
          :  # basis functions                  94          :
          :  # atomic orbitals                  93          :
          :  # shells                           51          :
          :  # electrons                       102          :
          :  max. iterations                   250          :
          :  Hamiltonian                  GFN2-xTB          :
          :  restarted?                      false          :
          :  GBSA solvation                  false          :
          :  PC potential                    false          :
          :  electronic temp.          300.0000000     K    :
          :  accuracy                    1.0000000          :
          :  -> integral cutoff          0.2500000E+02      :
          :  -> integral neglect         0.1000000E-07      :
          :  -> SCF convergence          0.1000000E-05 Eh   :
          :  -> wf. convergence          0.1000000E-03 e    :
          :  Broyden damping             0.4000000          :
          :  net charge                          0          :
          :  unpaired electrons                  0          :
          ...................................................

 iter      E             dE          RMSdq      gap      omega  full diag
   1    -59.3690801 -0.593691E+02  0.435E+00    2.95       0.0  T
   2    -59.4910166 -0.121937E+00  0.263E+00    3.33       1.0  T
   3    -59.5041112 -0.130947E-01  0.128E+00    3.18       1.0  T
   4    -59.5088537 -0.474250E-02  0.261E-01    3.10       1.0  T
   5    -59.5099573 -0.110355E-02  0.107E-01    3.07       1.0  T
   6    -59.5100606 -0.103300E-03  0.543E-02    3.06       1.0  T
   7    -59.5100869 -0.263487E-04  0.327E-02    3.07       1.0  T
   8    -59.5100938 -0.687340E-05  0.181E-02    3.07       1.0  T
   9    -59.5100962 -0.243178E-05  0.142E-02    3.07       1.3  T
  10    -59.5100985 -0.222683E-05  0.910E-03    3.07       2.0  T
  11    -59.5100997 -0.121035E-05  0.405E-03    3.07       4.4  T
  12    -59.5100999 -0.222328E-06  0.192E-03    3.07       9.3  T
  13    -59.5100999 -0.311572E-07  0.605E-04    3.07      29.7  T
  14    -59.5100999 -0.291198E-08  0.305E-04    3.07      58.9  T

   *** convergence criteria satisfied after 14 iterations ***

         #    Occupation            Energy/Eh            Energy/eV
      -------------------------------------------------------------
         1        2.0000           -1.0565175             -28.7493
       ...           ...                  ...                  ...
        45        2.0000           -0.4279312             -11.6446
        46        2.0000           -0.4261990             -11.5975
        47        2.0000           -0.4248183             -11.5599
        48        2.0000           -0.4227821             -11.5045
        49        2.0000           -0.4084768             -11.1152
        50        2.0000           -0.3968820             -10.7997
        51        2.0000           -0.3869403             -10.5292 (HOMO)
        52                         -0.2741877              -7.4610 (LUMO)
        53                         -0.2479333              -6.7466
        54                         -0.2148505              -5.8464
        55                         -0.1431976              -3.8966
        56                         -0.1218787              -3.3165
       ...                                ...                  ...
        93                          0.6203300              16.8800
      -------------------------------------------------------------
                  HL-Gap            0.1127527 Eh            3.0682 eV
             Fermi-level           -0.3305640 Eh           -8.9951 eV

 SCC (total)                   0 d,  0 h,  0 min,  0.043 sec
 SCC setup                      ...        0 min,  0.000 sec (  0.618%)
 Dispersion                     ...        0 min,  0.000 sec (  0.607%)
 classical contributions        ...        0 min,  0.000 sec (  0.196%)
 integral evaluation            ...        0 min,  0.006 sec ( 13.049%)
 iterations                     ...        0 min,  0.021 sec ( 49.172%)
 molecular gradient             ...        0 min,  0.016 sec ( 36.045%)
 printout                       ...        0 min,  0.000 sec (  0.300%)

         :::::::::::::::::::::::::::::::::::::::::::::::::::::
         ::                     SUMMARY                     ::
         :::::::::::::::::::::::::::::::::::::::::::::::::::::
         :: total energy             -58.944328413628 Eh    ::
         :: gradient norm              0.089982972069 Eh/a0 ::
         :: HOMO-LUMO gap              3.068156172009 eV    ::
         ::.................................................::
         :: SCC energy               -59.509962011788 Eh    ::
         :: -> isotropic ES            0.114190069048 Eh    ::
         :: -> anisotropic ES          0.002816831518 Eh    ::
         :: -> anisotropic XC          0.019543167605 Eh    ::
         :: -> dispersion             -0.032946887225 Eh    ::
         :: repulsion energy           0.565633598160 Eh    ::
         :: add. restraining           0.000000000000 Eh    ::
         :: total charge              -0.000000000000 e     ::
         :::::::::::::::::::::::::::::::::::::::::::::::::::::

      ----------------------------------------------------------- 
     |                   =====================                   |
     |                        A N C O P T                        |
     |                   =====================                   |
     |               Approximate Normal Coordinate               |
     |                Rational Function Optimizer                |
      ----------------------------------------------------------- 
      ----------------------------------------------------------- 
     |                   =====================                   |
     |                        A N C O P T                        |
     |                   =====================                   |
     |               Approximate Normal Coordinate               |
     |                Rational Function Optimizer                |
      ----------------------------------------------------------- 

          ...................................................
          :                      SETUP                      :
          :.................................................:
          :   optimization level            normal          :
          :   max. optcycles                   200          :
          :   ANC micro-cycles                  20          :
          :   degrees of freedom                87          :
          :.................................................:
          :   RF solver                   davidson          :
          :   write xtbopt.log                true          :
          :   linear?                        false          :
          :   energy convergence         0.5000000E-05 Eh   :
          :   grad. convergence          0.1000000E-02 Eh/α :
          :   maxmium RF displ.          1.0000000          :
          :   Hlow (freq-cutoff)         0.1000000E-01      :
          :   Hmax (freq-cutoff)         5.0000000          :
          :   S6 in model hess.         20.0000000          :
          ...................................................

generating ANC from exact Hessian ...
Using Lindh-Hessian (1995)
 Shifting diagonal of input Hessian by    9.1910285506283471E-003
 Lowest  eigenvalues of input Hessian
    0.000000    0.000000    0.000000    0.000000    0.000000    0.000000
    0.010000    0.010301    0.010460    0.013747    0.014476    0.016248
    0.017586    0.018922    0.021968    0.023716    0.028239    0.030993
 Highest eigenvalues
    1.789906    1.923312    2.063972    2.088057    2.171693    2.290842


........................................................................
.............................. CYCLE    1 ..............................
........................................................................

 iter      E             dE          RMSdq      gap      omega  full diag
   1    -59.5100999 -0.595101E+02  0.192E-04    3.07       0.0  T
   2    -59.5100999 -0.145910E-09  0.158E-04    3.07     113.7  T
   3    -59.5100999 -0.100066E-09  0.108E-04    3.07     166.9  T
     SCC iter.                  ...        0 min,  0.005 sec
     gradient                   ...        0 min,  0.015 sec
 * total energy  :   -58.9443284 Eh     change       -0.7863008E-09 Eh
   gradient norm :     0.0899835 Eh/α   predicted     0.0000000E+00 (-100.00%)
   displ. norm   :     0.2609019 α      lambda       -0.1208611E-01
   maximum displ.:     0.1091412 α      in ANC's #12, #11, #37, ...

........................................................................
.............................. CYCLE    2 ..............................
........................................................................

 iter      E             dE          RMSdq      gap      omega  full diag
   1    -59.5397070 -0.595397E+02  0.238E-01    3.18       0.0  T
   2    -59.5398587 -0.151720E-03  0.144E-01    3.14       1.0  T
   3    -59.5398594 -0.733043E-06  0.785E-02    3.16       1.0  T
   4    -59.5399230 -0.635709E-04  0.179E-02    3.15       1.0  T
   5    -59.5399277 -0.469567E-05  0.109E-02    3.15       1.6  T
   6    -59.5399284 -0.709544E-06  0.826E-03    3.15       2.2  T
   7    -59.5399291 -0.668358E-06  0.579E-03    3.15       3.1  T
   8    -59.5399296 -0.494025E-06  0.268E-03    3.15       6.7  T
   9    -59.5399296 -0.848337E-07  0.134E-03    3.15      13.4  T
  10    -59.5399297 -0.246534E-07  0.440E-04    3.15      40.8  T
  11    -59.5399297 -0.207832E-08  0.200E-04    3.15      89.6  T
     SCC iter.                  ...        0 min,  0.016 sec
     gradient                   ...        0 min,  0.016 sec
 * total energy  :   -58.9526253 Eh     change       -0.8296864E-02 Eh
   gradient norm :     0.0417361 Eh/α   predicted    -0.6455864E-02 ( -22.19%)
   displ. norm   :     0.2276178 α      lambda       -0.4021812E-02
   maximum displ.:     0.0963907 α      in ANC's #12, #11, #7, ...

........................................................................
.............................. CYCLE    3 ..............................
........................................................................

 iter      E             dE          RMSdq      gap      omega  full diag
   1    -59.5556122 -0.595556E+02  0.156E-01    3.23       0.0  T
   2    -59.5557374 -0.125234E-03  0.929E-02    3.20       1.0  T
   3    -59.5557605 -0.230669E-04  0.520E-02    3.21       1.0  T
   4    -59.5557768 -0.163238E-04  0.142E-02    3.21       1.3  T
   5    -59.5557802 -0.332746E-05  0.723E-03    3.21       2.5  T
   6    -59.5557805 -0.313915E-06  0.533E-03    3.21       3.4  T
   7    -59.5557807 -0.238190E-06  0.398E-03    3.21       4.5  T
   8    -59.5557809 -0.221441E-06  0.204E-03    3.21       8.8  T
   9    -59.5557810 -0.499957E-07  0.101E-03    3.21      17.9  T
  10    -59.5557810 -0.158608E-07  0.343E-04    3.21      52.4  T
  11    -59.5557810 -0.101745E-08  0.153E-04    3.21     117.7  T
     SCC iter.                  ...        0 min,  0.016 sec
     gradient                   ...        0 min,  0.016 sec
 * total energy  :   -58.9549184 Eh     change       -0.2293093E-02 Eh
   gradient norm :     0.0130351 Eh/α   predicted    -0.2116372E-02 (  -7.71%)
   displ. norm   :     0.1370866 α      lambda       -0.5932958E-03
   maximum displ.:     0.0567121 α      in ANC's #4, #12, #7, ...

........................................................................
.............................. CYCLE    4 ..............................
........................................................................

 iter      E             dE          RMSdq      gap      omega  full diag
   1    -59.5554747 -0.595555E+02  0.553E-02    3.22       0.0  T
   2    -59.5554850 -0.103420E-04  0.315E-02    3.21       1.0  T
   3    -59.5554844  0.587629E-06  0.164E-02    3.22       1.1  T
   4    -59.5554873 -0.284932E-05  0.391E-03    3.22       4.6  T
   5    -59.5554876 -0.304970E-06  0.169E-03    3.22      10.7  T
   6    -59.5554876 -0.242608E-07  0.718E-04    3.22      25.0  T
   7    -59.5554876 -0.394176E-08  0.347E-04    3.22      51.7  T
     SCC iter.                  ...        0 min,  0.010 sec
     gradient                   ...        0 min,  0.016 sec
 * total energy  :   -58.9553660 Eh     change       -0.4475953E-03 Eh
   gradient norm :     0.0101317 Eh/α   predicted    -0.3022354E-03 ( -32.48%)
   displ. norm   :     0.2102818 α      lambda       -0.5743026E-03
   maximum displ.:     0.0965773 α      in ANC's #6, #4, #7, ...

........................................................................
.............................. CYCLE    5 ..............................
........................................................................

 iter      E             dE          RMSdq      gap      omega  full diag
   1    -59.5538626 -0.595539E+02  0.777E-02    3.23       0.0  T
   2    -59.5538745 -0.119748E-04  0.452E-02    3.22       1.0  T
   3    -59.5538709  0.365392E-05  0.200E-02    3.22       1.0  T
   4    -59.5538776 -0.670100E-05  0.470E-03    3.22       3.8  T
   5    -59.5538779 -0.339919E-06  0.236E-03    3.22       7.6  T
   6    -59.5538780 -0.423366E-07  0.109E-03    3.22      16.5  T
   7    -59.5538780 -0.981741E-08  0.670E-04    3.22      26.8  T
   8    -59.5538780 -0.335936E-08  0.470E-04    3.22      38.2  T
     SCC iter.                  ...        0 min,  0.016 sec
     gradient                   ...        0 min,  0.016 sec
 * total energy  :   -58.9557452 Eh     change       -0.3792801E-03 Eh
   gradient norm :     0.0083116 Eh/α   predicted    -0.2998548E-03 ( -20.94%)
   displ. norm   :     0.1694386 α      lambda       -0.2521532E-03
   maximum displ.:     0.0840258 α      in ANC's #6, #4, #1, ...

........................................................................
.............................. CYCLE    6 ..............................
........................................................................

 iter      E             dE          RMSdq      gap      omega  full diag
   1    -59.5538514 -0.595539E+02  0.574E-02    3.23       0.0  T
   2    -59.5538552 -0.380487E-05  0.340E-02    3.23       1.0  T
   3    -59.5538528  0.241328E-05  0.130E-02    3.23       1.4  T
   4    -59.5538564 -0.357100E-05  0.303E-03    3.23       5.9  T
   5    -59.5538565 -0.119572E-06  0.149E-03    3.23      12.0  T
   6    -59.5538565 -0.109370E-07  0.531E-04    3.23      33.9  T
   7    -59.5538565 -0.354203E-08  0.263E-04    3.23      68.2  T
     SCC iter.                  ...        0 min,  0.010 sec
     gradient                   ...        0 min,  0.016 sec
 * total energy  :   -58.9559411 Eh     change       -0.1958969E-03 Eh
   gradient norm :     0.0075817 Eh/α   predicted    -0.1297393E-03 ( -33.77%)
   displ. norm   :     0.2595992 α      lambda       -0.3187019E-03
   maximum displ.:     0.1301822 α      in ANC's #1, #6, #4, ...

........................................................................
.............................. CYCLE    7 ..............................
........................................................................

 iter      E             dE          RMSdq      gap      omega  full diag
   1    -59.5547584 -0.595548E+02  0.839E-02    3.24       0.0  T
   2    -59.5547648 -0.630981E-05  0.501E-02    3.24       1.0  T
   3    -59.5547601  0.468935E-05  0.172E-02    3.24       1.0  T
   4    -59.5547668 -0.669024E-05  0.423E-03    3.24       4.2  T
   5    -59.5547670 -0.206368E-06  0.205E-03    3.24       8.8  T
   6    -59.5547670 -0.156725E-07  0.605E-04    3.24      29.7  T
   7    -59.5547670 -0.501793E-08  0.281E-04    3.24      64.0  T
     SCC iter.                  ...        0 min,  0.011 sec
     gradient                   ...        0 min,  0.038 sec
 * total energy  :   -58.9561744 Eh     change       -0.2332767E-03 Eh
   gradient norm :     0.0064548 Eh/α   predicted    -0.1700901E-03 ( -27.09%)
   displ. norm   :     0.2481983 α      lambda       -0.2359138E-03
   maximum displ.:     0.1429873 α      in ANC's #1, #6, #4, ...

........................................................................
.............................. CYCLE    8 ..............................
........................................................................

 iter      E             dE          RMSdq      gap      omega  full diag
   1    -59.5561914 -0.595562E+02  0.738E-02    3.25       0.0  T
   2    -59.5561954 -0.400440E-05  0.442E-02    3.25       1.0  T
   3    -59.5561929  0.244874E-05  0.127E-02    3.25       1.4  T
   4    -59.5561966 -0.369299E-05  0.365E-03    3.25       4.9  T
   5    -59.5561967 -0.128265E-06  0.177E-03    3.25      10.1  T
   6    -59.5561967 -0.120675E-07  0.575E-04    3.25      31.2  T
   7    -59.5561968 -0.343811E-08  0.356E-04    3.25      50.4  T
     SCC iter.                  ...        0 min,  0.010 sec
     gradient                   ...        0 min,  0.016 sec
 * total energy  :   -58.9563471 Eh     change       -0.1727117E-03 Eh
   gradient norm :     0.0052654 Eh/α   predicted    -0.1252238E-03 ( -27.50%)
   displ. norm   :     0.2266449 α      lambda       -0.1704087E-03
   maximum displ.:     0.1466516 α      in ANC's #1, #2, #4, ...

........................................................................
.............................. CYCLE    9 ..............................
........................................................................

 iter      E             dE          RMSdq      gap      omega  full diag
   1    -59.5575885 -0.595576E+02  0.603E-02    3.26       0.0  T
   2    -59.5575904 -0.191651E-05  0.360E-02    3.25       1.0  T
   3    -59.5575900  0.404098E-06  0.703E-03    3.26       2.6  T
   4    -59.5575910 -0.105276E-05  0.278E-03    3.25       6.5  T
   5    -59.5575911 -0.462811E-07  0.126E-03    3.25      14.2  T
   6    -59.5575911 -0.943871E-08  0.420E-04    3.25      42.8  T
   7    -59.5575911 -0.158111E-08  0.284E-04    3.25      63.1  T
     SCC iter.                  ...        0 min,  0.010 sec
     gradient                   ...        0 min,  0.016 sec
 * total energy  :   -58.9564726 Eh     change       -0.1254627E-03 Eh
   gradient norm :     0.0040229 Eh/α   predicted    -0.8958218E-04 ( -28.60%)
   displ. norm   :     0.2359741 α      lambda       -0.1196578E-03
   maximum displ.:     0.1621606 α      in ANC's #1, #2, #4, ...

........................................................................
.............................. CYCLE   10 ..............................
........................................................................

 iter      E             dE          RMSdq      gap      omega  full diag
   1    -59.5573952 -0.595574E+02  0.598E-02    3.25       0.0  T
   2    -59.5573966 -0.138315E-05  0.357E-02    3.25       1.0  T
   3    -59.5573968 -0.189140E-06  0.469E-03    3.25       3.8  T
   4    -59.5573971 -0.327885E-06  0.245E-03    3.25       7.3  T
   5    -59.5573971 -0.274754E-07  0.104E-03    3.25      17.2  T
   6    -59.5573972 -0.949273E-08  0.343E-04    3.25      52.4  T
   7    -59.5573972 -0.547097E-09  0.254E-04    3.25      70.6  T
     SCC iter.                  ...        0 min,  0.010 sec
     gradient                   ...        0 min,  0.016 sec
 * total energy  :   -58.9565625 Eh     change       -0.8993991E-04 Eh
   gradient norm :     0.0041629 Eh/α   predicted    -0.6316907E-04 ( -29.77%)
   displ. norm   :     0.2098530 α      lambda       -0.1118380E-03
   maximum displ.:     0.1589269 α      in ANC's #1, #2, #3, ...

........................................................................
.............................. CYCLE   11 ..............................
........................................................................

 iter      E             dE          RMSdq      gap      omega  full diag
   1    -59.5584944 -0.595585E+02  0.483E-02    3.25       0.0  T
   2    -59.5584963 -0.187124E-05  0.282E-02    3.25       1.0  T
   3    -59.5584955  0.841850E-06  0.778E-03    3.25       2.3  T
   4    -59.5584968 -0.131899E-05  0.230E-03    3.25       7.8  T
   5    -59.5584969 -0.782606E-07  0.126E-03    3.25      14.2  T
   6    -59.5584969 -0.728843E-08  0.456E-04    3.25      39.4  T
   7    -59.5584969 -0.170278E-08  0.317E-04    3.25      56.7  T
     SCC iter.                  ...        0 min,  0.011 sec
     gradient                   ...        0 min,  0.016 sec
 * total energy  :   -58.9566305 Eh     change       -0.6795701E-04 Eh
   gradient norm :     0.0044239 Eh/α   predicted    -0.5838490E-04 ( -14.09%)
   displ. norm   :     0.2343055 α      lambda       -0.9159729E-04
   maximum displ.:     0.1711830 α      in ANC's #1, #2, #4, ...

........................................................................
.............................. CYCLE   12 ..............................
........................................................................

 iter      E             dE          RMSdq      gap      omega  full diag
   1    -59.5563130 -0.595563E+02  0.575E-02    3.24       0.0  T
   2    -59.5563145 -0.148986E-05  0.342E-02    3.25       1.0  T
   3    -59.5563148 -0.252946E-06  0.453E-03    3.24       4.0  T
   4    -59.5563150 -0.230481E-06  0.226E-03    3.25       8.0  T
   5    -59.5563150 -0.151360E-07  0.107E-03    3.25      16.8  T
   6    -59.5563150 -0.131414E-07  0.407E-04    3.25      44.2  T
   7    -59.5563150 -0.817742E-09  0.306E-04    3.25      58.7  T
     SCC iter.                  ...        0 min,  0.010 sec
     gradient                   ...        0 min,  0.035 sec
 * total energy  :   -58.9566827 Eh     change       -0.5220300E-04 Eh
   gradient norm :     0.0039589 Eh/α   predicted    -0.4833144E-04 (  -7.42%)
   displ. norm   :     0.0718283 α      lambda       -0.4678040E-04
   maximum displ.:     0.0620194 α      in ANC's #1, #7, #2, ...

........................................................................
.............................. CYCLE   13 ..............................
........................................................................

 iter      E             dE          RMSdq      gap      omega  full diag
   1    -59.5568648 -0.595569E+02  0.163E-02    3.24       0.0  T
   2    -59.5568651 -0.258943E-06  0.960E-03    3.25       1.9  T
   3    -59.5568650  0.100813E-06  0.281E-03    3.24       6.4  T
   4    -59.5568652 -0.159882E-06  0.741E-04    3.24      24.2  T
   5    -59.5568652 -0.783138E-08  0.380E-04    3.24      47.2  T
     SCC iter.                  ...        0 min,  0.008 sec
     gradient                   ...        0 min,  0.016 sec
 * total energy  :   -58.9567211 Eh     change       -0.3844289E-04 Eh
   gradient norm :     0.0025684 Eh/α   predicted    -0.2352108E-04 ( -38.82%)
   displ. norm   :     0.1077266 α      lambda       -0.6649507E-04
   maximum displ.:     0.0824653 α      in ANC's #1, #7, #6, ...

........................................................................
.............................. CYCLE   14 ..............................
........................................................................

 iter      E             dE          RMSdq      gap      omega  full diag
   1    -59.5583184 -0.595583E+02  0.278E-02    3.24       0.0  T
   2    -59.5583190 -0.528688E-06  0.167E-02    3.25       1.1  T
   3    -59.5583188  0.123910E-06  0.352E-03    3.24       5.1  T
   4    -59.5583191 -0.257670E-06  0.114E-03    3.24      15.8  T
   5    -59.5583191 -0.736524E-08  0.647E-04    3.24      27.7  T
   6    -59.5583191 -0.296930E-08  0.284E-04    3.24      63.3  T
     SCC iter.                  ...        0 min,  0.009 sec
     gradient                   ...        0 min,  0.016 sec
 * total energy  :   -58.9567559 Eh     change       -0.3480091E-04 Eh
   gradient norm :     0.0043783 Eh/α   predicted    -0.3363737E-04 (  -3.34%)
   displ. norm   :     0.1264646 α      lambda       -0.6731055E-04
   maximum displ.:     0.1094973 α      in ANC's #1, #7, #9, ...

........................................................................
.............................. CYCLE   15 ..............................
........................................................................

 iter      E             dE          RMSdq      gap      omega  full diag
   1    -59.5584703 -0.595585E+02  0.296E-02    3.25       0.0  T
   2    -59.5584707 -0.382652E-06  0.174E-02    3.25       1.0  T
   3    -59.5584707 -0.279239E-07  0.232E-03    3.25       7.8  T
   4    -59.5584708 -0.914887E-07  0.112E-03    3.24      16.1  T
   5    -59.5584708 -0.293581E-08  0.661E-04    3.25      27.2  T
   6    -59.5584708 -0.563319E-08  0.334E-04    3.24      53.7  T
     SCC iter.                  ...        0 min,  0.009 sec
     gradient                   ...        0 min,  0.016 sec
 * total energy  :   -58.9567864 Eh     change       -0.3046049E-04 Eh
   gradient norm :     0.0056605 Eh/α   predicted    -0.3419562E-04 (  12.26%)
   displ. norm   :     0.0386482 α      lambda       -0.3289244E-04
   maximum displ.:     0.0358455 α      in ANC's #1, #9, #10, ...

........................................................................
.............................. CYCLE   16 ..............................
........................................................................

 iter      E             dE          RMSdq      gap      omega  full diag
   1    -59.5579735 -0.595580E+02  0.105E-02    3.25       0.0  T
   2    -59.5579735 -0.448794E-07  0.621E-03    3.25       2.9  T
   3    -59.5579735  0.854920E-08  0.960E-04    3.25      18.7  T
   4    -59.5579736 -0.227978E-07  0.407E-04    3.25      44.1  T
     SCC iter.                  ...        0 min,  0.006 sec
     gradient                   ...        0 min,  0.016 sec
 * total energy  :   -58.9568124 Eh     change       -0.2597254E-04 Eh
   gradient norm :     0.0035832 Eh/α   predicted    -0.1647505E-04 ( -36.57%)
   displ. norm   :     0.1021160 α      lambda       -0.6260911E-04
   maximum displ.:     0.0855637 α      in ANC's #1, #5, #3, ...

........................................................................
.............................. CYCLE   17 ..............................
........................................................................

 iter      E             dE          RMSdq      gap      omega  full diag
   1    -59.5574194 -0.595574E+02  0.248E-02    3.25       0.0  T
   2    -59.5574196 -0.295881E-06  0.146E-02    3.25       1.2  T
   3    -59.5574195  0.177344E-06  0.317E-03    3.25       5.7  T
   4    -59.5574197 -0.279572E-06  0.999E-04    3.25      18.0  T
   5    -59.5574198 -0.510735E-08  0.622E-04    3.25      28.9  T
     SCC iter.                  ...        0 min,  0.009 sec
     gradient                   ...        0 min,  0.035 sec
 * total energy  :   -58.9568572 Eh     change       -0.4486834E-04 Eh
   gradient norm :     0.0020447 Eh/α   predicted    -0.3163136E-04 ( -29.50%)
   displ. norm   :     0.1512482 α      lambda       -0.5438939E-04
   maximum displ.:     0.1248455 α      in ANC's #1, #5, #3, ...

........................................................................
.............................. CYCLE   18 ..............................
........................................................................

 iter      E             dE          RMSdq      gap      omega  full diag
   1    -59.5569267 -0.595569E+02  0.352E-02    3.25       0.0  T
   2    -59.5569271 -0.407633E-06  0.208E-02    3.25       1.0  T
   3    -59.5569270  0.113528E-06  0.355E-03    3.25       5.1  T
   4    -59.5569273 -0.296239E-06  0.157E-03    3.25      11.4  T
   5    -59.5569273 -0.104897E-07  0.991E-04    3.25      18.1  T
   6    -59.5569273 -0.709181E-08  0.605E-04    3.25      29.7  T
     SCC iter.                  ...        0 min,  0.009 sec
     gradient                   ...        0 min,  0.015 sec
 * total energy  :   -58.9569032 Eh     change       -0.4600503E-04 Eh
   gradient norm :     0.0037162 Eh/α   predicted    -0.2782164E-04 ( -39.52%)
   displ. norm   :     0.1346939 α      lambda       -0.5019550E-04
   maximum displ.:     0.1046435 α      in ANC's #1, #5, #3, ...

........................................................................
.............................. CYCLE   19 ..............................
........................................................................

 iter      E             dE          RMSdq      gap      omega  full diag
   1    -59.5569118 -0.595569E+02  0.318E-02    3.25       0.0  T
   2    -59.5569120 -0.283710E-06  0.188E-02    3.25       1.0  T
   3    -59.5569120  0.455202E-08  0.267E-03    3.25       6.7  T
   4    -59.5569122 -0.135748E-06  0.138E-03    3.25      13.0  T
   5    -59.5569122 -0.885825E-08  0.840E-04    3.25      21.4  T
   6    -59.5569122 -0.489119E-08  0.509E-04    3.25      35.3  T
     SCC iter.                  ...        0 min,  0.009 sec
     gradient                   ...        0 min,  0.016 sec
 * total energy  :   -58.9569496 Eh     change       -0.4636028E-04 Eh
   gradient norm :     0.0034383 Eh/α   predicted    -0.2555605E-04 ( -44.88%)
   displ. norm   :     0.1701703 α      lambda       -0.6937435E-04
   maximum displ.:     0.1320048 α      in ANC's #1, #5, #3, ...

........................................................................
.............................. CYCLE   20 ..............................
........................................................................

 iter      E             dE          RMSdq      gap      omega  full diag
   1    -59.5571093 -0.595571E+02  0.390E-02    3.25       0.0  T
   2    -59.5571097 -0.445583E-06  0.230E-02    3.25       1.0  T
   3    -59.5571098 -0.334588E-07  0.300E-03    3.25       6.0  T
   4    -59.5571099 -0.155254E-06  0.164E-03    3.25      10.9  T
   5    -59.5571099 -0.152327E-07  0.970E-04    3.25      18.5  T
   6    -59.5571099 -0.602566E-08  0.575E-04    3.25      31.3  T
     SCC iter.                  ...        0 min,  0.009 sec
     gradient                   ...        0 min,  0.018 sec
 * total energy  :   -58.9570121 Eh     change       -0.6250069E-04 Eh
   gradient norm :     0.0023236 Eh/α   predicted    -0.3569246E-04 ( -42.89%)
   displ. norm   :     0.2286782 α      lambda       -0.8551079E-04
   maximum displ.:     0.1839259 α      in ANC's #1, #5, #3, ...
 * RMSD in coord.:     0.4489051 α      energy gain  -0.1268369E-01 Eh

generating ANC from exact Hessian ...
Using Lindh-Hessian (1995)
 Shifting diagonal of input Hessian by    9.1591867700133757E-003
 Lowest  eigenvalues of input Hessian
    0.000000    0.000000    0.000000    0.000000    0.000000    0.000000
    0.010000    0.010344    0.010512    0.013738    0.014490    0.016441
    0.017494    0.020002    0.023135    0.025851    0.028212    0.031744
 Highest eigenvalues
    1.942956    2.014689    2.148340    2.191774    2.320035    2.344287


........................................................................
.............................. CYCLE   21 ..............................
........................................................................

 iter      E             dE          RMSdq      gap      omega  full diag
   1    -59.5572417 -0.595572E+02  0.503E-02    3.25       0.0  T
   2    -59.5572424 -0.737367E-06  0.297E-02    3.25       1.0  T
   3    -59.5572425 -0.913807E-07  0.366E-03    3.25       4.9  T
   4    -59.5572427 -0.212431E-06  0.205E-03    3.25       8.8  T
   5    -59.5572427 -0.258162E-07  0.116E-03    3.25      15.5  T
   6    -59.5572427 -0.821955E-08  0.713E-04    3.25      25.2  T
   7    -59.5572427 -0.345467E-08  0.448E-04    3.25      40.1  T
     SCC iter.                  ...        0 min,  0.011 sec
     gradient                   ...        0 min,  0.016 sec
 * total energy  :   -58.9570871 Eh     change       -0.7501467E-04 Eh
   gradient norm :     0.0021280 Eh/α   predicted     0.0000000E+00 (-100.00%)
   displ. norm   :     0.0409130 α      lambda       -0.2167124E-04
   maximum displ.:     0.0376663 α      in ANC's #1, #2, #5, ...

........................................................................
.............................. CYCLE   22 ..............................
........................................................................

 iter      E             dE          RMSdq      gap      omega  full diag
   1    -59.5577758 -0.595578E+02  0.959E-03    3.25       0.0  T
   2    -59.5577758 -0.435107E-07  0.566E-03    3.25       3.2  T
   3    -59.5577758 -0.651137E-08  0.791E-04    3.25      22.7  T
   4    -59.5577758 -0.777966E-08  0.413E-04    3.25      43.5  T
     SCC iter.                  ...        0 min,  0.006 sec
     gradient                   ...        0 min,  0.016 sec
 * total energy  :   -58.9571082 Eh     change       -0.2109643E-04 Eh
   gradient norm :     0.0008984 Eh/α   predicted    -0.1164677E-04 ( -44.79%)
   displ. norm   :     0.1067922 α      lambda       -0.3217317E-04
   maximum displ.:     0.0908686 α      in ANC's #1, #2, #5, ...

........................................................................
.............................. CYCLE   23 ..............................
........................................................................

 iter      E             dE          RMSdq      gap      omega  full diag
   1    -59.5584686 -0.595585E+02  0.248E-02    3.25       0.0  T
   2    -59.5584688 -0.236963E-06  0.147E-02    3.25       1.2  T
   3    -59.5584689 -0.493845E-07  0.189E-03    3.25       9.5  T
   4    -59.5584689 -0.425674E-07  0.112E-03    3.25      16.0  T
   5    -59.5584689 -0.622963E-08  0.694E-04    3.25      25.9  T
   6    -59.5584689 -0.411291E-08  0.458E-04    3.25      39.2  T
     SCC iter.                  ...        0 min,  0.009 sec
     gradient                   ...        0 min,  0.021 sec
 * total energy  :   -58.9571506 Eh     change       -0.4235891E-04 Eh
   gradient norm :     0.0017042 Eh/α   predicted    -0.1658897E-04 ( -60.84%)
   displ. norm   :     0.1292679 α      lambda       -0.3287826E-04
   maximum displ.:     0.1071965 α      in ANC's #1, #2, #5, ...

........................................................................
.............................. CYCLE   24 ..............................
........................................................................

 iter      E             dE          RMSdq      gap      omega  full diag
   1    -59.5584232 -0.595584E+02  0.297E-02    3.25       0.0  T
   2    -59.5584235 -0.260166E-06  0.176E-02    3.25       1.0  T
   3    -59.5584235 -0.378172E-07  0.204E-03    3.25       8.8  T
   4    -59.5584236 -0.629045E-07  0.115E-03    3.25      15.6  T
   5    -59.5584236 -0.100783E-07  0.572E-04    3.25      31.4  T
   6    -59.5584236 -0.239903E-08  0.346E-04    3.25      51.9  T
     SCC iter.                  ...        0 min,  0.009 sec
     gradient                   ...        0 min,  0.016 sec
 * total energy  :   -58.9571964 Eh     change       -0.4577635E-04 Eh
   gradient norm :     0.0019757 Eh/α   predicted    -0.1656369E-04 ( -63.82%)
   displ. norm   :     0.1506885 α      lambda       -0.3677829E-04
   maximum displ.:     0.1223913 α      in ANC's #1, #2, #5, ...

........................................................................
.............................. CYCLE   25 ..............................
........................................................................

 iter      E             dE          RMSdq      gap      omega  full diag
   1    -59.5581385 -0.595581E+02  0.337E-02    3.25       0.0  T
   2    -59.5581388 -0.319516E-06  0.199E-02    3.25       1.0  T
   3    -59.5581388 -0.679414E-07  0.207E-03    3.25       8.7  T
   4    -59.5581389 -0.504796E-07  0.123E-03    3.25      14.6  T
   5    -59.5581389 -0.106809E-07  0.682E-04    3.25      26.4  T
   6    -59.5581389 -0.461516E-08  0.370E-04    3.25      48.6  T
     SCC iter.                  ...        0 min,  0.009 sec
     gradient                   ...        0 min,  0.016 sec
 * total energy  :   -58.9572483 Eh     change       -0.5192762E-04 Eh
   gradient norm :     0.0014785 Eh/α   predicted    -0.1859344E-04 ( -64.19%)
   displ. norm   :     0.1715570 α      lambda       -0.4044459E-04
   maximum displ.:     0.1383807 α      in ANC's #1, #2, #6, ...

........................................................................
.............................. CYCLE   26 ..............................
........................................................................

 iter      E             dE          RMSdq      gap      omega  full diag
   1    -59.5577764 -0.595578E+02  0.370E-02    3.25       0.0  T
   2    -59.5577768 -0.393773E-06  0.218E-02    3.25       1.0  T
   3    -59.5577769 -0.101550E-06  0.220E-03    3.25       8.2  T
   4    -59.5577769 -0.454123E-07  0.136E-03    3.25      13.2  T
   5    -59.5577769 -0.895540E-08  0.826E-04    3.25      21.7  T
   6    -59.5577769 -0.784022E-08  0.511E-04    3.25      35.2  T
     SCC iter.                  ...        0 min,  0.028 sec
     gradient                   ...        0 min,  0.016 sec
 * total energy  :   -58.9573051 Eh     change       -0.5682316E-04 Eh
   gradient norm :     0.0009319 Eh/α   predicted    -0.2050118E-04 ( -63.92%)
   displ. norm   :     0.1777322 α      lambda       -0.4028071E-04
   maximum displ.:     0.1432539 α      in ANC's #1, #2, #6, ...

........................................................................
.............................. CYCLE   27 ..............................
........................................................................

 iter      E             dE          RMSdq      gap      omega  full diag
   1    -59.5575555 -0.595576E+02  0.364E-02    3.25       0.0  T
   2    -59.5575559 -0.384655E-06  0.214E-02    3.25       1.0  T
   3    -59.5575560 -0.840399E-07  0.243E-03    3.25       7.4  T
   4    -59.5575561 -0.760323E-07  0.155E-03    3.25      11.6  T
   5    -59.5575561 -0.159258E-07  0.967E-04    3.25      18.6  T
   6    -59.5575561 -0.813905E-08  0.615E-04    3.25      29.2  T
     SCC iter.                  ...        0 min,  0.009 sec
     gradient                   ...        0 min,  0.016 sec
 * total energy  :   -58.9573620 Eh     change       -0.5690850E-04 Eh
   gradient norm :     0.0009942 Eh/α   predicted    -0.2042336E-04 ( -64.11%)
   displ. norm   :     0.1721706 α      lambda       -0.3871390E-04
   maximum displ.:     0.1400074 α      in ANC's #1, #2, #3, ...

........................................................................
.............................. CYCLE   28 ..............................
........................................................................

 iter      E             dE          RMSdq      gap      omega  full diag
   1    -59.5575050 -0.595575E+02  0.339E-02    3.25       0.0  T
   2    -59.5575053 -0.317649E-06  0.198E-02    3.25       1.0  T
   3    -59.5575054 -0.743870E-07  0.224E-03    3.25       8.0  T
   4    -59.5575054 -0.643668E-07  0.145E-03    3.25      12.4  T
   5    -59.5575055 -0.150729E-07  0.882E-04    3.25      20.4  T
   6    -59.5575055 -0.610329E-08  0.595E-04    3.25      30.2  T
     SCC iter.                  ...        0 min,  0.009 sec
     gradient                   ...        0 min,  0.036 sec
 * total energy  :   -58.9574177 Eh     change       -0.5567953E-04 Eh
   gradient norm :     0.0013338 Eh/α   predicted    -0.1961699E-04 ( -64.77%)
   displ. norm   :     0.1651636 α      lambda       -0.3857015E-04
   maximum displ.:     0.1357015 α      in ANC's #1, #2, #3, ...

........................................................................
.............................. CYCLE   29 ..............................
........................................................................

 iter      E             dE          RMSdq      gap      omega  full diag
   1    -59.5575503 -0.595576E+02  0.315E-02    3.26       0.0  T
   2    -59.5575505 -0.272666E-06  0.184E-02    3.25       1.0  T
   3    -59.5575506 -0.661649E-07  0.210E-03    3.26       8.5  T
   4    -59.5575507 -0.625296E-07  0.137E-03    3.25      13.1  T
   5    -59.5575507 -0.122189E-07  0.801E-04    3.25      22.4  T
   6    -59.5575507 -0.501639E-08  0.530E-04    3.25      33.9  T
     SCC iter.                  ...        0 min,  0.009 sec
     gradient                   ...        0 min,  0.015 sec
 * total energy  :   -58.9574739 Eh     change       -0.5623607E-04 Eh
   gradient norm :     0.0014912 Eh/α   predicted    -0.1952736E-04 ( -65.28%)
   displ. norm   :     0.1704185 α      lambda       -0.4217901E-04
   maximum displ.:     0.1414131 α      in ANC's #1, #2, #3, ...

........................................................................
.............................. CYCLE   30 ..............................
........................................................................

 iter      E             dE          RMSdq      gap      omega  full diag
   1    -59.5576701 -0.595577E+02  0.330E-02    3.26       0.0  T
   2    -59.5576703 -0.288911E-06  0.192E-02    3.26       1.0  T
   3    -59.5576704 -0.627796E-07  0.215E-03    3.26       8.3  T
   4    -59.5576705 -0.712680E-07  0.136E-03    3.26      13.2  T
   5    -59.5576705 -0.106686E-07  0.809E-04    3.26      22.2  T
   6    -59.5576705 -0.572031E-08  0.514E-04    3.26      34.9  T
     SCC iter.                  ...        0 min,  0.009 sec
     gradient                   ...        0 min,  0.016 sec
 * total energy  :   -58.9575355 Eh     change       -0.6154023E-04 Eh
   gradient norm :     0.0015151 Eh/α   predicted    -0.2136562E-04 ( -65.28%)
   displ. norm   :     0.1894817 α      lambda       -0.4865300E-04
   maximum displ.:     0.1587268 α      in ANC's #1, #2, #3, ...

........................................................................
.............................. CYCLE   31 ..............................
........................................................................

 iter      E             dE          RMSdq      gap      omega  full diag
   1    -59.5577132 -0.595577E+02  0.371E-02    3.26       0.0  T
   2    -59.5577136 -0.392144E-06  0.217E-02    3.26       1.0  T
   3    -59.5577137 -0.103433E-06  0.240E-03    3.26       7.5  T
   4    -59.5577138 -0.758448E-07  0.153E-03    3.26      11.8  T
   5    -59.5577138 -0.110839E-07  0.909E-04    3.26      19.8  T
   6    -59.5577138 -0.833116E-08  0.560E-04    3.26      32.1  T
     SCC iter.                  ...        0 min,  0.009 sec
     gradient                   ...        0 min,  0.031 sec
 * total energy  :   -58.9576061 Eh     change       -0.7067136E-04 Eh
   gradient norm :     0.0014365 Eh/α   predicted    -0.2471515E-04 ( -65.03%)
   displ. norm   :     0.2072908 α      lambda       -0.5407469E-04
   maximum displ.:     0.1761959 α      in ANC's #1, #2, #3, ...

........................................................................
.............................. CYCLE   32 ..............................
........................................................................

 iter      E             dE          RMSdq      gap      omega  full diag
   1    -59.5578092 -0.595578E+02  0.424E-02    3.26       0.0  T
   2    -59.5578097 -0.481061E-06  0.249E-02    3.26       1.0  T
   3    -59.5578098 -0.804358E-07  0.278E-03    3.26       6.5  T
   4    -59.5578099 -0.133396E-06  0.167E-03    3.26      10.7  T
   5    -59.5578100 -0.145671E-07  0.101E-03    3.26      17.9  T
   6    -59.5578100 -0.965954E-08  0.604E-04    3.26      29.8  T
   7    -59.5578100 -0.253365E-08  0.355E-04    3.26      50.7  T
     SCC iter.                  ...        0 min,  0.010 sec
     gradient                   ...        0 min,  0.016 sec
 * total energy  :   -58.9576841 Eh     change       -0.7795103E-04 Eh
   gradient norm :     0.0013198 Eh/α   predicted    -0.2755502E-04 ( -64.65%)
   displ. norm   :     0.2183956 α      lambda       -0.5635829E-04
   maximum displ.:     0.1889291 α      in ANC's #1, #2, #3, ...

........................................................................
.............................. CYCLE   33 ..............................
........................................................................

 iter      E             dE          RMSdq      gap      omega  full diag
   1    -59.5578248 -0.595578E+02  0.451E-02    3.26       0.0  T
   2    -59.5578254 -0.548471E-06  0.264E-02    3.26       1.0  T
   3    -59.5578255 -0.164475E-06  0.265E-03    3.26       6.8  T
   4    -59.5578256 -0.767773E-07  0.164E-03    3.26      10.9  T
   5    -59.5578256 -0.114182E-07  0.895E-04    3.26      20.1  T
   6    -59.5578256 -0.715055E-08  0.581E-04    3.26      30.9  T
     SCC iter.                  ...        0 min,  0.009 sec
     gradient                   ...        0 min,  0.016 sec
 * total energy  :   -58.9577650 Eh     change       -0.8091682E-04 Eh
   gradient norm :     0.0011411 Eh/α   predicted    -0.2877753E-04 ( -64.44%)
   displ. norm   :     0.2111380 α      lambda       -0.5360162E-04
   maximum displ.:     0.1875596 α      in ANC's #1, #2, #5, ...

........................................................................
.............................. CYCLE   34 ..............................
........................................................................

 iter      E             dE          RMSdq      gap      omega  full diag
   1    -59.5579839 -0.595580E+02  0.443E-02    3.26       0.0  T
   2    -59.5579844 -0.494040E-06  0.259E-02    3.26       1.0  T
   3    -59.5579845 -0.141174E-06  0.252E-03    3.26       7.1  T
   4    -59.5579846 -0.757471E-07  0.159E-03    3.26      11.3  T
   5    -59.5579846 -0.122977E-07  0.909E-04    3.26      19.7  T
   6    -59.5579846 -0.840389E-08  0.576E-04    3.26      31.2  T
     SCC iter.                  ...        0 min,  0.024 sec
     gradient                   ...        0 min,  0.016 sec
 * total energy  :   -58.9578423 Eh     change       -0.7732044E-04 Eh
   gradient norm :     0.0009430 Eh/α   predicted    -0.2733255E-04 ( -64.65%)
   displ. norm   :     0.1944661 α      lambda       -0.4903420E-04
   maximum displ.:     0.1777734 α      in ANC's #1, #2, #5, ...

........................................................................
.............................. CYCLE   35 ..............................
........................................................................

 iter      E             dE          RMSdq      gap      omega  full diag
   1    -59.5581371 -0.595581E+02  0.408E-02    3.26       0.0  T
   2    -59.5581375 -0.402967E-06  0.238E-02    3.26       1.0  T
   3    -59.5581376 -0.153425E-06  0.210E-03    3.26       8.5  T
   4    -59.5581376 -0.287983E-07  0.136E-03    3.26      13.2  T
   5    -59.5581376 -0.846020E-08  0.692E-04    3.26      26.0  T
   6    -59.5581376 -0.341368E-08  0.495E-04    3.26      36.3  T
     SCC iter.                  ...        0 min,  0.009 sec
     gradient                   ...        0 min,  0.016 sec
 * total energy  :   -58.9579135 Eh     change       -0.7117706E-04 Eh
   gradient norm :     0.0007527 Eh/α   predicted    -0.2493120E-04 ( -64.97%)
   displ. norm   :     0.1735622 α      lambda       -0.4442921E-04
   maximum displ.:     0.1634101 α      in ANC's #1, #2, #5, ...

........................................................................
.............................. CYCLE   36 ..............................
........................................................................

 iter      E             dE          RMSdq      gap      omega  full diag
   1    -59.5583502 -0.595584E+02  0.357E-02    3.26       0.0  T
   2    -59.5583505 -0.301544E-06  0.209E-02    3.26       1.0  T
   3    -59.5583506 -0.115759E-06  0.177E-03    3.26      10.1  T
   4    -59.5583506 -0.192645E-07  0.115E-03    3.26      15.7  T
   5    -59.5583506 -0.598705E-08  0.586E-04    3.26      30.6  T
   6    -59.5583506 -0.264876E-08  0.410E-04    3.26      43.8  T
     SCC iter.                  ...        0 min,  0.009 sec
     gradient                   ...        0 min,  0.037 sec
 * total energy  :   -58.9579786 Eh     change       -0.6510311E-04 Eh
   gradient norm :     0.0006444 Eh/α   predicted    -0.2251541E-04 ( -65.42%)
   displ. norm   :     0.1541029 α      lambda       -0.4072121E-04
   maximum displ.:     0.1485045 α      in ANC's #1, #2, #5, ...

........................................................................
.............................. CYCLE   37 ..............................
........................................................................

 iter      E             dE          RMSdq      gap      omega  full diag
   1    -59.5585022 -0.595585E+02  0.317E-02    3.26       0.0  T
   2    -59.5585025 -0.228823E-06  0.185E-02    3.26       1.0  T
   3    -59.5585025 -0.845417E-07  0.158E-03    3.26      11.4  T
   4    -59.5585026 -0.162842E-07  0.102E-03    3.26      17.6  T
   5    -59.5585026 -0.478163E-08  0.540E-04    3.26      33.3  T
   6    -59.5585026 -0.292598E-08  0.364E-04    3.26      49.4  T
     SCC iter.                  ...        0 min,  0.009 sec
     gradient                   ...        0 min,  0.016 sec
 * total energy  :   -58.9580387 Eh     change       -0.6011198E-04 Eh
   gradient norm :     0.0006413 Eh/α   predicted    -0.2057589E-04 ( -65.77%)
   displ. norm   :     0.1397254 α      lambda       -0.3837999E-04
   maximum displ.:     0.1365318 α      in ANC's #1, #2, #9, ...

........................................................................
.............................. CYCLE   38 ..............................
........................................................................

 iter      E             dE          RMSdq      gap      omega  full diag
   1    -59.5586415 -0.595586E+02  0.281E-02    3.26       0.0  T
   2    -59.5586417 -0.173211E-06  0.164E-02    3.26       1.1  T
   3    -59.5586418 -0.709671E-07  0.133E-03    3.26      13.5  T
   4    -59.5586418 -0.644175E-08  0.855E-04    3.26      21.0  T
   5    -59.5586418 -0.388587E-08  0.431E-04    3.26      41.6  T
     SCC iter.                  ...        0 min,  0.008 sec
     gradient                   ...        0 min,  0.015 sec
 * total energy  :   -58.9580957 Eh     change       -0.5694379E-04 Eh
   gradient norm :     0.0006885 Eh/α   predicted    -0.1935677E-04 ( -66.01%)
   displ. norm   :     0.1322090 α      lambda       -0.3737594E-04
   maximum displ.:     0.1293132 α      in ANC's #1, #2, #6, ...

........................................................................
.............................. CYCLE   39 ..............................
........................................................................

 iter      E             dE          RMSdq      gap      omega  full diag
   1    -59.5586771 -0.595587E+02  0.268E-02    3.26       0.0  T
   2    -59.5586773 -0.157035E-06  0.157E-02    3.26       1.1  T
   3    -59.5586773 -0.592836E-07  0.134E-03    3.26      13.4  T
   4    -59.5586774 -0.864944E-08  0.860E-04    3.26      20.9  T
   5    -59.5586774 -0.407612E-08  0.444E-04    3.26      40.4  T
     SCC iter.                  ...        0 min,  0.008 sec
     gradient                   ...        0 min,  0.030 sec
 * total energy  :   -58.9581512 Eh     change       -0.5555554E-04 Eh
   gradient norm :     0.0007149 Eh/α   predicted    -0.1884215E-04 ( -66.08%)
   displ. norm   :     0.1299359 α      lambda       -0.3721235E-04
   maximum displ.:     0.1258259 α      in ANC's #1, #6, #3, ...

........................................................................
.............................. CYCLE   40 ..............................
........................................................................

 iter      E             dE          RMSdq      gap      omega  full diag
   1    -59.5587194 -0.595587E+02  0.265E-02    3.26       0.0  T
   2    -59.5587195 -0.142252E-06  0.157E-02    3.26       1.1  T
   3    -59.5587196 -0.558048E-07  0.132E-03    3.26      13.6  T
   4    -59.5587196 -0.713892E-08  0.828E-04    3.26      21.7  T
   5    -59.5587196 -0.377908E-08  0.405E-04    3.26      44.3  T
     SCC iter.                  ...        0 min,  0.008 sec
     gradient                   ...        0 min,  0.016 sec
 * total energy  :   -58.9582063 Eh     change       -0.5512365E-04 Eh
   gradient norm :     0.0007062 Eh/α   predicted    -0.1874598E-04 ( -65.99%)
   displ. norm   :     0.1342107 α      lambda       -0.3806730E-04
   maximum displ.:     0.1281117 α      in ANC's #1, #6, #3, ...

........................................................................
.............................. CYCLE   41 ..............................
........................................................................

 iter      E             dE          RMSdq      gap      omega  full diag
   1    -59.5586973 -0.595587E+02  0.275E-02    3.26       0.0  T
   2    -59.5586975 -0.156803E-06  0.163E-02    3.26       1.1  T
   3    -59.5586975 -0.492132E-07  0.145E-03    3.26      12.4  T
   4    -59.5586975 -0.149960E-07  0.898E-04    3.26      20.0  T
   5    -59.5586975 -0.469282E-08  0.449E-04    3.26      40.0  T
     SCC iter.                  ...        0 min,  0.008 sec
     gradient                   ...        0 min,  0.016 sec
 * total energy  :   -58.9582625 Eh     change       -0.5614383E-04 Eh
   gradient norm :     0.0006624 Eh/α   predicted    -0.1918622E-04 ( -65.83%)
   displ. norm   :     0.1415783 α      lambda       -0.3907420E-04
   maximum displ.:     0.1333083 α      in ANC's #1, #3, #6, ...

........................................................................
.............................. CYCLE   42 ..............................
........................................................................

 iter      E             dE          RMSdq      gap      omega  full diag
   1    -59.5586765 -0.595587E+02  0.293E-02    3.26       0.0  T
   2    -59.5586767 -0.164851E-06  0.174E-02    3.26       1.0  T
   3    -59.5586767 -0.473840E-07  0.160E-03    3.26      11.3  T
   4    -59.5586768 -0.227835E-07  0.984E-04    3.26      18.3  T
   5    -59.5586768 -0.624194E-08  0.474E-04    3.26      37.9  T
     SCC iter.                  ...        0 min,  0.008 sec
     gradient                   ...        0 min,  0.019 sec
 * total energy  :   -58.9583199 Eh     change       -0.5738520E-04 Eh
   gradient norm :     0.0006060 Eh/α   predicted    -0.1971140E-04 ( -65.65%)
   displ. norm   :     0.1498895 α      lambda       -0.3988297E-04
   maximum displ.:     0.1397621 α      in ANC's #1, #3, #6, ...
 * RMSD in coord.:     0.5860978 α      energy gain  -0.1307765E-02 Eh

generating ANC from exact Hessian ...
Using Lindh-Hessian (1995)
 Shifting diagonal of input Hessian by    9.2350200418451385E-003
 Lowest  eigenvalues of input Hessian
    0.000000    0.000000    0.000000    0.000000    0.000000    0.000000
    0.010000    0.010340    0.010458    0.013482    0.014638    0.016618
    0.017077    0.020119    0.023523    0.025959    0.027689    0.031946
 Highest eigenvalues
    1.940919    2.013538    2.145456    2.188769    2.320895    2.342584


........................................................................
.............................. CYCLE   43 ..............................
........................................................................

 iter      E             dE          RMSdq      gap      omega  full diag
   1    -59.5586614 -0.595587E+02  0.301E-02    3.26       0.0  T
   2    -59.5586616 -0.179856E-06  0.179E-02    3.26       1.0  T
   3    -59.5586617 -0.549417E-07  0.160E-03    3.26      11.2  T
   4    -59.5586617 -0.187010E-07  0.973E-04    3.26      18.5  T
   5    -59.5586617 -0.518505E-08  0.475E-04    3.26      37.8  T
     SCC iter.                  ...        0 min,  0.008 sec
     gradient                   ...        0 min,  0.015 sec
 * total energy  :   -58.9583781 Eh     change       -0.5826983E-04 Eh
   gradient norm :     0.0006040 Eh/α   predicted     0.0000000E+00 (-100.00%)
   displ. norm   :     0.0589287 α      lambda       -0.1595211E-04
   maximum displ.:     0.0584607 α      in ANC's #1, #3, #2, ...

........................................................................
.............................. CYCLE   44 ..............................
........................................................................

 iter      E             dE          RMSdq      gap      omega  full diag
   1    -59.5587147 -0.595587E+02  0.126E-02    3.26       0.0  T
   2    -59.5587147 -0.395024E-07  0.741E-03    3.26       2.4  T
   3    -59.5587147  0.744581E-08  0.112E-03    3.26      16.1  T
   4    -59.5587148 -0.270698E-07  0.554E-04    3.26      32.4  T
   5    -59.5587148 -0.153018E-08  0.339E-04    3.26      52.9  T
     SCC iter.                  ...        0 min,  0.008 sec
     gradient                   ...        0 min,  0.016 sec
 * total energy  :   -58.9584015 Eh     change       -0.2337210E-04 Eh
   gradient norm :     0.0004743 Eh/α   predicted    -0.7996119E-05 ( -65.79%)
   displ. norm   :     0.0623758 α      lambda       -0.1644339E-04
   maximum displ.:     0.0606759 α      in ANC's #1, #3, #2, ...

........................................................................
.............................. CYCLE   45 ..............................
........................................................................

 iter      E             dE          RMSdq      gap      omega  full diag
   1    -59.5587274 -0.595587E+02  0.128E-02    3.26       0.0  T
   2    -59.5587275 -0.352104E-07  0.756E-03    3.26       2.4  T
   3    -59.5587275 -0.558879E-08  0.877E-04    3.26      20.5  T
   4    -59.5587275 -0.118510E-07  0.537E-04    3.26      33.4  T
     SCC iter.                  ...        0 min,  0.006 sec
     gradient                   ...        0 min,  0.025 sec
 * total energy  :   -58.9584258 Eh     change       -0.2433409E-04 Eh
   gradient norm :     0.0004871 Eh/α   predicted    -0.8237218E-05 ( -66.15%)
   displ. norm   :     0.0692448 α      lambda       -0.1781908E-04
   maximum displ.:     0.0660188 α      in ANC's #1, #3, #2, ...

........................................................................
.............................. CYCLE   46 ..............................
........................................................................

 iter      E             dE          RMSdq      gap      omega  full diag
   1    -59.5587329 -0.595587E+02  0.136E-02    3.26       0.0  T
   2    -59.5587329 -0.375453E-07  0.806E-03    3.26       2.2  T
   3    -59.5587329 -0.154725E-07  0.728E-04    3.26      24.7  T
   4    -59.5587329 -0.236840E-08  0.473E-04    3.26      37.9  T
     SCC iter.                  ...        0 min,  0.006 sec
     gradient                   ...        0 min,  0.016 sec
 * total energy  :   -58.9584522 Eh     change       -0.2637455E-04 Eh
   gradient norm :     0.0004536 Eh/α   predicted    -0.8928870E-05 ( -66.15%)
   displ. norm   :     0.0765883 α      lambda       -0.1909802E-04
   maximum displ.:     0.0717514 α      in ANC's #1, #3, #2, ...

........................................................................
.............................. CYCLE   47 ..............................
........................................................................

 iter      E             dE          RMSdq      gap      omega  full diag
   1    -59.5587431 -0.595587E+02  0.147E-02    3.26       0.0  T
   2    -59.5587431 -0.412723E-07  0.864E-03    3.26       2.1  T
   3    -59.5587432 -0.144603E-07  0.772E-04    3.26      23.3  T
   4    -59.5587432 -0.415492E-08  0.483E-04    3.26      37.2  T
     SCC iter.                  ...        0 min,  0.006 sec
     gradient                   ...        0 min,  0.016 sec
 * total energy  :   -58.9584805 Eh     change       -0.2827557E-04 Eh
   gradient norm :     0.0004336 Eh/α   predicted    -0.9574598E-05 ( -66.14%)
   displ. norm   :     0.0820405 α      lambda       -0.1993425E-04
   maximum displ.:     0.0760231 α      in ANC's #1, #3, #2, ...

........................................................................
.............................. CYCLE   48 ..............................
........................................................................

 iter      E             dE          RMSdq      gap      omega  full diag
   1    -59.5587631 -0.595588E+02  0.153E-02    3.26       0.0  T
   2    -59.5587631 -0.444535E-07  0.903E-03    3.26       2.0  T
   3    -59.5587631 -0.970304E-08  0.893E-04    3.26      20.1  T
   4    -59.5587631 -0.999545E-08  0.514E-04    3.26      34.9  T
     SCC iter.                  ...        0 min,  0.006 sec
     gradient                   ...        0 min,  0.018 sec
 * total energy  :   -58.9585101 Eh     change       -0.2959295E-04 Eh
   gradient norm :     0.0004310 Eh/α   predicted    -0.9998162E-05 ( -66.21%)
   displ. norm   :     0.0853469 α      lambda       -0.2032957E-04
   maximum displ.:     0.0782506 α      in ANC's #1, #3, #2, ...

........................................................................
.............................. CYCLE   49 ..............................
........................................................................

 iter      E             dE          RMSdq      gap      omega  full diag
   1    -59.5587959 -0.595588E+02  0.158E-02    3.26       0.0  T
   2    -59.5587960 -0.473790E-07  0.929E-03    3.26       1.9  T
   3    -59.5587960 -0.133968E-07  0.862E-04    3.26      20.8  T
   4    -59.5587960 -0.705707E-08  0.527E-04    3.26      34.1  T
     SCC iter.                  ...        0 min,  0.006 sec
     gradient                   ...        0 min,  0.016 sec
 * total energy  :   -58.9585404 Eh     change       -0.3027525E-04 Eh
   gradient norm :     0.0004318 Eh/α   predicted    -0.1019870E-04 ( -66.31%)
   displ. norm   :     0.0878852 α      lambda       -0.2069119E-04
   maximum displ.:     0.0798323 α      in ANC's #1, #3, #2, ...

........................................................................
.............................. CYCLE   50 ..............................
........................................................................

 iter      E             dE          RMSdq      gap      omega  full diag
   1    -59.5588298 -0.595588E+02  0.162E-02    3.26       0.0  T
   2    -59.5588298 -0.467376E-07  0.958E-03    3.26       1.9  T
   3    -59.5588299 -0.172204E-07  0.794E-04    3.26      22.6  T
   4    -59.5588299 -0.382422E-08  0.506E-04    3.26      35.5  T
     SCC iter.                  ...        0 min,  0.006 sec
     gradient                   ...        0 min,  0.016 sec
 * total energy  :   -58.9585712 Eh     change       -0.3084649E-04 Eh
   gradient norm :     0.0004248 Eh/α   predicted    -0.1038184E-04 ( -66.34%)
   displ. norm   :     0.0908006 α      lambda       -0.2112811E-04
   maximum displ.:     0.0816012 α      in ANC's #1, #3, #4, ...

........................................................................
.............................. CYCLE   51 ..............................
........................................................................

 iter      E             dE          RMSdq      gap      omega  full diag
   1    -59.5588546 -0.595589E+02  0.169E-02    3.26       0.0  T
   2    -59.5588546 -0.527717E-07  0.997E-03    3.26       1.8  T
   3    -59.5588547 -0.205293E-07  0.823E-04    3.26      21.8  T
   4    -59.5588547 -0.344316E-08  0.534E-04    3.26      33.6  T
     SCC iter.                  ...        0 min,  0.006 sec
     gradient                   ...        0 min,  0.035 sec
 * total energy  :   -58.9586027 Eh     change       -0.3149463E-04 Eh
   gradient norm :     0.0004173 Eh/α   predicted    -0.1060339E-04 ( -66.33%)
   displ. norm   :     0.0944407 α      lambda       -0.2168316E-04
   maximum displ.:     0.0840371 α      in ANC's #1, #3, #5, ...

........................................................................
.............................. CYCLE   52 ..............................
........................................................................

 iter      E             dE          RMSdq      gap      omega  full diag
   1    -59.5588845 -0.595589E+02  0.178E-02    3.26       0.0  T
   2    -59.5588846 -0.562292E-07  0.105E-02    3.26       1.7  T
   3    -59.5588846 -0.186916E-07  0.888E-04    3.26      20.2  T
   4    -59.5588846 -0.639830E-08  0.575E-04    3.26      31.3  T
     SCC iter.                  ...        0 min,  0.006 sec
     gradient                   ...        0 min,  0.016 sec
 * total energy  :   -58.9586350 Eh     change       -0.3229350E-04 Eh
   gradient norm :     0.0004037 Eh/α   predicted    -0.1088513E-04 ( -66.29%)
   displ. norm   :     0.0985902 α      lambda       -0.2223313E-04
   maximum displ.:     0.0869414 α      in ANC's #1, #3, #5, ...

........................................................................
.............................. CYCLE   53 ..............................
........................................................................

 iter      E             dE          RMSdq      gap      omega  full diag
   1    -59.5588955 -0.595589E+02  0.187E-02    3.26       0.0  T
   2    -59.5588956 -0.627142E-07  0.110E-02    3.26       1.6  T
   3    -59.5588956 -0.111155E-07  0.110E-03    3.26      16.4  T
   4    -59.5588956 -0.186058E-07  0.656E-04    3.26      27.4  T
   5    -59.5588956 -0.294006E-08  0.347E-04    3.26      51.8  T
     SCC iter.                  ...        0 min,  0.008 sec
     gradient                   ...        0 min,  0.016 sec
 * total energy  :   -58.9586681 Eh     change       -0.3309554E-04 Eh
   gradient norm :     0.0003938 Eh/α   predicted    -0.1116498E-04 ( -66.26%)
   displ. norm   :     0.1021773 α      lambda       -0.2268777E-04
   maximum displ.:     0.0895499 α      in ANC's #1, #3, #5, ...

........................................................................
.............................. CYCLE   54 ..............................
........................................................................

 iter      E             dE          RMSdq      gap      omega  full diag
   1    -59.5589128 -0.595589E+02  0.196E-02    3.26       0.0  T
   2    -59.5589129 -0.708933E-07  0.116E-02    3.26       1.6  T
   3    -59.5589129 -0.147691E-07  0.108E-03    3.26      16.7  T
   4    -59.5589129 -0.156290E-07  0.646E-04    3.26      27.8  T
   5    -59.5589129 -0.293979E-08  0.351E-04    3.26      51.2  T
     SCC iter.                  ...        0 min,  0.008 sec
     gradient                   ...        0 min,  0.025 sec
 * total energy  :   -58.9587017 Eh     change       -0.3364116E-04 Eh
   gradient norm :     0.0003880 Eh/α   predicted    -0.1140083E-04 ( -66.11%)
   displ. norm   :     0.1050393 α      lambda       -0.2288554E-04
   maximum displ.:     0.0917162 α      in ANC's #1, #3, #5, ...

........................................................................
.............................. CYCLE   55 ..............................
........................................................................

 iter      E             dE          RMSdq      gap      omega  full diag
   1    -59.5589216 -0.595589E+02  0.201E-02    3.26       0.0  T
   2    -59.5589217 -0.728741E-07  0.118E-02    3.26       1.5  T
   3    -59.5589217 -0.177300E-07  0.108E-03    3.26      16.6  T
   4    -59.5589218 -0.149945E-07  0.660E-04    3.26      27.2  T
   5    -59.5589218 -0.286386E-08  0.349E-04    3.26      51.5  T
     SCC iter.                  ...        0 min,  0.010 sec
     gradient                   ...        0 min,  0.016 sec
 * total energy  :   -58.9587357 Eh     change       -0.3393071E-04 Eh
   gradient norm :     0.0003857 Eh/α   predicted    -0.1150206E-04 ( -66.10%)
   displ. norm   :     0.1061572 α      lambda       -0.2278310E-04
   maximum displ.:     0.0927111 α      in ANC's #1, #3, #5, ...

........................................................................
.............................. CYCLE   56 ..............................
........................................................................

 iter      E             dE          RMSdq      gap      omega  full diag
   1    -59.5589312 -0.595589E+02  0.204E-02    3.26       0.0  T
   2    -59.5589312 -0.769861E-07  0.120E-02    3.26       1.5  T
   3    -59.5589313 -0.199020E-07  0.107E-03    3.26      16.8  T
   4    -59.5589313 -0.130388E-07  0.657E-04    3.26      27.4  T
   5    -59.5589313 -0.295246E-08  0.351E-04    3.26      51.1  T
     SCC iter.                  ...        0 min,  0.008 sec
     gradient                   ...        0 min,  0.016 sec
 * total energy  :   -58.9587694 Eh     change       -0.3378239E-04 Eh
   gradient norm :     0.0003814 Eh/α   predicted    -0.1145203E-04 ( -66.10%)
   displ. norm   :     0.1056014 α      lambda       -0.2237124E-04
   maximum displ.:     0.0925382 α      in ANC's #1, #3, #5, ...

........................................................................
.............................. CYCLE   57 ..............................
........................................................................

 iter      E             dE          RMSdq      gap      omega  full diag
   1    -59.5589450 -0.595589E+02  0.201E-02    3.26       0.0  T
   2    -59.5589451 -0.771158E-07  0.118E-02    3.26       1.5  T
   3    -59.5589451 -0.196224E-07  0.108E-03    3.26      16.6  T
   4    -59.5589451 -0.140885E-07  0.659E-04    3.26      27.3  T
   5    -59.5589452 -0.287213E-08  0.347E-04    3.26      51.7  T
     SCC iter.                  ...        0 min,  0.008 sec
     gradient                   ...        0 min,  0.031 sec
 * total energy  :   -58.9588027 Eh     change       -0.3323809E-04 Eh
   gradient norm :     0.0003810 Eh/α   predicted    -0.1124458E-04 ( -66.17%)
   displ. norm   :     0.1032484 α      lambda       -0.2167935E-04
   maximum displ.:     0.0910452 α      in ANC's #1, #3, #5, ...

........................................................................
.............................. CYCLE   58 ..............................
........................................................................

 iter      E             dE          RMSdq      gap      omega  full diag
   1    -59.5589575 -0.595590E+02  0.197E-02    3.26       0.0  T
   2    -59.5589576 -0.737302E-07  0.116E-02    3.26       1.6  T
   3    -59.5589576 -0.197488E-07  0.103E-03    3.26      17.4  T
   4    -59.5589576 -0.119876E-07  0.637E-04    3.26      28.2  T
   5    -59.5589577 -0.275723E-08  0.337E-04    3.26      53.3  T
     SCC iter.                  ...        0 min,  0.008 sec
     gradient                   ...        0 min,  0.016 sec
 * total energy  :   -58.9588350 Eh     change       -0.3227636E-04 Eh
   gradient norm :     0.0003745 Eh/α   predicted    -0.1089452E-04 ( -66.25%)
   displ. norm   :     0.0993628 α      lambda       -0.2079740E-04
   maximum displ.:     0.0884752 α      in ANC's #1, #3, #5, ...

........................................................................
.............................. CYCLE   59 ..............................
........................................................................

 iter      E             dE          RMSdq      gap      omega  full diag
   1    -59.5589740 -0.595590E+02  0.188E-02    3.26       0.0  T
   2    -59.5589741 -0.707257E-07  0.110E-02    3.26       1.6  T
   3    -59.5589741 -0.216046E-07  0.980E-04    3.26      18.3  T
   4    -59.5589741 -0.877198E-08  0.618E-04    3.26      29.0  T
     SCC iter.                  ...        0 min,  0.006 sec
     gradient                   ...        0 min,  0.015 sec
 * total energy  :   -58.9588660 Eh     change       -0.3100099E-04 Eh
   gradient norm :     0.0003724 Eh/α   predicted    -0.1044838E-04 ( -66.30%)
   displ. norm   :     0.0945311 α      lambda       -0.1973463E-04
   maximum displ.:     0.0850702 α      in ANC's #1, #3, #2, ...

........................................................................
.............................. CYCLE   60 ..............................
........................................................................

 iter      E             dE          RMSdq      gap      omega  full diag
   1    -59.5589947 -0.595590E+02  0.179E-02    3.26       0.0  T
   2    -59.5589948 -0.624542E-07  0.105E-02    3.26       1.7  T
   3    -59.5589948 -0.121617E-07  0.106E-03    3.26      16.9  T
   4    -59.5589948 -0.166414E-07  0.627E-04    3.26      28.7  T
   5    -59.5589948 -0.259283E-08  0.321E-04    3.26      55.9  T
     SCC iter.                  ...        0 min,  0.026 sec
     gradient                   ...        0 min,  0.016 sec
 * total energy  :   -58.9588955 Eh     change       -0.2948874E-04 Eh
   gradient norm :     0.0003649 Eh/α   predicted    -0.9911163E-05 ( -66.39%)
   displ. norm   :     0.0892312 α      lambda       -0.1869884E-04
   maximum displ.:     0.0814011 α      in ANC's #1, #3, #2, ...

........................................................................
.............................. CYCLE   61 ..............................
[...]
      -----------------------------------------------------------      

   * xtb version 6.7.1 (edcfbbe) compiled by 'conda@3ef47c1a292c' on 2024-11-25

   xtb is free software: you can redistribute it and/or modify it under
   the terms of the GNU Lesser General Public License as published by
   the Free Software Foundation, either version 3 of the License, or
   (at your option) any later version.
   
   xtb is distributed in the hope that it will be useful,
   but WITHOUT ANY WARRANTY; without even the implied warranty of
   MERCHANTABILITY or FITNESS FOR A PARTICULAR PURPOSE.  See the
   GNU Lesser General Public License for more details.
   
   Cite this work as:
   * C. Bannwarth, E. Caldeweyher, S. Ehlert, A. Hansen, P. Pracht,
     J. Seibert, S. Spicher, S. Grimme, WIREs Comput. Mol. Sci., 2020, 11,
     e01493. DOI: 10.1002/wcms.1493
   
   for GFN2-xTB:
   * C. Bannwarth, S. Ehlert and S. Grimme., J. Chem. Theory Comput., 2019,
     15, 1652-1671. DOI: 10.1021/acs.jctc.8b01176
   for GFN1-xTB:
   * S. Grimme, C. Bannwarth, P. Shushkov, J. Chem. Theory Comput., 2017,
     13, 1989-2009. DOI: 10.1021/acs.jctc.7b00118
   for GFN0-xTB:
   * P. Pracht, E. Caldeweyher, S. Ehlert, S. Grimme, ChemRxiv, 2019, preprint.
     DOI: 10.26434/chemrxiv.8326202.v1
   for GFN-FF:
   * S. Spicher and S. Grimme, Angew. Chem. Int. Ed., 2020, 59, 15665-15673.
     DOI: 10.1002/anie.202004239
   
   for ALPB and GBSA implicit solvation:
   * S. Ehlert, M. Stahn, S. Spicher, S. Grimme, J. Chem. Theory Comput.,
     2021, 17, 4250-4261. DOI: 10.1021/acs.jctc.1c00471
   
   for ddCOSMO and CPCM-X implicit solvation:
   * M. Stahn, S. Ehlert, S. Grimme, J. Phys. Chem. A,
     2023, XX, XXXX-XXXX. DOI: 10.1021/acs.jpca.3c04382
   
   for DFT-D4:
   * E. Caldeweyher, C. Bannwarth and S. Grimme, J. Chem. Phys., 2017,
     147, 034112. DOI: 10.1063/1.4993215
   * E. Caldeweyher, S. Ehlert, A. Hansen, H. Neugebauer, S. Spicher,
     C. Bannwarth and S. Grimme, J. Chem. Phys., 2019, 150, 154122.
     DOI: 10.1063/1.5090222
   * E. Caldeweyher, J.-M. Mewes, S. Ehlert and S. Grimme, Phys. Chem. Chem. Phys.
     2020, 22, 8499-8512. DOI: 10.1039/D0CP00502A
   
   for sTDA-xTB:
   * S. Grimme and C. Bannwarth, J. Chem. Phys., 2016, 145, 054103.
     DOI: 10.1063/1.4959605
   
   in the mass-spec context:
   * V. Asgeirsson, C. Bauer and S. Grimme, Chem. Sci., 2017, 8, 4879.
     DOI: 10.1039/c7sc00601b
   * J. Koopman and S. Grimme, ACS Omega 2019, 4, 12, 15120-15133.
     DOI: 10.1021/acsomega.9b02011
   
   for metadynamics refer to:
   * S. Grimme, J. Chem. Theory Comput., 2019, 155, 2847-2862
     DOI: 10.1021/acs.jctc.9b00143
   
   for SPH calculations refer to:
   * S. Spicher and S. Grimme, J. Chem. Theory Comput., 2021, 17, 1701-1714
     DOI: 10.1021/acs.jctc.0c01306
   
   for ONIOM refer to:
   * C. Plett, A. Katbashev, S. Ehlert, S. Grimme, M. Bursch,
     Phys. Chem. Chem. Phys., 2023, 25, 17860-17868. DOI: 10.1039/D3CP02178E
   
   for DIPRO refer to:
   * J. Kohn, N. Gildemeister, S. Grimme, D. Fazzi, A. Hansen,
     J. Chem. Phys., 2023, just accepted.
   
   for PTB refer to:
   * S. Grimme, M. Mueller, A. Hansen, J. Chem. Phys., 2023, 158, 124111.
     DOI: 10.1063/5.0137838
   
   with help from (in alphabetical order)
   P. Atkinson, C. Bannwarth, F. Bohle, G. Brandenburg, E. Caldeweyher
   M. Checinski, S. Dohm, S. Ehlert, S. Ehrlich, I. Gerasimov, C. Hölzer
   A. Katbashev, J. Kohn, J. Koopman, C. Lavigne, S. Lehtola, F. März, M. Müller,
   F. Musil, H. Neugebauer, J. Pisarek, C. Plett, P. Pracht, F. Pultar,
   J. Seibert, P. Shushkov, S. Spicher, M. Stahn, M. Steiner, T. Strunk,
   J. Stückrath, T. Rose, and J. Unsleber
   
 * started run on 2025/05/15 at 16:29:30.520     
   ID    Z sym.   atoms
    1    7 N      1, 3, 6, 9, 11
    2    6 C      2, 4, 7, 8, 10, 12-15, 17
    3   17 Cl     5
    4    8 O      16, 18, 19
    5    1 H      20-31

           -------------------------------------------------
          |                Calculation Setup                |
           -------------------------------------------------

          program call               : xtb /rds/general/user/hgt20/home/callum/QDESCP/Cladribine_rdkit_conf_23/Cladribine_rdkit_conf_23.xyz --acc 1 --gfn 2 --chrg 0 --uhf 2 --etemp 300 --input /rds/general/user/hgt20/home/callum/QDESCP/Cladribine_rdkit_conf_23/Cladribine_rdkit_conf_23_xtb.inp -P 1
          hostname                   : login-c
          coordinate file            : /rds/general/user/hgt20/home/callum/QDESCP/Cladribine_rdkit_conf_23/Cladribine_rdkit_conf_23.xyz
          omp threads                :                     1


           -------------------------------------------------
          |                 G F N 2 - x T B                 |
           -------------------------------------------------

        Reference                      10.1021/acs.jctc.8b01176
      * Hamiltonian:
        H0-scaling (s, p, d)           1.850000    2.230000    2.230000
        zeta-weighting                 0.500000
      * Dispersion:
        s8                             2.700000
        a1                             0.520000
        a2                             5.000000
        s9                             5.000000
      * Repulsion:
        kExp                           1.500000    1.000000
        rExp                           1.000000
      * Coulomb:
        alpha                          2.000000
        third order                    shell-resolved
        anisotropic                    true
        a3                             3.000000
        a5                             4.000000
        cn-shift                       1.200000
        cn-exp                         4.000000
        max-rad                        5.000000


          ...................................................
          :                      SETUP                      :
          :.................................................:
          :  # basis functions                  94          :
          :  # atomic orbitals                  93          :
          :  # shells                           51          :
          :  # electrons                       102          :
          :  max. iterations                   250          :
          :  Hamiltonian                  GFN2-xTB          :
          :  restarted?                      false          :
          :  GBSA solvation                  false          :
          :  PC potential                    false          :
          :  electronic temp.          300.0000000     K    :
          :  accuracy                    1.0000000          :
          :  -> integral cutoff          0.2500000E+02      :
          :  -> integral neglect         0.1000000E-07      :
          :  -> SCF convergence          0.1000000E-05 Eh   :
          :  -> wf. convergence          0.1000000E-03 e    :
          :  Broyden damping             0.4000000          :
          :  net charge                          0          :
          :  unpaired electrons                  2          :
          ...................................................

 iter      E             dE          RMSdq      gap      omega  full diag
   1    -59.1765970 -0.591766E+02  0.441E+00    0.36       0.0  T
   2    -59.3300884 -0.153491E+00  0.291E+00    0.83       1.0  T
   3    -59.3583962 -0.283077E-01  0.201E+00    0.56       1.0  T
   4    -59.3004451  0.579511E-01  0.169E+00    0.75       1.0  T
   5    -59.3792301 -0.787850E-01  0.111E+00    0.34       1.0  T
   6    -59.4247043 -0.454742E-01  0.424E-01    0.38       1.0  T
   7    -59.4280876 -0.338327E-02  0.244E-01    0.39       1.0  T
   8    -59.4295118 -0.142427E-02  0.126E-01    0.39       1.0  T
   9    -59.4298057 -0.293858E-03  0.771E-02    0.39       1.0  T
  10    -59.4298478 -0.421248E-04  0.519E-02    0.38       1.0  T
  11    -59.4299091 -0.613063E-04  0.279E-02    0.39       1.0  T
  12    -59.4299017  0.744000E-05  0.310E-02    0.38       1.0  T
  13    -59.4299076 -0.592960E-05  0.270E-02    0.39       1.0  T
  14    -59.4299224 -0.148199E-04  0.107E-02    0.38       1.7  T
  15    -59.4299249 -0.244931E-05  0.296E-03    0.39       6.1  T
  16    -59.4299248  0.835220E-07  0.322E-03    0.38       5.6  T
  17    -59.4299250 -0.233065E-06  0.115E-03    0.38      15.6  T
  18    -59.4299251 -0.260406E-07  0.582E-04    0.38      30.9  T
  19    -59.4299251  0.272070E-08  0.628E-04    0.38      28.6  T

   *** convergence criteria satisfied after 19 iterations ***

         #    Occupation            Energy/Eh            Energy/eV
      -------------------------------------------------------------
         1        2.0000           -1.0570887             -28.7648
       ...           ...                  ...                  ...
        46        2.0000           -0.4257474             -11.5852
        47        2.0000           -0.4236027             -11.5268
        48        2.0000           -0.4219654             -11.4823
        49        2.0000           -0.4147651             -11.2863
        50        1.5595           -0.3941749             -10.7260
        51        1.4405           -0.3937204             -10.7137
        52        0.9994           -0.2562091              -6.9718 (HOMO)
        53        0.0006           -0.2420667              -6.5870 (LUMO)
        54                         -0.2043321              -5.5602
        55                         -0.1382453              -3.7618
        56                         -0.1128376              -3.0705
        57                         -0.0286715              -0.7802
       ...                                ...                  ...
        93                          0.6430935              17.4995
      -------------------------------------------------------------
                  HL-Gap            0.0141424 Eh            0.3848 eV
             Fermi-level           -0.3215428 Eh           -8.7496 eV

 transition dipole moment (au) for excitation:          51          52
     X       Y       Z   
   0.1883   0.0299   0.1018  total (au/Debye):    0.216   0.549
 dE (eV)             :    3.742
 oscillator strength :  0.60550E-02

 SCC (total)                   0 d,  0 h,  0 min,  0.067 sec
 SCC setup                      ...        0 min,  0.000 sec (  0.383%)
 Dispersion                     ...        0 min,  0.000 sec (  0.414%)
 classical contributions        ...        0 min,  0.000 sec (  0.134%)
 integral evaluation            ...        0 min,  0.006 sec (  8.925%)
 iterations                     ...        0 min,  0.029 sec ( 43.382%)
 molecular gradient             ...        0 min,  0.025 sec ( 37.819%)
 printout                       ...        0 min,  0.006 sec (  8.935%)

         :::::::::::::::::::::::::::::::::::::::::::::::::::::
         ::                     SUMMARY                     ::
         :::::::::::::::::::::::::::::::::::::::::::::::::::::
         :: total energy             -58.829827861437 Eh    ::
         :: gradient norm              0.129034522203 Eh/a0 ::
         :: HOMO-LUMO gap              0.384834202416 eV    ::
         ::.................................................::
         :: SCC energy               -59.429467177061 Eh    ::
         :: -> isotropic ES            0.103534665751 Eh    ::
         :: -> anisotropic ES          0.000336538229 Eh    ::
         :: -> anisotropic XC          0.009725016986 Eh    ::
         :: -> dispersion             -0.034561776761 Eh    ::
         :: repulsion energy           0.599639315624 Eh    ::
         :: add. restraining           0.000000000000 Eh    ::
         :: total charge               0.000000000304 e     ::
         :::::::::::::::::::::::::::::::::::::::::::::::::::::

           -------------------------------------------------
          |                Property Printout                |
           -------------------------------------------------

    * Orbital Energies and Occupations

         #    Occupation            Energy/Eh            Energy/eV
      -------------------------------------------------------------
         1        2.0000           -1.0570887             -28.7648
       ...           ...                  ...                  ...
        40        2.0000           -0.4611301             -12.5480
        41        2.0000           -0.4565394             -12.4231
        42        2.0000           -0.4417094             -12.0195
        43        2.0000           -0.4399095             -11.9705
        44        2.0000           -0.4336690             -11.8007
        45        2.0000           -0.4264644             -11.6047
        46        2.0000           -0.4257474             -11.5852
        47        2.0000           -0.4236027             -11.5268
        48        2.0000           -0.4219654             -11.4823
        49        2.0000           -0.4147651             -11.2863
        50        1.5595           -0.3941749             -10.7260
        51        1.4405           -0.3937204             -10.7137
        52        0.9994           -0.2562091              -6.9718 (HOMO)
        53        0.0006           -0.2420667              -6.5870 (LUMO)
        54                         -0.2043321              -5.5602
        55                         -0.1382453              -3.7618
        56                         -0.1128376              -3.0705
        57                         -0.0286715              -0.7802
        58                         -0.0268154              -0.7297
        59                          0.0003840               0.0104
        60                          0.0095568               0.2601
        61                          0.0162808               0.4430
        62                          0.0164285               0.4470
        63                          0.0170142               0.4630
       ...                                ...                  ...
        93                          0.6430935              17.4995
      -------------------------------------------------------------
                  HL-Gap            0.0141424 Eh            0.3848 eV
             Fermi-level           -0.3215428 Eh           -8.7496 eV

     #   Z          covCN         q      C6AA      α(0)
     1   7 N        2.647    -0.228    25.989     7.571
     2   6 C        2.882     0.119    25.384     8.260
     3   7 N        1.927    -0.257    27.530     7.780
     4   6 C        2.910     0.226    23.260     7.908
     5  17 Cl       1.051    -0.125   103.084    15.533
     6   7 N        1.908    -0.288    28.304     7.888
     7   6 C        3.160     0.140    24.655     8.117
     8   6 C        3.227     0.032    26.513     8.364
     9   7 N        1.882    -0.250    27.369     7.755
    10   6 C        3.190     0.077    25.810     8.287
    11   7 N        2.824    -0.079    22.780     7.089
    12   6 C        3.740     0.176    17.852     6.029
    13   6 C        3.818    -0.096    22.309     6.722
    14   6 C        3.750     0.113    18.795     6.183
    15   6 C        3.787     0.096    19.003     6.209
    16   8 O        1.703    -0.300    19.000     5.885
    17   6 C        3.673     0.080    19.475     6.324
    18   8 O        1.656    -0.427    21.385     6.243
    19   8 O        1.656    -0.434    21.519     6.262
    20   1 H        0.861     0.198     1.116     1.655
    21   1 H        0.860     0.200     1.104     1.646
    22   1 H        0.926     0.060     2.198     2.318
    23   1 H        0.923     0.058     2.218     2.329
    24   1 H        0.925     0.082     1.962     2.191
    25   1 H        0.924     0.069     2.095     2.264
    26   1 H        0.923     0.014     2.819     2.626
    27   1 H        0.924     0.085     1.927     2.171
    28   1 H        0.923     0.032     2.564     2.504
    29   1 H        0.923     0.025     2.653     2.547
    30   1 H        0.805     0.296     0.732     1.344
    31   1 H        0.805     0.304     0.708     1.322

 Mol. C6AA /au·bohr⁶  :      12601.772913
 Mol. C8AA /au·bohr⁸  :     308078.057404
 Mol. α(0) /au        :        169.325728


Wiberg/Mayer (AO) data.
largest (>0.10) Wiberg bond orders for each atom

 ---------------------------------------------------------------------------
     #   Z sym  total        # sym  WBO       # sym  WBO       # sym  WBO
 ---------------------------------------------------------------------------
     1   7 N    3.268 --     2 C    1.220    20 H    0.944    21 H    0.941
     2   6 C    3.863 --     3 N    1.280     1 N    1.220     8 C    1.093
     3   7 N    3.046 --     4 C    1.405     2 C    1.280
     4   6 C    3.843 --     3 N    1.405     6 N    1.200     5 Cl   0.987
     5  17 Cl   1.143 --     4 C    0.987
     6   7 N    2.882 --     7 C    1.282     4 C    1.200
     7   6 C    3.902 --     6 N    1.282     8 C    1.216    11 N    1.193
     8   6 C    3.830 --     9 N    1.307     7 C    1.216     2 C    1.093
     9   7 N    3.014 --    10 C    1.397     8 C    1.307
    10   6 C    3.804 --     9 N    1.397    11 N    1.161    22 H    0.962
    11   7 N    3.575 --     7 C    1.193    10 C    1.161    12 C    0.941
    12   6 C    3.943 --    16 O    1.005    13 C    0.987    23 H    0.947
                            11 N    0.941
    13   6 C    3.983 --    12 C    0.987    14 C    0.981    25 H    0.972
                            24 H    0.958
    14   6 C    3.962 --    19 O    1.006    13 C    0.981    15 C    0.969
                            26 H    0.961
    15   6 C    3.943 --    17 C    0.987    14 C    0.969    16 O    0.961
                            27 H    0.955
    16   8 O    2.104 --    12 C    1.005    15 C    0.961
    17   6 C    3.964 --    18 O    1.006    15 C    0.987    29 H    0.967
                            28 H    0.967
    18   8 O    1.959 --    17 C    1.006    30 H    0.898
    19   8 O    1.968 --    14 C    1.006    31 H    0.891
    20   1 H    0.960 --     1 N    0.944
    21   1 H    0.958 --     1 N    0.941
    22   1 H    0.995 --    10 C    0.962
    23   1 H    0.994 --    12 C    0.947
    24   1 H    0.993 --    13 C    0.958
    25   1 H    0.994 --    13 C    0.972
    26   1 H    1.000 --    14 C    0.961
    27   1 H    0.992 --    15 C    0.955
    28   1 H    0.999 --    17 C    0.967
    29   1 H    0.999 --    17 C    0.967
    30   1 H    0.912 --    18 O    0.898
    31   1 H    0.907 --    19 O    0.891
 ---------------------------------------------------------------------------

Topologies differ in total number of bonds
Writing topology from bond orders to xtbtopo.mol

molecular dipole:
                 x           y           z       tot (Debye)
 q only:        0.140       0.863       0.262
   full:        0.328       0.965       0.331       2.724
molecular quadrupole (traceless):
                xx          xy          yy          xz          yz          zz
 q only:       -4.947      14.018       8.817      -6.512       8.685      -3.871
  q+dip:       -8.235      14.789       9.130     -10.154      12.760      -0.895
   full:       -8.403      13.647       9.057     -11.496      12.108      -0.654


           -------------------------------------------------
          | TOTAL ENERGY              -58.829827861437 Eh   |
          | GRADIENT NORM               0.129034522203 Eh/α |
          | HOMO-LUMO GAP               0.384834202416 eV   |
           -------------------------------------------------

------------------------------------------------------------------------
 * finished run on 2025/05/15 at 16:29:30.598     
------------------------------------------------------------------------
 total:
 * wall-time:     0 d,  0 h,  0 min,  0.078 sec
 *  cpu-time:     0 d,  0 h,  0 min,  0.067 sec
 * ratio c/w:     0.856 speedup
 SCF:
 * wall-time:     0 d,  0 h,  0 min,  0.067 sec
 *  cpu-time:     0 d,  0 h,  0 min,  0.057 sec
 * ratio c/w:     0.845 speedup


