31
 energy: -58.959754216640 gnorm: 0.000138661077 xtb: 6.7.1 (edcfbbe)
N            3.98010353929984        2.25178871074213        1.08881696354869
C            3.26571811933342        1.14311920685671        0.85694574780897
N            3.64041235726684        0.00599056641838        1.45058462495364
C            2.93600298720984       -1.08625603177138        1.23162919340773
Cl           3.48719437785724       -2.48287864226563        2.04243855922070
N            1.86964676705748       -1.25443699628184        0.47990677218619
C            1.48328212498415       -0.12467270208192       -0.12331014753972
C            2.13145482059420        1.11549087615106        0.02540373661862
N            1.48354687580233        2.06539338084210       -0.72088656990010
C            0.50806704412479        1.43053135110594       -1.29147851145702
N            0.44191061796232        0.09849528830713       -0.97321198103649
C           -0.55498734915101       -0.82625380479324       -1.50928553168914
C           -0.78816822564153       -2.00205234594945       -0.56932747787879
C           -1.77925760229463       -1.38866102692162        0.43102093531228
C           -2.53485684864964       -0.35070938573448       -0.42495235672991
O           -1.78371910779187       -0.17826021631446       -1.62404316725936
C           -2.74245844736215        0.97433839904847        0.31080873394668
O           -3.65729026345911        1.75391690876182       -0.41627744763220
O           -2.69662090734109       -2.29469074062043        0.97571100286694
H            3.73640935485600        3.10031578057991        0.61105641912280
H            4.80470150368605        2.19017474829072        1.65885846110171
H           -0.20948937095823        1.87718368209627       -1.95061281823548
H           -0.23706887270981       -1.12061227336878       -2.51839764307482
H            0.13101507517942       -2.35698457371622       -0.11043542738452
H           -1.28132929514431       -2.80661648750781       -1.11563328528496
H           -1.22465152133032       -0.87498878577435        1.23352291037262
H           -3.51846548001495       -0.74326522583303       -0.70456444591262
H           -3.13347612982417        0.74681126607718        1.31342620418192
H           -1.77642526966801        1.49087434137547        0.41233299285304
H           -3.76431482814872        2.60665658955782        0.01821595464054
H           -2.21708604572736       -2.96004185727472        1.48223759887413
