29
 energy: -55.285410104765 gnorm: 0.000643104824 xtb: 6.7.1 (edcfbbe)
O           -4.12236018985041        1.24341114225630        0.36802816147021
C           -2.90322991427907        1.18949894761107       -0.31725838517471
C           -2.48430129068078       -0.24965559865327       -0.65711947960531
C           -2.30882093710496       -1.12538503714013        0.59223049242469
C           -0.79214031667565       -1.05520146042085        0.83035460146647
C           -0.27671688370406       -0.95082842783491       -0.62306494090519
N            0.99492242331066       -0.28017953616204       -0.65082223415011
C            1.50381893677054        0.62907503949559       -1.50179661956776
N            2.71294286221247        0.96035341044740       -1.12646892049924
C            2.92388760714691        0.21374581470319       -0.01155401137609
C            4.18509097776522        0.26953832200367        0.76832558371575
N            5.08332185183553        1.10440042256723        0.20489965074730
O            4.37817222123951       -0.35783735673337        1.78525604701239
N            1.89409082328421       -0.54690115481980        0.29879352183974
O           -1.22957275542004       -0.22867247573993       -1.34425868100350
O           -0.32965414934784       -2.17716042498172        1.51071482900352
O           -2.72018170785977       -2.43390082217072        0.31417648589281
H           -4.81222115375240        0.84538025949342       -0.17518276772761
H           -2.16326755678549        1.64173430709523        0.34735675644053
H           -2.93398941421981        1.77071464366566       -1.24849478354113
H           -3.22706780666445       -0.71397007641720       -1.31806513103870
H           -2.87482076582716       -0.71449062447065        1.43946909513230
H           -0.53801104001181       -0.12671650836429        1.36119522736644
H           -0.15272100364330       -1.96647934259526       -1.04142201306885
H            0.96802427982559        1.00801609211835       -2.34589385475470
H            5.97902146623004        1.23883638305706        0.64199658838459
H            4.84308751879318        1.59915269681105       -0.63718358797848
H            0.62539479996526       -2.08030272078235        1.63540780359037
H           -2.22279888255230       -3.02117591403888        0.90058056590430
