57
 energy: -90.571167683312 gnorm: 0.000391279151 xtb: 6.7.1 (edcfbbe)
C            2.81846726215250       -0.60621538173336       -2.02417257959383
N            3.24120572404484       -0.95391242837253       -0.68897591247798
C            4.55485401211033       -0.92484841029390       -0.36337176833651
N            4.93228354368047       -1.38123796036380        0.80707119687336
C            6.24914211792409       -1.36514342970239        1.08821634449544
C            7.21542005958729       -0.90855675715101        0.25067440722247
C            6.84430951291555       -0.38357983732669       -1.03047589354945
N            5.45477365176456       -0.43026699877342       -1.25544119774178
O            7.55929838843758        0.07819334287022       -1.89658989290370
C            2.32383030037065       -1.31196204669697        0.39599367786559
C            0.91697097820028       -1.73517695105142       -0.03246128565597
C           -0.02250835947145       -0.56880905807018       -0.35138090395416
C            2.21583273428976       -0.17895965689194        1.42929293726268
C            1.28870385939403        0.93487157593737        0.96349496648805
N           -0.03543804012341        0.36983211752652        0.75854947889716
C           -1.06563450844534        1.27929739674831        0.82540933177621
N           -0.91312870788357        2.57455799066769        0.83221114085988
C           -2.17084042871433        3.09723598673883        1.00246676467457
C           -3.10757500219756        2.04407701938205        1.10145591671107
N           -2.37307958279254        0.88080604589152        0.99672670869579
C           -2.87573116922367       -0.44863133035964        1.19359884261399
C           -3.38565764315319       -1.10894171510135       -0.06911051600314
C           -3.47739515884963       -2.49563896562894       -0.12698988630258
C           -3.96067501135941       -3.12650211070424       -1.25784393701978
C           -4.34983944581383       -2.35087897206810       -2.33549232147380
F           -4.81639424256612       -2.95883737217316       -3.44462640968163
C           -4.26941920648128       -0.97128296298660       -2.30629879800342
C           -3.78771128299761       -0.35518101474212       -1.16492029698227
C           -4.46071067041216        2.28077923486112        1.26212442351386
C           -4.86326343808515        3.60217305355833        1.32783544304427
C           -3.94716755414483        4.64832322220670        1.23163217275314
C           -2.59554032889792        4.41714890805722        1.06913664366202
H            2.77703685689921        0.47836497417522       -2.17710333178299
H            3.49894459414539       -1.04320880247523       -2.75907135657978
H            1.83679709199148       -1.02284756267296       -2.22029985328265
H            6.49083293185622       -1.75797999541338        2.06702450649459
H            8.25854110946080       -0.91205067686835        0.51515548818933
H            5.16199455613747       -0.02823629204779       -2.13603783088356
H            2.80433222144846       -2.16358594951189        0.89277864262882
H            0.95344476657235       -2.42678656285316       -0.87524903609736
H            0.49161978576885       -2.27898200329515        0.81313990737568
H            0.28903387755892       -0.04438865268494       -1.26687197164317
H           -1.02690358432483       -0.95682064873050       -0.52612583840076
H            1.81971202989811       -0.59851034186142        2.35447646851489
H            3.20929375016685        0.21449948199261        1.63624498215283
H            1.20872863071719        1.71375175522935        1.72128517521189
H            1.66535476530699        1.39995448484313        0.04232489162352
H           -2.08163748795166       -1.05576190801517        1.64076483008373
H           -3.70024337239416       -0.39048121258192        1.91574157559364
H           -3.16816163131900       -3.08700026270128        0.72230234978912
H           -4.03760952079784       -4.20058827342499       -1.31327749500225
H           -4.58285443097300       -0.39573455784667       -3.16251755919214
H           -3.72334604094412        0.72184109799497       -1.13207024488410
H           -5.17607347796618        1.47363184044328        1.32808039827961
H           -5.91160440444280        3.82847302375820        1.45373877493922
H           -4.30882905789095        5.66458606975757        1.28471401409312
H           -1.88568632217377        5.22472844046935        0.99271371496467
