54
 energy: -87.154279169568 gnorm: 0.000694345061 xtb: 6.7.1 (edcfbbe)
O            3.57110808305511        1.26043327648105       -4.13043751318912
C            2.84290357888049        1.34564890564542       -3.15242688614852
C            2.56724978147096        0.17703264449901       -2.34041139332314
C            1.59535957837833       -0.14407476645561       -1.44825576336159
C            1.66402672394471       -1.55983578652627       -0.89309715439474
N            1.48346791078904       -1.62162522823200        0.54208924354133
C            2.41085487988565       -2.16578431028468        1.36511128287989
C            1.99301162891260       -2.14850387539585        2.82265478549525
O            3.46594629688647       -2.61430378162595        0.97456440428546
C            0.67920374329713       -2.48274068518581       -1.64169848624191
C           -0.64807399512795       -1.79482908256011       -1.98414905839294
C            2.32867365020437        2.67373485422181       -2.73208711900937
O            3.07178333589967        3.64179154462926       -3.29633683041311
C            2.80729408136296        4.99709103714719       -3.03169818708489
C            1.23513481765105        2.91872034283400       -1.95481401648113
C            0.36566859471760        2.01784035639668       -1.31130996000026
C            0.48989827194904        0.67845657334846       -1.05765858232267
C           -0.62311629092181        0.05425426760392       -0.30746286435881
C           -1.11643233064999        0.64129973311118        0.86480830333076
O           -0.56320564205219        1.81985490642894        1.32017198127799
C            0.24638700101965        1.69889320537911        2.47241534463654
C           -2.17002343382565        0.05768561899012        1.58411864277764
O           -2.51587849320734        0.70444184761768        2.73853419009379
C           -3.85261961402281        0.67060524616305        3.19025527420764
C           -1.21237016640328       -1.12467725898774       -0.76839406500380
C           -2.25853583274183       -1.69448075371674       -0.06471981998527
C           -2.74611101619101       -1.13331639635206        1.10918923465594
O           -3.75361951425487       -1.69063023891114        1.84854872878691
C           -4.41938837979207       -2.82176670896449        1.34143813124698
H            3.28855567352340       -0.60224137308670       -2.56378491441411
H            2.67667769796708       -1.95067976730830       -1.04355111579411
H            0.61504853667153       -1.28491355200625        0.92528525221434
H            1.97970625539795       -1.12392433944319        3.18913822915020
H            0.99929554139538       -2.57434303895123        2.94079393663008
H            2.70700802203571       -2.72213863275394        3.40599135140557
H            1.14838589582221       -2.81914755405408       -2.56688219204472
H            0.49526184249040       -3.35915992235431       -1.01723176891264
H           -1.34776468883396       -2.53747366156958       -2.36976130633146
H           -0.47330645146314       -1.05222958234683       -2.76548331192812
H            3.58978079269208        5.55135827153281       -3.54728055866595
H            1.83164092527254        5.30088416081490       -3.42536874561478
H            2.85292904786655        5.21485961024587       -1.95970768357660
H            0.93859104419893        3.95424231579770       -1.84681528964013
H           -0.53085406201237        2.47969262931750       -0.92042510747830
H            0.51730719493763        2.71425786536350        2.75420426228205
H            1.15694736710345        1.13097575381630        2.24547802307632
H           -0.29167327803717        1.22233425843577        3.29465875446105
H           -4.09043190326895       -0.27580446583475        3.67956590051354
H           -3.93124313162329        1.48469590212594        3.91066381767768
H           -4.55502667621396        0.84162226612937        2.37180233618513
H           -2.68977924168750       -2.60754038825143       -0.44232469634973
H           -5.20751272037972       -3.04032685041437        2.06041948494072
H           -4.86744460454361       -2.62091625858589        0.36349096536969
H           -3.75079632839350       -3.68519913390196        1.26838252936763
