42
 energy: -66.163996483587 gnorm: 0.000906250271 xtb: 6.7.1 (edcfbbe)
Cl           3.10123127673386       -0.52844667289506        0.73182609815264
C            2.15344331438997       -1.39329398548099       -0.43593275278298
C            0.79115203171545       -1.13407166676122       -0.60899404193652
C            0.07553675210840       -0.11789723127290        0.27893334974537
C           -1.39488729344344        0.06737228925987       -0.09638914577852
C           -2.42997021065344       -0.14494312776778        0.80172988503886
C           -3.74192966567497        0.10561732767014        0.43208524751691
C           -4.03530925057472        0.57625278973047       -0.83376248360133
C           -3.00531728815384        0.80624801389278       -1.73149181139997
C           -1.69662627584061        0.56212086805086       -1.36323750315600
C            0.64089385030482        1.29325234283574        0.15667184660313
C            1.52388070834363        1.65215199281787       -0.85178481057682
C            1.95887712240988        2.96133922917602       -0.96920654275351
C            1.50701642510771        3.93024798492291       -0.09222212667567
C            0.59449337468370        3.58778009536061        0.89094805852109
C            0.15425437772789        2.28265417062194        1.00572228959291
N            0.20815647079903       -0.64437107255211        1.63135017415975
C           -0.19127345890685       -1.90869241965701        1.98234309743320
C            0.14902788202562       -2.06624176046722        3.29181411392157
N            0.75499153616748       -0.93903002652715        3.74894994978454
C            0.78260638021653       -0.11670097038742        2.73953706870143
C            0.10598501045420       -1.90751888272229       -1.53878356412236
C            0.74900517103640       -2.87137492242687       -2.29508310833123
C            2.10298348402932       -3.09530359965468       -2.12642433644339
C            2.80301946378786       -2.35768973870693       -1.19041441138938
H           -2.22819244062266       -0.50373942216112        1.79961756738069
H           -4.53486997267775       -0.06561318695914        1.14484164596420
H           -5.05828014235714        0.77141968635875       -1.11844015941253
H           -3.22103460187022        1.18468925844423       -2.71955466896646
H           -0.89607280456376        0.75963496384100       -2.06147944641649
H            1.87835246790582        0.91364797057157       -1.55522676775183
H            2.65360588113097        3.22117397824790       -1.75391272680510
H            1.85239321462951        4.94922710632784       -0.18197924989313
H            0.21625081718986        4.34009901618615        1.56678229232860
H           -0.58165825308328        2.03209314035925        1.75584528900670
H           -0.66647870057825       -2.56660299133177        1.28348241721481
H            0.00040388951574       -2.91238185576876        3.93190745662678
H            1.22370490944245        0.85771605539300        2.77441350809405
H           -0.95428843732940       -1.75963175162247       -1.67074947093600
H            0.18568474341646       -3.45006134257761       -3.01048282577421
H            2.61304770856484       -3.84505017648679       -2.71123790394891
H            3.85629053249446       -2.52608147588182       -1.03221149693550
