49
 energy: -69.208222722681 gnorm: 0.000363696079 xtb: 6.7.1 (edcfbbe)
C            0.46219907595732       -2.57325817513022        1.21924297277349
C            0.73010270255164       -1.20332397641314        0.60353472982355
N            2.14181441751677       -1.12106622806316        0.29467723553953
C            2.84506886173067        0.02415704800730        0.09474669519450
C            2.32606402560427        1.28392356712654        0.36227763439796
C            3.11923978698762        2.41327864076651        0.17033656356729
N            4.35300812091073        2.39317783627042       -0.26028340405400
C            4.90056213078698        1.19253614438956       -0.52746330093596
C            4.20169356332742       -0.03726375679543       -0.36692531639672
C            4.88347210689544       -1.23196494314723       -0.66604386023212
C            6.17931600825085       -1.22664148399661       -1.10590048490299
C            6.85090357165419       -0.00709974166275       -1.26527812225802
Cl           8.48739488076783       -0.02901914278834       -1.82400334598888
C            6.23503301369658        1.17939989801045       -0.98482989253781
C           -0.10767631816367       -0.95590968779066       -0.66408853018601
C           -1.61913979358472       -0.93810142904086       -0.44101603099199
C           -2.06932258998834        0.17932627336724        0.50572614650803
N           -3.50286776405179        0.40826993466425        0.40895004708375
C           -4.28731265137708       -0.59317555970605        1.11108123713918
C           -5.70921859549980       -0.68262005644849        0.56949208279882
C           -3.91377840901834        1.77697354894422        0.70616028001579
C           -4.49637196275931        2.42130311294177       -0.56043863134509
O           -3.59189426949973        2.33848582381148       -1.63108713321737
H            1.14672020118720       -2.74777704145306        2.04604550694316
H            0.59960244215657       -3.35935714086812        0.47901343756751
H           -0.55267076082848       -2.63037052618766        1.60018547291097
H            0.50781397442308       -0.43414807276465        1.34871689891525
H            2.53114727853846       -1.96279208150848       -0.09801199726537
H            1.31529925583035        1.40920411266053        0.71352327112852
H            2.71114122139023        3.39509316886731        0.37606970855327
H            4.39450701179623       -2.18814376834981       -0.54399502049050
H            6.69119978063123       -2.14918513987919       -1.33001375730500
H            6.73846426282663        2.12538900344573       -1.09836524317721
H            0.20170829379508       -0.00084006513176       -1.09537494122349
H            0.13131859734012       -1.73716892813252       -1.39069864912660
H           -2.10670955446694       -0.78058992221606       -1.40547383115133
H           -1.94501694445459       -1.90949083501465       -0.06897780139952
H           -1.56107665219467        1.09865844709725        0.20528905136029
H           -1.76978197635672       -0.05536087970174        1.54141325798529
H           -4.31625982236658       -0.39254463254782        2.19736486397787
H           -3.80291876940819       -1.56017435989960        0.96608101624199
H           -6.23044278315618       -1.51201212345999        1.04149544283550
H           -5.68592398146442       -0.84913594810577       -0.50416782226523
H           -6.26602755889598        0.22912163552791        0.76816285066295
H           -4.66225605379951        1.80232408243962        1.50429638330768
H           -3.05661926570863        2.37238837735038        1.03617984998322
H           -5.44031818489979        1.92545756374248       -0.82668859406252
H           -4.69147890395404        3.48287133975100       -0.39381190471291
H           -3.29931102066175        1.41769608703252       -1.66252502199255
