----- Optimization -----
      -----------------------------------------------------------      
     |                   =====================                   |     
     |                           x T B                           |     
     |                   =====================                   |     
     |                         S. Grimme                         |     
     |          Mulliken Center for Theoretical Chemistry        |     
     |                    University of Bonn                     |     
      -----------------------------------------------------------      

   * xtb version 6.7.1 (edcfbbe) compiled by 'conda@3ef47c1a292c' on 2024-11-25

   xtb is free software: you can redistribute it and/or modify it under
   the terms of the GNU Lesser General Public License as published by
   the Free Software Foundation, either version 3 of the License, or
   (at your option) any later version.
   
   xtb is distributed in the hope that it will be useful,
   but WITHOUT ANY WARRANTY; without even the implied warranty of
   MERCHANTABILITY or FITNESS FOR A PARTICULAR PURPOSE.  See the
   GNU Lesser General Public License for more details.
   
   Cite this work as:
   * C. Bannwarth, E. Caldeweyher, S. Ehlert, A. Hansen, P. Pracht,
     J. Seibert, S. Spicher, S. Grimme, WIREs Comput. Mol. Sci., 2020, 11,
     e01493. DOI: 10.1002/wcms.1493
   
   for GFN2-xTB:
   * C. Bannwarth, S. Ehlert and S. Grimme., J. Chem. Theory Comput., 2019,
     15, 1652-1671. DOI: 10.1021/acs.jctc.8b01176
   for GFN1-xTB:
   * S. Grimme, C. Bannwarth, P. Shushkov, J. Chem. Theory Comput., 2017,
     13, 1989-2009. DOI: 10.1021/acs.jctc.7b00118
   for GFN0-xTB:
   * P. Pracht, E. Caldeweyher, S. Ehlert, S. Grimme, ChemRxiv, 2019, preprint.
     DOI: 10.26434/chemrxiv.8326202.v1
   for GFN-FF:
   * S. Spicher and S. Grimme, Angew. Chem. Int. Ed., 2020, 59, 15665-15673.
     DOI: 10.1002/anie.202004239
   
   for ALPB and GBSA implicit solvation:
   * S. Ehlert, M. Stahn, S. Spicher, S. Grimme, J. Chem. Theory Comput.,
     2021, 17, 4250-4261. DOI: 10.1021/acs.jctc.1c00471
   
   for ddCOSMO and CPCM-X implicit solvation:
   * M. Stahn, S. Ehlert, S. Grimme, J. Phys. Chem. A,
     2023, XX, XXXX-XXXX. DOI: 10.1021/acs.jpca.3c04382
   
   for DFT-D4:
   * E. Caldeweyher, C. Bannwarth and S. Grimme, J. Chem. Phys., 2017,
     147, 034112. DOI: 10.1063/1.4993215
   * E. Caldeweyher, S. Ehlert, A. Hansen, H. Neugebauer, S. Spicher,
     C. Bannwarth and S. Grimme, J. Chem. Phys., 2019, 150, 154122.
     DOI: 10.1063/1.5090222
   * E. Caldeweyher, J.-M. Mewes, S. Ehlert and S. Grimme, Phys. Chem. Chem. Phys.
     2020, 22, 8499-8512. DOI: 10.1039/D0CP00502A
   
   for sTDA-xTB:
   * S. Grimme and C. Bannwarth, J. Chem. Phys., 2016, 145, 054103.
     DOI: 10.1063/1.4959605
   
   in the mass-spec context:
   * V. Asgeirsson, C. Bauer and S. Grimme, Chem. Sci., 2017, 8, 4879.
     DOI: 10.1039/c7sc00601b
   * J. Koopman and S. Grimme, ACS Omega 2019, 4, 12, 15120-15133.
     DOI: 10.1021/acsomega.9b02011
   
   for metadynamics refer to:
   * S. Grimme, J. Chem. Theory Comput., 2019, 155, 2847-2862
     DOI: 10.1021/acs.jctc.9b00143
   
   for SPH calculations refer to:
   * S. Spicher and S. Grimme, J. Chem. Theory Comput., 2021, 17, 1701-1714
     DOI: 10.1021/acs.jctc.0c01306
   
   for ONIOM refer to:
   * C. Plett, A. Katbashev, S. Ehlert, S. Grimme, M. Bursch,
     Phys. Chem. Chem. Phys., 2023, 25, 17860-17868. DOI: 10.1039/D3CP02178E
   
   for DIPRO refer to:
   * J. Kohn, N. Gildemeister, S. Grimme, D. Fazzi, A. Hansen,
     J. Chem. Phys., 2023, just accepted.
   
   for PTB refer to:
   * S. Grimme, M. Mueller, A. Hansen, J. Chem. Phys., 2023, 158, 124111.
     DOI: 10.1063/5.0137838
   
   with help from (in alphabetical order)
   P. Atkinson, C. Bannwarth, F. Bohle, G. Brandenburg, E. Caldeweyher
   M. Checinski, S. Dohm, S. Ehlert, S. Ehrlich, I. Gerasimov, C. Hölzer
   A. Katbashev, J. Kohn, J. Koopman, C. Lavigne, S. Lehtola, F. März, M. Müller,
   F. Musil, H. Neugebauer, J. Pisarek, C. Plett, P. Pracht, F. Pultar,
   J. Seibert, P. Shushkov, S. Spicher, M. Stahn, M. Steiner, T. Strunk,
   J. Stückrath, T. Rose, and J. Unsleber
   
 * started run on 2025/05/15 at 16:23:54.335     
   ID    Z sym.   atoms
    1    6 C      1-8, 10-13, 15-19
    2    7 N      9
    3    8 O      14, 20, 21
    4    1 H      22-42

           -------------------------------------------------
          |                Calculation Setup                |
           -------------------------------------------------

          program call               : xtb /rds/general/user/hgt20/home/callum/QDESCP/Etodolac_rdkit_conf_20/Etodolac_rdkit_conf_20.xyz --opt normal --acc 1 --gfn 2 --chrg 0 --uhf 0 -P 1
          hostname                   : login-c
          coordinate file            : /rds/general/user/hgt20/home/callum/QDESCP/Etodolac_rdkit_conf_20/Etodolac_rdkit_conf_20.xyz
          omp threads                :                     1


           -------------------------------------------------
          |                 G F N 2 - x T B                 |
           -------------------------------------------------

        Reference                      10.1021/acs.jctc.8b01176
      * Hamiltonian:
        H0-scaling (s, p, d)           1.850000    2.230000    2.230000
        zeta-weighting                 0.500000
      * Dispersion:
        s8                             2.700000
        a1                             0.520000
        a2                             5.000000
        s9                             5.000000
      * Repulsion:
        kExp                           1.500000    1.000000
        rExp                           1.000000
      * Coulomb:
        alpha                          2.000000
        third order                    shell-resolved
        anisotropic                    true
        a3                             3.000000
        a5                             4.000000
        cn-shift                       1.200000
        cn-exp                         4.000000
        max-rad                        5.000000


          ...................................................
          :                      SETUP                      :
          :.................................................:
          :  # basis functions                 105          :
          :  # atomic orbitals                 105          :
          :  # shells                           63          :
          :  # electrons                       112          :
          :  max. iterations                   250          :
          :  Hamiltonian                  GFN2-xTB          :
          :  restarted?                      false          :
          :  GBSA solvation                  false          :
          :  PC potential                    false          :
          :  electronic temp.          300.0000000     K    :
          :  accuracy                    1.0000000          :
          :  -> integral cutoff          0.2500000E+02      :
          :  -> integral neglect         0.1000000E-07      :
          :  -> SCF convergence          0.1000000E-05 Eh   :
          :  -> wf. convergence          0.1000000E-03 e    :
          :  Broyden damping             0.4000000          :
          :  net charge                          0          :
          :  unpaired electrons                  0          :
          ...................................................

 iter      E             dE          RMSdq      gap      omega  full diag
   1    -62.9582679 -0.629583E+02  0.379E+00    3.10       0.0  T
   2    -63.0779418 -0.119674E+00  0.220E+00    3.06       1.0  T
   3    -63.0827860 -0.484415E-02  0.122E+00    3.35       1.0  T
   4    -63.0892051 -0.641915E-02  0.542E-01    3.02       1.0  T
   5    -63.0991129 -0.990776E-02  0.127E-01    2.97       1.0  T
   6    -63.0994376 -0.324710E-03  0.593E-02    2.99       1.0  T
   7    -63.0994735 -0.359073E-04  0.259E-02    2.99       1.0  T
   8    -63.0994750 -0.145907E-05  0.120E-02    2.99       1.3  T
   9    -63.0994787 -0.372317E-05  0.292E-03    3.00       5.3  T
  10    -63.0994787 -0.360461E-07  0.148E-03    3.00      10.4  T
  11    -63.0994788 -0.274064E-07  0.616E-04    3.00      25.1  T
  12    -63.0994788 -0.552811E-08  0.243E-04    3.00      63.5  T

   *** convergence criteria satisfied after 12 iterations ***

         #    Occupation            Energy/Eh            Energy/eV
      -------------------------------------------------------------
         1        2.0000           -0.7447542             -20.2658
       ...           ...                  ...                  ...
        50        2.0000           -0.4235268             -11.5247
        51        2.0000           -0.4180736             -11.3764
        52        2.0000           -0.4127040             -11.2302
        53        2.0000           -0.4022627             -10.9461
        54        2.0000           -0.3954066             -10.7596
        55        2.0000           -0.3792241             -10.3192
        56        2.0000           -0.3541462              -9.6368 (HOMO)
        57                         -0.2440640              -6.6413 (LUMO)
        58                         -0.2311984              -6.2912
        59                         -0.1951997              -5.3117
        60                         -0.1592189              -4.3326
        61                         -0.0738463              -2.0095
       ...                                ...                  ...
       105                          0.7056711              19.2023
      -------------------------------------------------------------
                  HL-Gap            0.1100822 Eh            2.9955 eV
             Fermi-level           -0.2991051 Eh           -8.1391 eV

 SCC (total)                   0 d,  0 h,  0 min,  0.106 sec
 SCC setup                      ...        0 min,  0.000 sec (  0.382%)
 Dispersion                     ...        0 min,  0.000 sec (  0.448%)
 classical contributions        ...        0 min,  0.000 sec (  0.137%)
 integral evaluation            ...        0 min,  0.008 sec (  7.111%)
 iterations                     ...        0 min,  0.024 sec ( 22.544%)
 molecular gradient             ...        0 min,  0.073 sec ( 69.210%)
 printout                       ...        0 min,  0.000 sec (  0.161%)

         :::::::::::::::::::::::::::::::::::::::::::::::::::::
         ::                     SUMMARY                     ::
         :::::::::::::::::::::::::::::::::::::::::::::::::::::
         :: total energy             -62.279633198185 Eh    ::
         :: gradient norm              0.076129910285 Eh/a0 ::
         :: HOMO-LUMO gap              2.995488758268 eV    ::
         ::.................................................::
         :: SCC energy               -63.098920851262 Eh    ::
         :: -> isotropic ES            0.076583732711 Eh    ::
         :: -> anisotropic ES          0.010564921172 Eh    ::
         :: -> anisotropic XC          0.018551714094 Eh    ::
         :: -> dispersion             -0.044324774054 Eh    ::
         :: repulsion energy           0.819287653077 Eh    ::
         :: add. restraining           0.000000000000 Eh    ::
         :: total charge              -0.000000000000 e     ::
         :::::::::::::::::::::::::::::::::::::::::::::::::::::

      ----------------------------------------------------------- 
     |                   =====================                   |
     |                        A N C O P T                        |
     |                   =====================                   |
     |               Approximate Normal Coordinate               |
     |                Rational Function Optimizer                |
      ----------------------------------------------------------- 
      ----------------------------------------------------------- 
     |                   =====================                   |
     |                        A N C O P T                        |
     |                   =====================                   |
     |               Approximate Normal Coordinate               |
     |                Rational Function Optimizer                |
      ----------------------------------------------------------- 

          ...................................................
          :                      SETUP                      :
          :.................................................:
          :   optimization level            normal          :
          :   max. optcycles                   200          :
          :   ANC micro-cycles                  20          :
          :   degrees of freedom               120          :
          :.................................................:
          :   RF solver                   davidson          :
          :   write xtbopt.log                true          :
          :   linear?                        false          :
          :   energy convergence         0.5000000E-05 Eh   :
          :   grad. convergence          0.1000000E-02 Eh/α :
          :   maxmium RF displ.          1.0000000          :
          :   Hlow (freq-cutoff)         0.1000000E-01      :
          :   Hmax (freq-cutoff)         5.0000000          :
          :   S6 in model hess.         20.0000000          :
          ...................................................

generating ANC from exact Hessian ...
Using Lindh-Hessian (1995)
 Shifting diagonal of input Hessian by    9.4606120172751433E-003
 Lowest  eigenvalues of input Hessian
    0.000000    0.000000    0.000000    0.000000    0.000000    0.000000
    0.010000    0.010209    0.010712    0.011300    0.011598    0.012455
    0.013062    0.014135    0.014388    0.014704    0.015300    0.017305
 Highest eigenvalues
    1.831559    1.925879    1.982597    2.025707    2.127960    2.266388


........................................................................
.............................. CYCLE    1 ..............................
........................................................................

 iter      E             dE          RMSdq      gap      omega  full diag
   1    -63.0994788 -0.630995E+02  0.120E-04    3.00       0.0  T
   2    -63.0994788 -0.893792E-10  0.765E-05    3.00     201.8  T
   3    -63.0994788 -0.406501E-10  0.505E-05    3.00     305.8  T
     SCC iter.                  ...        0 min,  0.006 sec
     gradient                   ...        0 min,  0.076 sec
 * total energy  :   -62.2796332 Eh     change       -0.7967671E-09 Eh
   gradient norm :     0.0761317 Eh/α   predicted     0.0000000E+00 (-100.00%)
   displ. norm   :     0.2828729 α      lambda       -0.1016747E-01
   maximum displ.:     0.0891744 α      in ANC's #25, #24, #38, ...

........................................................................
.............................. CYCLE    2 ..............................
........................................................................

 iter      E             dE          RMSdq      gap      omega  full diag
   1    -63.1315884 -0.631316E+02  0.194E-01    3.23       0.0  T
   2    -63.1316692 -0.807060E-04  0.116E-01    3.19       1.0  T
   3    -63.1316579  0.112310E-04  0.314E-02    3.20       1.0  T
   4    -63.1316757 -0.178278E-04  0.761E-03    3.19       2.0  T
   5    -63.1316774 -0.161208E-05  0.321E-03    3.20       4.8  T
   6    -63.1316775 -0.166536E-06  0.173E-03    3.20       8.9  T
   7    -63.1316776 -0.445460E-07  0.740E-04    3.20      20.9  T
   8    -63.1316776 -0.626013E-08  0.284E-04    3.20      54.4  T
     SCC iter.                  ...        0 min,  0.015 sec
     gradient                   ...        0 min,  0.075 sec
 * total energy  :   -62.2863709 Eh     change       -0.6737715E-02 Eh
   gradient norm :     0.0281811 Eh/α   predicted    -0.5492259E-02 ( -18.48%)
   displ. norm   :     0.2069990 α      lambda       -0.2468695E-02
   maximum displ.:     0.0650659 α      in ANC's #25, #24, #18, ...

........................................................................
.............................. CYCLE    3 ..............................
........................................................................

 iter      E             dE          RMSdq      gap      omega  full diag
   1    -63.1465230 -0.631465E+02  0.101E-01    3.30       0.0  T
   2    -63.1465489 -0.259239E-04  0.604E-02    3.28       1.0  T
   3    -63.1465426  0.629152E-05  0.201E-02    3.28       1.0  T
   4    -63.1465508 -0.817416E-05  0.651E-03    3.27       2.4  T
   5    -63.1465523 -0.146186E-05  0.240E-03    3.27       6.4  T
   6    -63.1465524 -0.151796E-06  0.979E-04    3.27      15.8  T
   7    -63.1465524 -0.558168E-08  0.436E-04    3.27      35.4  T
     SCC iter.                  ...        0 min,  0.013 sec
     gradient                   ...        0 min,  0.075 sec
 * total energy  :   -62.2877927 Eh     change       -0.1421784E-02 Eh
   gradient norm :     0.0086667 Eh/α   predicted    -0.1287682E-02 (  -9.43%)
   displ. norm   :     0.1229357 α      lambda       -0.3494271E-03
   maximum displ.:     0.0599051 α      in ANC's #4, #6, #10, ...

........................................................................
.............................. CYCLE    4 ..............................
........................................................................

 iter      E             dE          RMSdq      gap      omega  full diag
   1    -63.1478469 -0.631478E+02  0.305E-02    3.28       0.0  T
   2    -63.1478491 -0.221141E-05  0.186E-02    3.28       1.0  T
   3    -63.1478480  0.109050E-05  0.700E-03    3.28       2.2  T
   4    -63.1478494 -0.139444E-05  0.233E-03    3.28       6.6  T
   5    -63.1478496 -0.166974E-06  0.833E-04    3.28      18.5  T
   6    -63.1478496 -0.915706E-08  0.391E-04    3.28      39.4  T
     SCC iter.                  ...        0 min,  0.011 sec
     gradient                   ...        0 min,  0.080 sec
 * total energy  :   -62.2880335 Eh     change       -0.2408445E-03 Eh
   gradient norm :     0.0056159 Eh/α   predicted    -0.1773580E-03 ( -26.36%)
   displ. norm   :     0.1618827 α      lambda       -0.2430871E-03
   maximum displ.:     0.0969021 α      in ANC's #4, #6, #5, ...

........................................................................
.............................. CYCLE    5 ..............................
........................................................................

 iter      E             dE          RMSdq      gap      omega  full diag
   1    -63.1474553 -0.631475E+02  0.360E-02    3.29       0.0  T
   2    -63.1474569 -0.159043E-05  0.215E-02    3.28       1.0  T
   3    -63.1474558  0.107413E-05  0.695E-03    3.29       2.2  T
   4    -63.1474573 -0.141541E-05  0.197E-03    3.28       7.8  T
   5    -63.1474574 -0.107929E-06  0.895E-04    3.28      17.2  T
   6    -63.1474574 -0.660148E-08  0.387E-04    3.28      39.9  T
     SCC iter.                  ...        0 min,  0.011 sec
     gradient                   ...        0 min,  0.074 sec
 * total energy  :   -62.2881900 Eh     change       -0.1564422E-03 Eh
   gradient norm :     0.0038206 Eh/α   predicted    -0.1247340E-03 ( -20.27%)
   displ. norm   :     0.1421634 α      lambda       -0.1148099E-03
   maximum displ.:     0.0969093 α      in ANC's #4, #5, #10, ...

........................................................................
.............................. CYCLE    6 ..............................
........................................................................

 iter      E             dE          RMSdq      gap      omega  full diag
   1    -63.1467659 -0.631468E+02  0.284E-02    3.28       0.0  T
   2    -63.1467663 -0.378571E-06  0.168E-02    3.28       1.0  T
   3    -63.1467661  0.151995E-06  0.279E-03    3.28       5.5  T
   4    -63.1467664 -0.267916E-06  0.104E-03    3.28      14.9  T
   5    -63.1467664 -0.156427E-07  0.617E-04    3.28      25.0  T
   6    -63.1467664 -0.408236E-08  0.224E-04    3.28      68.8  T
     SCC iter.                  ...        0 min,  0.011 sec
     gradient                   ...        0 min,  0.074 sec
 * total energy  :   -62.2882766 Eh     change       -0.8665633E-04 Eh
   gradient norm :     0.0030472 Eh/α   predicted    -0.5862188E-04 ( -32.35%)
   displ. norm   :     0.1583094 α      lambda       -0.1085949E-03
   maximum displ.:     0.1085868 α      in ANC's #4, #5, #10, ...

........................................................................
.............................. CYCLE    7 ..............................
........................................................................

 iter      E             dE          RMSdq      gap      omega  full diag
   1    -63.1464708 -0.631465E+02  0.363E-02    3.28       0.0  T
   2    -63.1464714 -0.582543E-06  0.214E-02    3.28       1.0  T
   3    -63.1464712  0.179243E-06  0.318E-03    3.28       4.9  T
   4    -63.1464715 -0.341367E-06  0.122E-03    3.28      12.7  T
   5    -63.1464716 -0.223300E-07  0.654E-04    3.28      23.6  T
   6    -63.1464716 -0.235350E-08  0.280E-04    3.28      55.2  T
     SCC iter.                  ...        0 min,  0.011 sec
     gradient                   ...        0 min,  0.023 sec
 * total energy  :   -62.2883629 Eh     change       -0.8626647E-04 Eh
   gradient norm :     0.0028193 Eh/α   predicted    -0.5566123E-04 ( -35.48%)
   displ. norm   :     0.2018681 α      lambda       -0.1167078E-03
   maximum displ.:     0.1385552 α      in ANC's #4, #5, #10, ...

........................................................................
.............................. CYCLE    8 ..............................
........................................................................

 iter      E             dE          RMSdq      gap      omega  full diag
   1    -63.1465051 -0.631465E+02  0.476E-02    3.28       0.0  T
   2    -63.1465058 -0.677793E-06  0.280E-02    3.28       1.0  T
   3    -63.1465058  0.424544E-07  0.312E-03    3.28       5.0  T
   4    -63.1465060 -0.274546E-06  0.152E-03    3.28      10.2  T
   5    -63.1465061 -0.327674E-07  0.774E-04    3.28      19.9  T
   6    -63.1465061 -0.957748E-09  0.309E-04    3.28      49.9  T
     SCC iter.                  ...        0 min,  0.011 sec
     gradient                   ...        0 min,  0.022 sec
 * total energy  :   -62.2884546 Eh     change       -0.9166476E-04 Eh
   gradient norm :     0.0037263 Eh/α   predicted    -0.6073445E-04 ( -33.74%)
   displ. norm   :     0.2305668 α      lambda       -0.1143180E-03
   maximum displ.:     0.1587401 α      in ANC's #4, #5, #10, ...

........................................................................
.............................. CYCLE    9 ..............................
........................................................................

 iter      E             dE          RMSdq      gap      omega  full diag
   1    -63.1467706 -0.631468E+02  0.537E-02    3.28       0.0  T
   2    -63.1467714 -0.761573E-06  0.316E-02    3.28       1.0  T
   3    -63.1467715 -0.926947E-07  0.287E-03    3.28       5.4  T
   4    -63.1467717 -0.162760E-06  0.166E-03    3.28       9.3  T
   5    -63.1467717 -0.401489E-07  0.898E-04    3.28      17.2  T
   6    -63.1467717 -0.477455E-08  0.310E-04    3.28      49.8  T
     SCC iter.                  ...        0 min,  0.011 sec
     gradient                   ...        0 min,  0.022 sec
 * total energy  :   -62.2885433 Eh     change       -0.8867875E-04 Eh
   gradient norm :     0.0044278 Eh/α   predicted    -0.6020218E-04 ( -32.11%)
   displ. norm   :     0.2455151 α      lambda       -0.1129802E-03
   maximum displ.:     0.1694913 α      in ANC's #4, #5, #7, ...

........................................................................
.............................. CYCLE   10 ..............................
........................................................................

 iter      E             dE          RMSdq      gap      omega  full diag
   1    -63.1473021 -0.631473E+02  0.540E-02    3.29       0.0  T
   2    -63.1473032 -0.112972E-05  0.318E-02    3.29       1.0  T
   3    -63.1473031  0.724151E-07  0.370E-03    3.29       4.2  T
   4    -63.1473035 -0.345352E-06  0.160E-03    3.29       9.7  T
   5    -63.1473035 -0.289174E-07  0.947E-04    3.29      16.3  T
   6    -63.1473035 -0.760465E-08  0.420E-04    3.29      36.7  T
     SCC iter.                  ...        0 min,  0.011 sec
     gradient                   ...        0 min,  0.022 sec
 * total energy  :   -62.2886285 Eh     change       -0.8521352E-04 Eh
   gradient norm :     0.0041448 Eh/α   predicted    -0.5989968E-04 ( -29.71%)
   displ. norm   :     0.2381181 α      lambda       -0.9576804E-04
   maximum displ.:     0.1619028 α      in ANC's #4, #5, #6, ...

........................................................................
.............................. CYCLE   11 ..............................
........................................................................

 iter      E             dE          RMSdq      gap      omega  full diag
   1    -63.1477498 -0.631477E+02  0.505E-02    3.30       0.0  T
   2    -63.1477518 -0.198118E-05  0.298E-02    3.30       1.0  T
   3    -63.1477515  0.306910E-06  0.492E-03    3.30       3.1  T
   4    -63.1477521 -0.586329E-06  0.151E-03    3.30      10.2  T
   5    -63.1477521 -0.354423E-07  0.842E-04    3.30      18.3  T
   6    -63.1477521 -0.490454E-08  0.451E-04    3.30      34.2  T
     SCC iter.                  ...        0 min,  0.011 sec
     gradient                   ...        0 min,  0.022 sec
 * total energy  :   -62.2886989 Eh     change       -0.7041025E-04 Eh
   gradient norm :     0.0034652 Eh/α   predicted    -0.5060057E-04 ( -28.13%)
   displ. norm   :     0.2154781 α      lambda       -0.7072023E-04
   maximum displ.:     0.1424987 α      in ANC's #4, #6, #7, ...

........................................................................
.............................. CYCLE   12 ..............................
........................................................................

 iter      E             dE          RMSdq      gap      omega  full diag
   1    -63.1478488 -0.631478E+02  0.451E-02    3.30       0.0  T
   2    -63.1478506 -0.179162E-05  0.266E-02    3.30       1.0  T
   3    -63.1478503  0.212754E-06  0.434E-03    3.31       3.6  T
   4    -63.1478508 -0.414768E-06  0.136E-03    3.30      11.3  T
   5    -63.1478508 -0.350385E-07  0.723E-04    3.30      21.3  T
   6    -63.1478508 -0.343117E-08  0.386E-04    3.30      39.9  T
     SCC iter.                  ...        0 min,  0.068 sec
     gradient                   ...        0 min,  0.023 sec
 * total energy  :   -62.2887507 Eh     change       -0.5180451E-04 Eh
   gradient norm :     0.0030132 Eh/α   predicted    -0.3700523E-04 ( -28.57%)
   displ. norm   :     0.1779269 α      lambda       -0.5473222E-04
   maximum displ.:     0.1119052 α      in ANC's #4, #7, #6, ...

........................................................................
.............................. CYCLE   13 ..............................
........................................................................

 iter      E             dE          RMSdq      gap      omega  full diag
   1    -63.1480899 -0.631481E+02  0.358E-02    3.32       0.0  T
   2    -63.1480920 -0.211278E-05  0.212E-02    3.31       1.0  T
   3    -63.1480916  0.414495E-06  0.568E-03    3.32       2.7  T
   4    -63.1480922 -0.589662E-06  0.160E-03    3.31       9.7  T
   5    -63.1480922 -0.751028E-07  0.718E-04    3.31      21.5  T
   6    -63.1480923 -0.109439E-07  0.352E-04    3.31      43.9  T
     SCC iter.                  ...        0 min,  0.068 sec
     gradient                   ...        0 min,  0.022 sec
 * total energy  :   -62.2887890 Eh     change       -0.3829598E-04 Eh
   gradient norm :     0.0025296 Eh/α   predicted    -0.2823496E-04 ( -26.27%)
   displ. norm   :     0.2321927 α      lambda       -0.4553443E-04
   maximum displ.:     0.1551539 α      in ANC's #4, #7, #5, ...

........................................................................
.............................. CYCLE   14 ..............................
........................................................................

 iter      E             dE          RMSdq      gap      omega  full diag
   1    -63.1466466 -0.631466E+02  0.495E-02    3.29       0.0  T
   2    -63.1466475 -0.866317E-06  0.291E-02    3.30       1.0  T
   3    -63.1466471  0.368300E-06  0.468E-03    3.30       3.3  T
   4    -63.1466478 -0.676964E-06  0.162E-03    3.30       9.5  T
   5    -63.1466478 -0.195377E-07  0.100E-03    3.30      15.4  T
   6    -63.1466478 -0.149643E-07  0.258E-04    3.30      59.8  T
   7    -63.1466478 -0.486338E-09  0.998E-05    3.30     154.6  T
     SCC iter.                  ...        0 min,  0.013 sec
     gradient                   ...        0 min,  0.022 sec
 * total energy  :   -62.2888057 Eh     change       -0.1669526E-04 Eh
   gradient norm :     0.0043392 Eh/α   predicted    -0.2399528E-04 (  43.73%)
   displ. norm   :     0.0910494 α      lambda       -0.5612674E-04
   maximum displ.:     0.0473004 α      in ANC's #10, #7, #11, ...

........................................................................
.............................. CYCLE   15 ..............................
........................................................................

 iter      E             dE          RMSdq      gap      omega  full diag
   1    -63.1480269 -0.631480E+02  0.202E-02    3.33       0.0  T
   2    -63.1480297 -0.286226E-05  0.123E-02    3.32       1.3  T
   3    -63.1480300 -0.216378E-06  0.634E-03    3.32       2.4  T
   4    -63.1480302 -0.192353E-06  0.181E-03    3.32       8.5  T
   5    -63.1480303 -0.103242E-06  0.629E-04    3.32      24.5  T
   6    -63.1480303 -0.113871E-07  0.248E-04    3.32      62.1  T
     SCC iter.                  ...        0 min,  0.011 sec
     gradient                   ...        0 min,  0.023 sec
 * total energy  :   -62.2888312 Eh     change       -0.2555354E-04 Eh
   gradient norm :     0.0029207 Eh/α   predicted    -0.2829619E-04 (  10.73%)
   displ. norm   :     0.0372114 α      lambda       -0.1744245E-04
   maximum displ.:     0.0239888 α      in ANC's #4, #7, #1, ...

........................................................................
.............................. CYCLE   16 ..............................
........................................................................

 iter      E             dE          RMSdq      gap      omega  full diag
   1    -63.1480730 -0.631481E+02  0.802E-03    3.32       0.0  T
   2    -63.1480731 -0.165283E-06  0.472E-03    3.32       3.3  T
   3    -63.1480731  0.141911E-07  0.153E-03    3.32      10.1  T
   4    -63.1480732 -0.282352E-07  0.375E-04    3.32      41.1  T
   5    -63.1480732 -0.338391E-08  0.162E-04    3.32      95.0  T
     SCC iter.                  ...        0 min,  0.010 sec
     gradient                   ...        0 min,  0.023 sec
 * total energy  :   -62.2888464 Eh     change       -0.1517580E-04 Eh
   gradient norm :     0.0019648 Eh/α   predicted    -0.8736481E-05 ( -42.43%)
   displ. norm   :     0.1937697 α      lambda       -0.4685750E-04
   maximum displ.:     0.0949395 α      in ANC's #4, #7, #10, ...

........................................................................
.............................. CYCLE   17 ..............................
........................................................................

 iter      E             dE          RMSdq      gap      omega  full diag
   1    -63.1480536 -0.631481E+02  0.376E-02    3.32       0.0  T
   2    -63.1480555 -0.193634E-05  0.222E-02    3.32       1.0  T
   3    -63.1480551  0.372342E-06  0.538E-03    3.31       2.9  T
   4    -63.1480557 -0.571151E-06  0.145E-03    3.32      10.6  T
   5    -63.1480558 -0.500360E-07  0.638E-04    3.32      24.2  T
   6    -63.1480558 -0.613427E-08  0.301E-04    3.32      51.3  T
     SCC iter.                  ...        0 min,  0.011 sec
     gradient                   ...        0 min,  0.023 sec
 * total energy  :   -62.2888823 Eh     change       -0.3594218E-04 Eh
   gradient norm :     0.0028488 Eh/α   predicted    -0.2382271E-04 ( -33.72%)
   displ. norm   :     0.0816187 α      lambda       -0.1720946E-04
   maximum displ.:     0.0496488 α      in ANC's #4, #7, #1, ...

........................................................................
.............................. CYCLE   18 ..............................
........................................................................

 iter      E             dE          RMSdq      gap      omega  full diag
   1    -63.1477819 -0.631478E+02  0.124E-02    3.32       0.0  T
   2    -63.1477819 -0.714393E-07  0.737E-03    3.32       2.1  T
   3    -63.1477819  0.261683E-08  0.856E-04    3.32      18.0  T
   4    -63.1477819 -0.140606E-07  0.391E-04    3.32      39.5  T
     SCC iter.                  ...        0 min,  0.009 sec
     gradient                   ...        0 min,  0.023 sec
 * total energy  :   -62.2888977 Eh     change       -0.1540503E-04 Eh
   gradient norm :     0.0025425 Eh/α   predicted    -0.8666306E-05 ( -43.74%)
   displ. norm   :     0.4025297 α      lambda       -0.8619134E-04
   maximum displ.:     0.2398671 α      in ANC's #4, #7, #1, ...

........................................................................
.............................. CYCLE   19 ..............................
........................................................................

 iter      E             dE          RMSdq      gap      omega  full diag
   1    -63.1458211 -0.631458E+02  0.608E-02    3.32       0.0  T
   2    -63.1458225 -0.141222E-05  0.361E-02    3.32       1.0  T
   3    -63.1458222  0.363059E-06  0.488E-03    3.32       3.2  T
   4    -63.1458229 -0.683748E-06  0.188E-03    3.32       8.2  T
   5    -63.1458229 -0.472444E-07  0.916E-04    3.32      16.8  T
   6    -63.1458229 -0.896677E-08  0.307E-04    3.32      50.3  T
     SCC iter.                  ...        0 min,  0.070 sec
     gradient                   ...        0 min,  0.023 sec
 * total energy  :   -62.2889383 Eh     change       -0.4057434E-04 Eh
   gradient norm :     0.0049173 Eh/α   predicted    -0.5007999E-04 (  23.43%)
   displ. norm   :     0.0535698 α      lambda       -0.5779645E-04
   maximum displ.:     0.0250460 α      in ANC's #7, #5, #6, ...

........................................................................
.............................. CYCLE   20 ..............................
........................................................................

 iter      E             dE          RMSdq      gap      omega  full diag
   1    -63.1479683 -0.631480E+02  0.168E-02    3.32       0.0  T
   2    -63.1479689 -0.591891E-06  0.967E-03    3.32       1.6  T
   3    -63.1479687  0.196428E-06  0.328E-03    3.32       4.7  T
   4    -63.1479690 -0.235897E-06  0.127E-03    3.32      12.1  T
   5    -63.1479690 -0.495653E-07  0.401E-04    3.32      38.5  T
   6    -63.1479690 -0.274191E-09  0.220E-04    3.32      70.1  T
     SCC iter.                  ...        0 min,  0.068 sec
     gradient                   ...        0 min,  0.023 sec
 * total energy  :   -62.2889698 Eh     change       -0.3152577E-04 Eh
   gradient norm :     0.0037622 Eh/α   predicted    -0.2898421E-04 (  -8.06%)
   displ. norm   :     0.1700587 α      lambda       -0.4080988E-04
   maximum displ.:     0.1016857 α      in ANC's #4, #7, #1, ...
 * RMSD in coord.:     0.4044585 α      energy gain  -0.9336649E-02 Eh

generating ANC from exact Hessian ...
Using Lindh-Hessian (1995)
 Shifting diagonal of input Hessian by    9.4538755989728440E-003
 Lowest  eigenvalues of input Hessian
    0.000000    0.000000    0.000000    0.000000    0.000000    0.000000
    0.010000    0.010230    0.010845    0.011101    0.011675    0.012642
    0.012872    0.014361    0.014632    0.014901    0.015650    0.017452
 Highest eigenvalues
    1.870970    1.981905    2.019217    2.076687    2.178068    2.380327


........................................................................
.............................. CYCLE   21 ..............................
........................................................................

 iter      E             dE          RMSdq      gap      omega  full diag
   1    -63.1479608 -0.631480E+02  0.257E-02    3.32       0.0  T
   2    -63.1479611 -0.334424E-06  0.152E-02    3.32       1.0  T
   3    -63.1479610  0.841887E-07  0.199E-03    3.32       7.7  T
   4    -63.1479612 -0.104718E-06  0.962E-04    3.32      16.0  T
   5    -63.1479612 -0.303354E-07  0.346E-04    3.32      44.6  T
     SCC iter.                  ...        0 min,  0.009 sec
     gradient                   ...        0 min,  0.079 sec
 * total energy  :   -62.2890061 Eh     change       -0.3621579E-04 Eh
   gradient norm :     0.0035155 Eh/α   predicted     0.0000000E+00 (-100.00%)
   displ. norm   :     0.0309758 α      lambda       -0.2524896E-04
   maximum displ.:     0.0158513 α      in ANC's #11, #4, #9, ...

........................................................................
.............................. CYCLE   22 ..............................
........................................................................

 iter      E             dE          RMSdq      gap      omega  full diag
   1    -63.1482597 -0.631483E+02  0.875E-03    3.31       0.0  T
   2    -63.1482598 -0.112369E-06  0.528E-03    3.32       2.9  T
   3    -63.1482597  0.124857E-06  0.215E-03    3.31       7.2  T
   4    -63.1482598 -0.160348E-06  0.485E-04    3.32      31.8  T
   5    -63.1482598 -0.482370E-08  0.233E-04    3.32      66.3  T
     SCC iter.                  ...        0 min,  0.009 sec
     gradient                   ...        0 min,  0.080 sec
 * total energy  :   -62.2890287 Eh     change       -0.2261285E-04 Eh
   gradient norm :     0.0014644 Eh/α   predicted    -0.1423367E-04 ( -37.05%)
   displ. norm   :     0.1315339 α      lambda       -0.4312814E-04
   maximum displ.:     0.0798428 α      in ANC's #4, #11, #9, ...

........................................................................
.............................. CYCLE   23 ..............................
........................................................................

 iter      E             dE          RMSdq      gap      omega  full diag
   1    -63.1485354 -0.631485E+02  0.309E-02    3.31       0.0  T
   2    -63.1485361 -0.724396E-06  0.185E-02    3.31       1.0  T
   3    -63.1485349  0.123341E-05  0.619E-03    3.31       2.5  T
   4    -63.1485364 -0.153096E-05  0.133E-03    3.31      11.6  T
   5    -63.1485364 -0.252290E-07  0.725E-04    3.31      21.3  T
   6    -63.1485364 -0.455181E-08  0.353E-04    3.31      43.7  T
     SCC iter.                  ...        0 min,  0.011 sec
     gradient                   ...        0 min,  0.079 sec
 * total energy  :   -62.2890630 Eh     change       -0.3436815E-04 Eh
   gradient norm :     0.0036684 Eh/α   predicted    -0.2173081E-04 ( -36.77%)
   displ. norm   :     0.0594167 α      lambda       -0.2120612E-04
   maximum displ.:     0.0432468 α      in ANC's #4, #11, #5, ...

........................................................................
.............................. CYCLE   24 ..............................
........................................................................

 iter      E             dE          RMSdq      gap      omega  full diag
   1    -63.1484002 -0.631484E+02  0.113E-02    3.31       0.0  T
   2    -63.1484003 -0.534415E-07  0.664E-03    3.31       2.3  T
   3    -63.1484003  0.138526E-07  0.947E-04    3.31      16.3  T
   4    -63.1484003 -0.276311E-07  0.359E-04    3.31      43.0  T
     SCC iter.                  ...        0 min,  0.007 sec
     gradient                   ...        0 min,  0.022 sec
 * total energy  :   -62.2890832 Eh     change       -0.2015194E-04 Eh
   gradient norm :     0.0032330 Eh/α   predicted    -0.1064067E-04 ( -47.20%)
   displ. norm   :     0.1385921 α      lambda       -0.5640057E-04
   maximum displ.:     0.0969045 α      in ANC's #4, #11, #5, ...

........................................................................
.............................. CYCLE   25 ..............................
........................................................................

 iter      E             dE          RMSdq      gap      omega  full diag
   1    -63.1479340 -0.631479E+02  0.268E-02    3.32       0.0  T
   2    -63.1479343 -0.273130E-06  0.159E-02    3.31       1.0  T
   3    -63.1479342  0.974496E-07  0.232E-03    3.31       6.6  T
   4    -63.1479344 -0.170116E-06  0.739E-04    3.31      20.9  T
   5    -63.1479344 -0.611227E-08  0.408E-04    3.31      37.8  T
     SCC iter.                  ...        0 min,  0.009 sec
     gradient                   ...        0 min,  0.023 sec
 * total energy  :   -62.2891306 Eh     change       -0.4741524E-04 Eh
   gradient norm :     0.0014199 Eh/α   predicted    -0.2874241E-04 ( -39.38%)
   displ. norm   :     0.2966295 α      lambda       -0.5733892E-04
   maximum displ.:     0.2083277 α      in ANC's #4, #11, #5, ...

........................................................................
.............................. CYCLE   26 ..............................
........................................................................

 iter      E             dE          RMSdq      gap      omega  full diag
   1    -63.1465477 -0.631465E+02  0.552E-02    3.32       0.0  T
   2    -63.1465486 -0.899970E-06  0.326E-02    3.31       1.0  T
   3    -63.1465485  0.381953E-07  0.332E-03    3.31       4.6  T
   4    -63.1465488 -0.281167E-06  0.153E-03    3.31      10.1  T
   5    -63.1465488 -0.326335E-07  0.788E-04    3.31      19.6  T
   6    -63.1465488 -0.373387E-08  0.312E-04    3.31      49.4  T
     SCC iter.                  ...        0 min,  0.011 sec
     gradient                   ...        0 min,  0.023 sec
 * total energy  :   -62.2891864 Eh     change       -0.5582576E-04 Eh
   gradient norm :     0.0035260 Eh/α   predicted    -0.2980457E-04 ( -46.61%)
   displ. norm   :     0.0801220 α      lambda       -0.2684548E-04
   maximum displ.:     0.0611478 α      in ANC's #4, #5, #3, ...

........................................................................
.............................. CYCLE   27 ..............................
........................................................................

 iter      E             dE          RMSdq      gap      omega  full diag
   1    -63.1471085 -0.631471E+02  0.147E-02    3.31       0.0  T
   2    -63.1471086 -0.838674E-07  0.866E-03    3.31       1.8  T
   3    -63.1471086 -0.126406E-07  0.735E-04    3.31      21.0  T
   4    -63.1471086 -0.785253E-08  0.357E-04    3.31      43.2  T
     SCC iter.                  ...        0 min,  0.007 sec
     gradient                   ...        0 min,  0.023 sec
 * total energy  :   -62.2892106 Eh     change       -0.2416919E-04 Eh
   gradient norm :     0.0030141 Eh/α   predicted    -0.1351312E-04 ( -44.09%)
   displ. norm   :     0.1305396 α      lambda       -0.4879826E-04
   maximum displ.:     0.0999575 α      in ANC's #4, #3, #5, ...

........................................................................
.............................. CYCLE   28 ..............................
........................................................................

 iter      E             dE          RMSdq      gap      omega  full diag
   1    -63.1482462 -0.631482E+02  0.244E-02    3.31       0.0  T
   2    -63.1482465 -0.242865E-06  0.144E-02    3.31       1.1  T
   3    -63.1482465 -0.145138E-07  0.155E-03    3.31       9.9  T
   4    -63.1482465 -0.485797E-07  0.776E-04    3.31      19.9  T
   5    -63.1482465 -0.818297E-08  0.422E-04    3.31      36.6  T
     SCC iter.                  ...        0 min,  0.066 sec
     gradient                   ...        0 min,  0.023 sec
 * total energy  :   -62.2892510 Eh     change       -0.4035179E-04 Eh
   gradient norm :     0.0013753 Eh/α   predicted    -0.2481870E-04 ( -38.49%)
   displ. norm   :     0.2766133 α      lambda       -0.4758424E-04
   maximum displ.:     0.2088165 α      in ANC's #4, #3, #5, ...

........................................................................
.............................. CYCLE   29 ..............................
........................................................................

 iter      E             dE          RMSdq      gap      omega  full diag
   1    -63.1484301 -0.631484E+02  0.519E-02    3.30       0.0  T
   2    -63.1484309 -0.742885E-06  0.307E-02    3.30       1.0  T
   3    -63.1484309 -0.156783E-07  0.331E-03    3.30       4.7  T
   4    -63.1484312 -0.272541E-06  0.143E-03    3.31      10.8  T
   5    -63.1484312 -0.934503E-08  0.789E-04    3.31      19.6  T
   6    -63.1484312 -0.676550E-08  0.311E-04    3.31      49.6  T
     SCC iter.                  ...        0 min,  0.068 sec
     gradient                   ...        0 min,  0.022 sec
 * total energy  :   -62.2893032 Eh     change       -0.5224650E-04 Eh
   gradient norm :     0.0024431 Eh/α   predicted    -0.2460202E-04 ( -52.91%)
   displ. norm   :     0.1264148 α      lambda       -0.2878825E-04
   maximum displ.:     0.0980896 α      in ANC's #4, #7, #3, ...

........................................................................
.............................. CYCLE   30 ..............................
........................................................................

 iter      E             dE          RMSdq      gap      omega  full diag
   1    -63.1486601 -0.631487E+02  0.199E-02    3.31       0.0  T
   2    -63.1486603 -0.225909E-06  0.118E-02    3.31       1.3  T
   3    -63.1486603  0.132677E-07  0.160E-03    3.31       9.6  T
   4    -63.1486604 -0.586361E-07  0.556E-04    3.31      27.8  T
   5    -63.1486604 -0.216761E-08  0.329E-04    3.31      46.9  T
     SCC iter.                  ...        0 min,  0.066 sec
     gradient                   ...        0 min,  0.023 sec
 * total energy  :   -62.2893279 Eh     change       -0.2469163E-04 Eh
   gradient norm :     0.0016253 Eh/α   predicted    -0.1464357E-04 ( -40.69%)
   displ. norm   :     0.2678303 α      lambda       -0.3750781E-04
   maximum displ.:     0.2059474 α      in ANC's #4, #7, #3, ...

........................................................................
.............................. CYCLE   31 ..............................
........................................................................

 iter      E             dE          RMSdq      gap      omega  full diag
   1    -63.1479121 -0.631479E+02  0.438E-02    3.32       0.0  T
   2    -63.1479127 -0.577240E-06  0.260E-02    3.32       1.0  T
   3    -63.1479126  0.132475E-06  0.338E-03    3.32       4.6  T
   4    -63.1479129 -0.333306E-06  0.118E-03    3.32      13.0  T
   5    -63.1479129 -0.193955E-08  0.736E-04    3.32      21.0  T
   6    -63.1479129 -0.114223E-07  0.208E-04    3.32      74.1  T
     SCC iter.                  ...        0 min,  0.068 sec
     gradient                   ...        0 min,  0.022 sec
 * total energy  :   -62.2893659 Eh     change       -0.3803541E-04 Eh
   gradient norm :     0.0014541 Eh/α   predicted    -0.1935279E-04 ( -49.12%)
   displ. norm   :     0.1643516 α      lambda       -0.2045479E-04
   maximum displ.:     0.1273637 α      in ANC's #4, #3, #7, ...

........................................................................
.............................. CYCLE   32 ..............................
........................................................................

 iter      E             dE          RMSdq      gap      omega  full diag
   1    -63.1484939 -0.631485E+02  0.258E-02    3.33       0.0  T
   2    -63.1484943 -0.449752E-06  0.153E-02    3.32       1.0  T
   3    -63.1484942  0.146235E-06  0.303E-03    3.33       5.1  T
   4    -63.1484944 -0.249714E-06  0.837E-04    3.32      18.4  T
   5    -63.1484944 -0.586300E-08  0.507E-04    3.32      30.4  T
     SCC iter.                  ...        0 min,  0.009 sec
     gradient                   ...        0 min,  0.079 sec
 * total energy  :   -62.2893850 Eh     change       -0.1905916E-04 Eh
   gradient norm :     0.0017439 Eh/α   predicted    -0.1035372E-04 ( -45.68%)
   displ. norm   :     0.1432868 α      lambda       -0.1410244E-04
   maximum displ.:     0.1031524 α      in ANC's #4, #3, #6, ...

........................................................................
.............................. CYCLE   33 ..............................
........................................................................

 iter      E             dE          RMSdq      gap      omega  full diag
   1    -63.1481627 -0.631482E+02  0.250E-02    3.32       0.0  T
   2    -63.1481629 -0.187737E-06  0.148E-02    3.32       1.0  T
   3    -63.1481629  0.352162E-07  0.173E-03    3.33       8.9  T
   4    -63.1481629 -0.851258E-07  0.722E-04    3.32      21.4  T
   5    -63.1481629 -0.759682E-08  0.398E-04    3.32      38.7  T
     SCC iter.                  ...        0 min,  0.009 sec
     gradient                   ...        0 min,  0.079 sec
 * total energy  :   -62.2893982 Eh     change       -0.1322006E-04 Eh
   gradient norm :     0.0015756 Eh/α   predicted    -0.7119567E-05 ( -46.15%)
   displ. norm   :     0.1115585 α      lambda       -0.1917987E-04
   maximum displ.:     0.0753679 α      in ANC's #6, #5, #12, ...

........................................................................
.............................. CYCLE   34 ..............................
........................................................................

 iter      E             dE          RMSdq      gap      omega  full diag
   1    -63.1493173 -0.631493E+02  0.238E-02    3.33       0.0  T
   2    -63.1493176 -0.319264E-06  0.140E-02    3.33       1.1  T
   3    -63.1493174  0.135735E-06  0.242E-03    3.33       6.4  T
   4    -63.1493176 -0.176782E-06  0.893E-04    3.33      17.3  T
   5    -63.1493176 -0.232287E-07  0.415E-04    3.33      37.2  T
     SCC iter.                  ...        0 min,  0.009 sec
     gradient                   ...        0 min,  0.080 sec
 * total energy  :   -62.2894120 Eh     change       -0.1383093E-04 Eh
   gradient norm :     0.0016846 Eh/α   predicted    -0.9650193E-05 ( -30.23%)
   displ. norm   :     0.0561850 α      lambda       -0.7870573E-05
   maximum displ.:     0.0312602 α      in ANC's #4, #6, #3, ...

........................................................................
.............................. CYCLE   35 ..............................
........................................................................

 iter      E             dE          RMSdq      gap      omega  full diag
   1    -63.1487198 -0.631487E+02  0.115E-02    3.32       0.0  T
   2    -63.1487199 -0.636674E-07  0.685E-03    3.32       2.3  T
   3    -63.1487198  0.611713E-07  0.144E-03    3.32      10.7  T
   4    -63.1487199 -0.769153E-07  0.456E-04    3.32      33.9  T
   5    -63.1487199 -0.494935E-08  0.217E-04    3.32      71.1  T
     SCC iter.                  ...        0 min,  0.009 sec
     gradient                   ...        0 min,  0.080 sec
 * total energy  :   -62.2894195 Eh     change       -0.7477301E-05 Eh
   gradient norm :     0.0007450 Eh/α   predicted    -0.3941145E-05 ( -47.29%)
   displ. norm   :     0.0501235 α      lambda       -0.5945760E-05
   maximum displ.:     0.0269348 α      in ANC's #6, #5, #10, ...

........................................................................
.............................. CYCLE   36 ..............................
........................................................................

 iter      E             dE          RMSdq      gap      omega  full diag
   1    -63.1485133 -0.631485E+02  0.150E-02    3.32       0.0  T
   2    -63.1485133 -0.795542E-07  0.878E-03    3.32       1.8  T
   3    -63.1485133  0.112149E-07  0.107E-03    3.32      14.4  T
   4    -63.1485134 -0.322793E-07  0.533E-04    3.32      29.0  T
   5    -63.1485134 -0.586541E-08  0.266E-04    3.32      58.0  T
     SCC iter.                  ...        0 min,  0.010 sec
     gradient                   ...        0 min,  0.074 sec
 * total energy  :   -62.2894251 Eh     change       -0.5585558E-05 Eh
   gradient norm :     0.0006421 Eh/α   predicted    -0.2978330E-05 ( -46.68%)
   displ. norm   :     0.0384754 α      lambda       -0.2817008E-05
   maximum displ.:     0.0231803 α      in ANC's #5, #6, #9, ...

........................................................................
.............................. CYCLE   37 ..............................
........................................................................

 iter      E             dE          RMSdq      gap      omega  full diag
   1    -63.1483197 -0.631483E+02  0.102E-02    3.32       0.0  T
   2    -63.1483198 -0.644705E-07  0.596E-03    3.32       2.6  T
   3    -63.1483198 -0.209351E-08  0.690E-04    3.32      22.4  T
   4    -63.1483198 -0.887278E-08  0.332E-04    3.32      46.5  T
     SCC iter.                  ...        0 min,  0.008 sec
     gradient                   ...        0 min,  0.080 sec
 * total energy  :   -62.2894277 Eh     change       -0.2556045E-05 Eh
   gradient norm :     0.0005198 Eh/α   predicted    -0.1411933E-05 ( -44.76%)
   displ. norm   :     0.0237082 α      lambda       -0.1376109E-05
   maximum displ.:     0.0143587 α      in ANC's #5, #9, #3, ...

   *** GEOMETRY OPTIMIZATION CONVERGED AFTER 37 ITERATIONS ***

------------------------------------------------------------------------
 total energy gain   :        -0.0097945 Eh       -6.1461 kcal/mol
 total RMSD          :         0.6045196 a0        0.3199 Å
 total power (kW/mol):        -0.6950097 (step)   -7.1601 (real)
------------------------------------------------------------------------

 ANCopt (total)                0 d,  0 h,  0 min,  3.591 sec
 optimizer setup                ...        0 min,  0.000 sec (  0.002%)
 model hessian                  ...        0 min,  0.098 sec (  2.719%)
 ANC generation                 ...        0 min,  0.003 sec (  0.084%)
 coordinate transformation      ...        0 min,  0.000 sec (  0.007%)
 single point calculation       ...        0 min,  3.481 sec ( 96.927%)
 optimization log               ...        0 min,  0.005 sec (  0.142%)
 hessian update                 ...        0 min,  0.000 sec (  0.013%)
 rational function              ...        0 min,  0.003 sec (  0.074%)

================
 final structure:
================
42
 xtb: 6.7.1 (edcfbbe)
C            3.41387293061399       -2.45680701133792       -0.14687048698861
C            2.93480029212179       -1.89196617973524       -1.48599017787519
C            2.69295592666497       -0.41149864151718       -1.39065072319189
C            3.62850340262385        0.51400988240326       -1.81206879355235
C            3.41808350730923        1.89022399488877       -1.69444304848589
C            2.26056398771258        2.39406549515699       -1.14824338628882
C            1.29155238513650        1.49220037778297       -0.70922318979251
C            1.52187008682529        0.10019512472811       -0.83219053604377
N            0.42854474915529       -0.55215100536644       -0.33095159778993
C           -0.48659855538130        0.37796147469274        0.09490138269766
C            0.00594722329622        1.63544715221114       -0.11129246479051
C           -0.74862106323984        2.85402784092840        0.30070127688522
C           -2.20741993178671        2.43844693652361        0.51530146336594
O           -2.32985373816391        1.27730896907898        1.30992625138721
C           -1.80180261225807        0.07349933729922        0.74452643707991
C           -2.84084296589914       -0.52865361362830       -0.22926931104390
C           -2.35655148328528       -1.70232276083005       -1.07092666889996
C           -1.57029140140192       -0.86428189880760        1.95878781285110
C           -2.78150753736757       -0.82931487969188        2.85688813203883
O           -2.54081111193667       -0.16393274982735        3.98652621409160
O           -3.84494783057626       -1.33622035380810        2.61596272116152
H            2.68285655857401       -2.26854471678783        0.63666016159761
H            3.57685070783262       -3.52994007342117       -0.22082947081154
H            4.34872895391524       -1.98352900190570        0.14392370356512
H            3.69203534698772       -2.08743131688512       -2.24741703010996
H            2.01622865171408       -2.40148482891545       -1.79045623784256
H            4.55181137699244        0.16187460738356       -2.24964814073416
H            4.18552451999603        2.56571213923513       -2.04328366847917
H            2.10004001649536        3.45780435873973       -1.05876723374006
H            0.31854887094881       -1.54861868664835       -0.27423557422652
H           -0.33240555158799        3.24977966226670        1.23201100166437
H           -0.69093207590378        3.63653251180874       -0.45796466753463
H           -2.68811570316685        2.28946569116455       -0.46164593716375
H           -2.76074322873147        3.20584935802946        1.06075922144504
H           -3.70229388680724       -0.83362500696473        0.36666986620081
H           -3.16712299371915        0.26706418670674       -0.90189750190853
H           -2.00821054889079       -2.52349252404294       -0.44792271783730
H           -3.18370433576718       -2.07419875201412       -1.67112282404215
H           -1.56007172608093       -1.40053598791560       -1.74766044616491
H           -0.70945428547952       -0.51166022757868        2.52559593025242
H           -1.40937889844920       -1.88313258101740        1.61024908884333
H           -3.34783802903506       -0.09782630237906        4.52148117021234

 Bond Distances (Angstroems)
 ---------------------------
C1-C2=1.5303         C1-H22=1.0880        C1-H23=1.0880        C1-H24=1.0874        C2-C1=1.5303         C2-C3=1.5031         
C2-H25=1.0915        C2-H26=1.0937        C3-C2=1.5031         C3-C4=1.3818         C3-C8=1.3947         C4-C3=1.3818         
C4-C5=1.3972         C4-H27=1.0807        C5-C4=1.3972         C5-C6=1.3755         C5-H28=1.0802        C6-C5=1.3755         
C6-C7=1.3947         C6-H29=1.0795        C7-C6=1.3947         C7-C8=1.4163         C7-C11=1.4251        C8-C3=1.3947         
C8-C7=1.4163         C8-N9=1.3683         N9-C8=1.3683         N9-C10=1.3726        N9-H30=1.0041        C10-N9=1.3726        
C10-C11=1.3662       C10-C15=1.4982       C11-C7=1.4251        C11-C10=1.3662       C11-C12=1.4913       C12-C11=1.4913       
C12-C13=1.5319       C12-H31=1.0942       C12-H32=1.0914       C13-C12=1.5319       C13-O14=1.4123       C13-H33=1.0989       
C13-H34=1.0921       O14-C13=1.4123       O14-C15=1.4310       C15-C10=1.4982       C15-O14=1.4310       C15-C16=1.5461       
C15-C18=1.5516       C16-C15=1.5461       C16-C17=1.5233       C16-H35=1.0910       C16-H36=1.0918       C17-C16=1.5233       
C17-H37=1.0880       C17-H38=1.0875       C17-H39=1.0879       C18-C15=1.5516       C18-C19=1.5083       C18-H40=1.0893       
C18-H41=1.0888       C19-C18=1.5083       C19-O20=1.3329       C19-O21=1.2025       O20-C19=1.3329       O20-H42=0.9705       
O21-C19=1.2025       H22-C1=1.0880        H23-C1=1.0880        H24-C1=1.0874        H25-C2=1.0915        H26-C2=1.0937        
H27-C4=1.0807        H28-C5=1.0802        H29-C6=1.0795        H30-N9=1.0041        H31-C12=1.0942       H32-C12=1.0914       
H33-C13=1.0989       H34-C13=1.0921       H35-C16=1.0910       H36-C16=1.0918       H37-C17=1.0880       H38-C17=1.0875       
H39-C17=1.0879       H40-C18=1.0893       H41-C18=1.0888       H42-O20=0.9705       
 C  H  Rav=1.0889 sigma=0.0047  Rmin=1.0795  Rmax=1.0989    19
 C  C  Rav=1.4609 sigma=0.0661  Rmin=1.3662  Rmax=1.5516    17
 N  H  Rav=1.0041 sigma=0.0000  Rmin=1.0041  Rmax=1.0041     1
 N  C  Rav=1.3704 sigma=0.0022  Rmin=1.3683  Rmax=1.3726     2
 O  H  Rav=0.9705 sigma=0.0000  Rmin=0.9705  Rmax=0.9705     1
 O  C  Rav=1.3447 sigma=0.0900  Rmin=1.2025  Rmax=1.4310     4

 selected bond angles (degree)
 --------------------
H22-C1-C2=110.85               H23-C1-C2=110.58               H23-C1-H22=108.68              H24-C1-C2=110.03               
H24-C1-H22=108.04              H24-C1-H23=108.58              C3-C2-C1=111.00                H25-C2-C1=109.10               
H25-C2-C3=109.41               H26-C2-C1=109.55               H26-C2-C3=109.96               H26-C2-H25=107.76              
C4-C3-C2=122.10                C8-C3-C2=121.46                C8-C3-C4=116.42                C5-C4-C3=122.15                
H27-C4-C3=118.93               H27-C4-C5=118.93               C6-C5-C4=121.40                H28-C5-C4=118.80               
H28-C5-C6=119.80               C7-C6-C5=118.22                H29-C6-C5=121.26               H29-C6-C7=120.52               
C8-C7-C6=119.69                C11-C7-C6=133.94               C11-C7-C8=106.38               C7-C8-C3=122.13                
N9-C8-C3=129.99                N9-C8-C7=107.87                C10-N9-C8=108.87               H30-N9-C8=125.55               
H30-N9-C10=125.59              C11-C10-N9=109.67              C15-C10-N9=125.60              C15-C10-C11=124.68             

 selected dihedral angles (degree)
 ---------------------------------
C3-C2-C1-H22= 58.81           C3-C2-C1-H23=179.42           C3-C2-C1-H24=299.36           H25-C2-C1-H22=179.44          
H25-C2-C1-H23=300.05          H25-C2-C1-H24= 59.99          H26-C2-C1-H22=297.19          H26-C2-C1-H23= 57.79          
H26-C2-C1-H24=177.74          C4-C3-C2-C1= 98.12            C4-C3-C2-H25=337.67           C4-C3-C2-H26=219.50           
C8-C3-C2-C1=280.06            C8-C3-C2-H25=159.61           C8-C3-C2-H26= 41.45           C5-C4-C3-C2=181.57            
C5-C4-C3-C8=359.71            H27-C4-C3-C2=  1.76           H27-C4-C3-C8=179.90           C6-C5-C4-C3=  0.05            
C6-C5-C4-H27=179.86           H28-C5-C4-C3=180.11           H28-C5-C4-H27=359.92          C7-C6-C5-C4=  0.03            
C7-C6-C5-H28=179.97           H29-C6-C5-C4=180.03           H29-C6-C5-H28=359.96          C8-C7-C6-C5=  0.15            
C8-C7-C6-H29=180.15           C11-C7-C6-C5=180.15           C11-C7-C6-H29=  0.15          C7-C8-C3-C2=178.63            
C7-C8-C3-C4=  0.47            N9-C8-C3-C2=358.20            N9-C8-C3-C4=180.04            C3-C8-C7-C6=359.59            
C3-C8-C7-C11=179.59           N9-C8-C7-C6=179.93            N9-C8-C7-C11=359.93           C10-N9-C8-C3=180.80           
C10-N9-C8-C7=  0.42           H30-N9-C8-C3=  1.45           H30-N9-C8-C7=181.07           C11-C10-N9-C8=359.37          
C11-C10-N9-H30=178.72         C15-C10-N9-C8=181.91          C15-C10-N9-H30=  1.25         
           -------------------------------------------------
          |                Final Singlepoint                |
           -------------------------------------------------

          ...................................................
          :                      SETUP                      :
          :.................................................:
          :  # basis functions                 105          :
          :  # atomic orbitals                 105          :
          :  # shells                           63          :
          :  # electrons                       112          :
          :  max. iterations                   250          :
          :  Hamiltonian                  GFN2-xTB          :
          :  restarted?                      false          :
          :  GBSA solvation                  false          :
          :  PC potential                    false          :
          :  electronic temp.          300.0000000     K    :
          :  accuracy                    1.0000000          :
          :  -> integral cutoff          0.2500000E+02      :
          :  -> integral neglect         0.1000000E-07      :
          :  -> SCF convergence          0.1000000E-05 Eh   :
          :  -> wf. convergence          0.1000000E-03 e    :
          :  Broyden damping             0.4000000          :
          :  net charge                          0          :
          :  unpaired electrons                  0          :
          ...................................................

 iter      E             dE          RMSdq      gap      omega  full diag
   1    -63.1483198 -0.631483E+02  0.188E-04    3.32       0.0  T
   2    -63.1483198 -0.105182E-09  0.129E-04    3.32     119.6  T
   3    -63.1483198 -0.144659E-09  0.872E-05    3.32     177.0  T

   *** convergence criteria satisfied after 3 iterations ***

         #    Occupation            Energy/Eh            Energy/eV
      -------------------------------------------------------------
         1        2.0000           -0.7424320             -20.2026
       ...           ...                  ...                  ...
        50        2.0000           -0.4228663             -11.5068
        51        2.0000           -0.4148208             -11.2878
        52        2.0000           -0.4120067             -11.2113
        53        2.0000           -0.4050073             -11.0208
        54        2.0000           -0.3940031             -10.7214
        55        2.0000           -0.3762610             -10.2386
        56        2.0000           -0.3574664              -9.7272 (HOMO)
        57                         -0.2353504              -6.4042 (LUMO)
        58                         -0.2240943              -6.0979
        59                         -0.1947341              -5.2990
        60                         -0.1555874              -4.2337
        61                         -0.0698505              -1.9007
       ...                                ...                  ...
       105                          0.7209891              19.6191
      -------------------------------------------------------------
                  HL-Gap            0.1221160 Eh            3.3229 eV
             Fermi-level           -0.2964084 Eh           -8.0657 eV

 SCC (total)                   0 d,  0 h,  0 min,  0.036 sec
 SCC setup                      ...        0 min,  0.000 sec (  0.803%)
 Dispersion                     ...        0 min,  0.000 sec (  0.808%)
 classical contributions        ...        0 min,  0.000 sec (  0.389%)
 integral evaluation            ...        0 min,  0.007 sec ( 20.067%)
 iterations                     ...        0 min,  0.006 sec ( 15.596%)
 molecular gradient             ...        0 min,  0.022 sec ( 61.924%)
 printout                       ...        0 min,  0.000 sec (  0.393%)

         :::::::::::::::::::::::::::::::::::::::::::::::::::::
         ::                     SUMMARY                     ::
         :::::::::::::::::::::::::::::::::::::::::::::::::::::
         :: total energy             -62.289427662613 Eh    ::
         :: gradient norm              0.000521684366 Eh/a0 ::
         :: HOMO-LUMO gap              3.322945933396 eV    ::
         ::.................................................::
         :: SCC energy               -63.147673991323 Eh    ::
         :: -> isotropic ES            0.075391982682 Eh    ::
         :: -> anisotropic ES          0.008485175427 Eh    ::
         :: -> anisotropic XC          0.017271832292 Eh    ::
         :: -> dispersion             -0.045069101277 Eh    ::
         :: repulsion energy           0.858246328710 Eh    ::
         :: add. restraining           0.000000000000 Eh    ::
         :: total charge              -0.000000000000 e     ::
         :::::::::::::::::::::::::::::::::::::::::::::::::::::

           -------------------------------------------------
          |                Property Printout                |
           -------------------------------------------------

    * Orbital Energies and Occupations

         #    Occupation            Energy/Eh            Energy/eV
      -------------------------------------------------------------
         1        2.0000           -0.7424320             -20.2026
       ...           ...                  ...                  ...
        44        2.0000           -0.4550810             -12.3834
        45        2.0000           -0.4506312             -12.2623
        46        2.0000           -0.4463937             -12.1470
        47        2.0000           -0.4424316             -12.0392
        48        2.0000           -0.4392315             -11.9521
        49        2.0000           -0.4334993             -11.7961
        50        2.0000           -0.4228663             -11.5068
        51        2.0000           -0.4148208             -11.2878
        52        2.0000           -0.4120067             -11.2113
        53        2.0000           -0.4050073             -11.0208
        54        2.0000           -0.3940031             -10.7214
        55        2.0000           -0.3762610             -10.2386
        56        2.0000           -0.3574664              -9.7272 (HOMO)
        57                         -0.2353504              -6.4042 (LUMO)
        58                         -0.2240943              -6.0979
        59                         -0.1947341              -5.2990
        60                         -0.1555874              -4.2337
        61                         -0.0698505              -1.9007
        62                         -0.0089011              -0.2422
        63                          0.0117016               0.3184
        64                          0.0479779               1.3055
        65                          0.0671642               1.8276
        66                          0.0727573               1.9798
        67                          0.0856617               2.3310
       ...                                ...                  ...
       105                          0.7209891              19.6191
      -------------------------------------------------------------
                  HL-Gap            0.1221160 Eh            3.3229 eV
             Fermi-level           -0.2964084 Eh           -8.0657 eV

     #   Z          covCN         q      C6AA      α(0)
     1   6 C        3.753    -0.099    22.441     6.755
     2   6 C        3.805    -0.056    21.571     6.612
     3   6 C        2.960    -0.011    28.289     8.724
     4   6 C        2.929    -0.047    29.167     8.857
     5   6 C        2.919    -0.043    29.063     8.841
     6   6 C        2.911    -0.041    29.013     8.832
     7   6 C        3.107    -0.022    28.412     8.733
     8   6 C        3.092     0.037    27.069     8.528
     9   7 N        2.776    -0.119    23.592     7.214
    10   6 C        3.081     0.017    27.539     8.603
    11   6 C        3.073    -0.033    28.753     8.792
    12   6 C        3.805    -0.064    21.726     6.636
    13   6 C        3.697     0.084    19.345     6.291
    14   8 O        1.700    -0.329    19.506     5.963
    15   6 C        3.792     0.145    18.251     6.084
    16   6 C        3.801    -0.073    21.888     6.661
    17   6 C        3.750    -0.104    22.542     6.771
    18   6 C        3.807    -0.093    22.273     6.718
    19   6 C        2.690     0.373    20.685     7.443
    20   8 O        1.660    -0.364    20.155     6.061
    21   8 O        0.856    -0.412    21.915     6.276
    22   1 H        0.925     0.031     2.573     2.509
    23   1 H        0.925     0.034     2.528     2.486
    24   1 H        0.925     0.039     2.466     2.456
    25   1 H        0.924     0.037     2.485     2.465
    26   1 H        0.924     0.026     2.639     2.540
    27   1 H        0.926     0.026     2.639     2.540
    28   1 H        0.926     0.025     2.653     2.547
    29   1 H        0.926     0.027     2.636     2.539
    30   1 H        0.860     0.163     1.313     1.795
    31   1 H        0.924     0.048     2.348     2.396
    32   1 H        0.924     0.040     2.449     2.447
    33   1 H        0.923     0.020     2.739     2.588
    34   1 H        0.924     0.048     2.349     2.397
    35   1 H        0.924     0.067     2.123     2.279
    36   1 H        0.924     0.040     2.448     2.447
    37   1 H        0.925     0.031     2.577     2.511
    38   1 H        0.925     0.045     2.387     2.416
    39   1 H        0.925     0.037     2.489     2.467
    40   1 H        0.925     0.073     2.052     2.240
    41   1 H        0.925     0.065     2.136     2.286
    42   1 H        0.804     0.330     0.636     1.253

 Mol. C6AA /au·bohr⁶  :      17931.615962
 Mol. C8AA /au·bohr⁸  :     415703.260602
 Mol. α(0) /au        :        204.999752


Wiberg/Mayer (AO) data.
largest (>0.10) Wiberg bond orders for each atom

 ---------------------------------------------------------------------------
     #   Z sym  total        # sym  WBO       # sym  WBO       # sym  WBO
 ---------------------------------------------------------------------------
     1   6 C    3.996 --     2 C    1.003    24 H    0.988    22 H    0.988
                            23 H    0.987
     2   6 C    3.997 --     3 C    1.009     1 C    1.003    25 H    0.976
                            26 H    0.972
     3   6 C    3.985 --     4 C    1.466     8 C    1.315     2 C    1.009
                             6 C    0.110
     4   6 C    3.987 --     3 C    1.466     5 C    1.373    27 H    0.970
     5   6 C    3.991 --     6 C    1.505     4 C    1.373    28 H    0.972
     6   6 C    3.988 --     5 C    1.505     7 C    1.326    29 H    0.970
                             3 C    0.110
     7   6 C    3.983 --     6 C    1.326     8 C    1.251    11 C    1.206
     8   6 C    3.954 --     3 C    1.315     7 C    1.251     9 N    1.169
     9   7 N    3.527 --    10 C    1.171     8 C    1.169    30 H    0.940
    10   6 C    3.949 --    11 C    1.550     9 N    1.171    15 C    0.988
    11   6 C    3.973 --    10 C    1.550     7 C    1.206    12 C    1.015
    12   6 C    3.997 --    11 C    1.015    13 C    0.993    32 H    0.969
                            31 H    0.962
    13   6 C    3.953 --    12 C    0.993    14 O    0.983    34 H    0.970
                            33 H    0.966
    14   8 O    2.074 --    13 C    0.983    15 C    0.959
    15   6 C    3.950 --    10 C    0.988    16 C    0.963    14 O    0.959
                            18 C    0.942
    16   6 C    3.989 --    17 C    1.020    36 H    0.969    35 H    0.968
                            15 C    0.963
    17   6 C    3.996 --    16 C    1.020    39 H    0.985    38 H    0.985
                            37 H    0.983
    18   6 C    3.992 --    19 C    0.975    40 H    0.973    41 H    0.958
                            15 C    0.942
    19   6 C    3.914 --    21 O    1.756    20 O    1.146    18 C    0.975
    20   8 O    2.215 --    19 C    1.146    42 H    0.865    21 O    0.175
    21   8 O    2.034 --    19 C    1.756    20 O    0.175
    22   1 H    0.999 --     1 C    0.988
    23   1 H    0.998 --     1 C    0.987
    24   1 H    0.998 --     1 C    0.988
    25   1 H    0.998 --     2 C    0.976
    26   1 H    0.999 --     2 C    0.972
    27   1 H    0.999 --     4 C    0.970
    28   1 H    0.999 --     5 C    0.972
    29   1 H    0.998 --     6 C    0.970
    30   1 H    0.973 --     9 N    0.940
    31   1 H    0.997 --    12 C    0.962
    32   1 H    0.998 --    12 C    0.969
    33   1 H    1.000 --    13 C    0.966
    34   1 H    0.997 --    13 C    0.970
    35   1 H    0.995 --    16 C    0.968
    36   1 H    0.998 --    16 C    0.969
    37   1 H    0.999 --    17 C    0.983
    38   1 H    0.998 --    17 C    0.985
    39   1 H    0.999 --    17 C    0.985
    40   1 H    0.995 --    18 C    0.973
    41   1 H    0.995 --    18 C    0.958
    42   1 H    0.890 --    20 O    0.865
 ---------------------------------------------------------------------------

Topologies differ in total number of bonds
Writing topology from bond orders to xtbtopo.mol

molecular dipole:
                 x           y           z       tot (Debye)
 q only:        0.469      -0.219      -0.122
   full:        0.407      -0.363      -0.102       1.410
molecular quadrupole (traceless):
                xx          xy          yy          xz          yz          zz
 q only:      -10.114      -8.095       5.340       3.347       2.828       4.773
  q+dip:       -9.799      -9.204       7.052       0.724       2.851       2.747
   full:      -11.133      -9.979       6.557       2.292       2.425       4.576

           -------------------------------------------------
          |                Geometry Summary                 |
           -------------------------------------------------

      molecular mass/u    :      287.3541840
   center of mass at/Å    :       -0.1912343       0.1581116       0.2383466
  moments of inertia/u·Å² :        0.9470280E+03   0.2477518E+04   0.2895062E+04
rotational constants/cm⁻¹ :        0.1780056E-01   0.6804242E-02   0.5822892E-02

 * 40 selected distances

     #   Z          #   Z                                           value/Å
     1   6 C        2   6 C                                       1.5302934
     3   6 C        4   6 C                                       1.3818135
     4   6 C        5   6 C                                       1.3971678
     5   6 C        6   6 C                                       1.3755152
     6   6 C        7   6 C                                       1.3946624
     3   6 C        8   6 C                                       1.3946866
     7   6 C        8   6 C                                       1.4162790
     8   6 C        9   7 N                                       1.3682677
     9   7 N       10   6 C                                       1.3725697
     7   6 C       11   6 C                                       1.4250691
    10   6 C       11   6 C                                       1.3661581
    11   6 C       12   6 C                                       1.4913254
    12   6 C       13   6 C                                       1.5319449 (max)
    13   6 C       14   8 O                                       1.4123244
    10   6 C       15   6 C                                       1.4981562
    14   8 O       15   6 C                                       1.4309692
    16   6 C       17   6 C                                       1.5232941
    19   6 C       20   8 O                                       1.3329481
    19   6 C       21   8 O                                       1.2024574
     1   6 C       22   1 H                                       1.0880019
     1   6 C       23   1 H                                       1.0879552
     1   6 C       24   1 H                                       1.0874325
     2   6 C       25   1 H                                       1.0915048
     2   6 C       26   1 H                                       1.0936558
     4   6 C       27   1 H                                       1.0807279
     5   6 C       28   1 H                                       1.0802499
     6   6 C       29   1 H                                       1.0794973
     9   7 N       30   1 H                                       1.0041234
    12   6 C       31   1 H                                       1.0941631
    12   6 C       32   1 H                                       1.0914283
    13   6 C       33   1 H                                       1.0989496
[...]
     DOI: 10.1002/anie.202004239
   
   for ALPB and GBSA implicit solvation:
   * S. Ehlert, M. Stahn, S. Spicher, S. Grimme, J. Chem. Theory Comput.,
     2021, 17, 4250-4261. DOI: 10.1021/acs.jctc.1c00471
   
   for ddCOSMO and CPCM-X implicit solvation:
   * M. Stahn, S. Ehlert, S. Grimme, J. Phys. Chem. A,
     2023, XX, XXXX-XXXX. DOI: 10.1021/acs.jpca.3c04382
   
   for DFT-D4:
   * E. Caldeweyher, C. Bannwarth and S. Grimme, J. Chem. Phys., 2017,
     147, 034112. DOI: 10.1063/1.4993215
   * E. Caldeweyher, S. Ehlert, A. Hansen, H. Neugebauer, S. Spicher,
     C. Bannwarth and S. Grimme, J. Chem. Phys., 2019, 150, 154122.
     DOI: 10.1063/1.5090222
   * E. Caldeweyher, J.-M. Mewes, S. Ehlert and S. Grimme, Phys. Chem. Chem. Phys.
     2020, 22, 8499-8512. DOI: 10.1039/D0CP00502A
   
   for sTDA-xTB:
   * S. Grimme and C. Bannwarth, J. Chem. Phys., 2016, 145, 054103.
     DOI: 10.1063/1.4959605
   
   in the mass-spec context:
   * V. Asgeirsson, C. Bauer and S. Grimme, Chem. Sci., 2017, 8, 4879.
     DOI: 10.1039/c7sc00601b
   * J. Koopman and S. Grimme, ACS Omega 2019, 4, 12, 15120-15133.
     DOI: 10.1021/acsomega.9b02011
   
   for metadynamics refer to:
   * S. Grimme, J. Chem. Theory Comput., 2019, 155, 2847-2862
     DOI: 10.1021/acs.jctc.9b00143
   
   for SPH calculations refer to:
   * S. Spicher and S. Grimme, J. Chem. Theory Comput., 2021, 17, 1701-1714
     DOI: 10.1021/acs.jctc.0c01306
   
   for ONIOM refer to:
   * C. Plett, A. Katbashev, S. Ehlert, S. Grimme, M. Bursch,
     Phys. Chem. Chem. Phys., 2023, 25, 17860-17868. DOI: 10.1039/D3CP02178E
   
   for DIPRO refer to:
   * J. Kohn, N. Gildemeister, S. Grimme, D. Fazzi, A. Hansen,
     J. Chem. Phys., 2023, just accepted.
   
   for PTB refer to:
   * S. Grimme, M. Mueller, A. Hansen, J. Chem. Phys., 2023, 158, 124111.
     DOI: 10.1063/5.0137838
   
   with help from (in alphabetical order)
   P. Atkinson, C. Bannwarth, F. Bohle, G. Brandenburg, E. Caldeweyher
   M. Checinski, S. Dohm, S. Ehlert, S. Ehrlich, I. Gerasimov, C. Hölzer
   A. Katbashev, J. Kohn, J. Koopman, C. Lavigne, S. Lehtola, F. März, M. Müller,
   F. Musil, H. Neugebauer, J. Pisarek, C. Plett, P. Pracht, F. Pultar,
   J. Seibert, P. Shushkov, S. Spicher, M. Stahn, M. Steiner, T. Strunk,
   J. Stückrath, T. Rose, and J. Unsleber
   
 * started run on 2025/05/15 at 16:24:01.097     
   ID    Z sym.   atoms
    1    6 C      1-8, 10-13, 15-19
    2    7 N      9
    3    8 O      14, 20, 21
    4    1 H      22-42

           -------------------------------------------------
          |                Calculation Setup                |
           -------------------------------------------------

          program call               : xtb /rds/general/user/hgt20/home/callum/QDESCP/Etodolac_rdkit_conf_20/Etodolac_rdkit_conf_20.xyz --acc 1 --gfn 2 --chrg 0 --uhf 2 --etemp 300 --input /rds/general/user/hgt20/home/callum/QDESCP/Etodolac_rdkit_conf_20/Etodolac_rdkit_conf_20_xtb.inp -P 1
          hostname                   : login-c
          coordinate file            : /rds/general/user/hgt20/home/callum/QDESCP/Etodolac_rdkit_conf_20/Etodolac_rdkit_conf_20.xyz
          omp threads                :                     1


           -------------------------------------------------
          |                 G F N 2 - x T B                 |
           -------------------------------------------------

        Reference                      10.1021/acs.jctc.8b01176
      * Hamiltonian:
        H0-scaling (s, p, d)           1.850000    2.230000    2.230000
        zeta-weighting                 0.500000
      * Dispersion:
        s8                             2.700000
        a1                             0.520000
        a2                             5.000000
        s9                             5.000000
      * Repulsion:
        kExp                           1.500000    1.000000
        rExp                           1.000000
      * Coulomb:
        alpha                          2.000000
        third order                    shell-resolved
        anisotropic                    true
        a3                             3.000000
        a5                             4.000000
        cn-shift                       1.200000
        cn-exp                         4.000000
        max-rad                        5.000000


          ...................................................
          :                      SETUP                      :
          :.................................................:
          :  # basis functions                 105          :
          :  # atomic orbitals                 105          :
          :  # shells                           63          :
          :  # electrons                       112          :
          :  max. iterations                   250          :
          :  Hamiltonian                  GFN2-xTB          :
          :  restarted?                      false          :
          :  GBSA solvation                  false          :
          :  PC potential                    false          :
          :  electronic temp.          300.0000000     K    :
          :  accuracy                    1.0000000          :
          :  -> integral cutoff          0.2500000E+02      :
          :  -> integral neglect         0.1000000E-07      :
          :  -> SCF convergence          0.1000000E-05 Eh   :
          :  -> wf. convergence          0.1000000E-03 e    :
          :  Broyden damping             0.4000000          :
          :  net charge                          0          :
          :  unpaired electrons                  2          :
          ...................................................

 iter      E             dE          RMSdq      gap      omega  full diag
   1    -62.8330716 -0.628331E+02  0.376E+00    0.95       0.0  T
   2    -62.7721933  0.608784E-01  0.299E+00    0.42       1.0  T
   3    -62.6186939  0.153499E+00  0.216E+00    0.90       1.0  T
   4    -62.7746554 -0.155962E+00  0.210E+00    0.90       1.0  T
   5    -62.9673944 -0.192739E+00  0.124E+00    0.66       1.0  T
   6    -63.0067810 -0.393866E-01  0.763E-01    0.47       1.0  T
   7    -63.0123359 -0.555492E-02  0.643E-01    0.50       1.0  T
   8    -63.0131172 -0.781300E-03  0.499E-01    0.60       1.0  T
   9    -63.0160837 -0.296648E-02  0.223E-01    0.63       1.0  T
  10    -63.0171669 -0.108322E-02  0.999E-02    0.58       1.0  T
  11    -63.0175993 -0.432363E-03  0.499E-02    0.53       1.0  T
  12    -63.0176974 -0.981369E-04  0.325E-02    0.50       1.0  T
  13    -63.0177459 -0.485385E-04  0.145E-02    0.48       1.1  T
  14    -63.0177532 -0.721485E-05  0.357E-03    0.48       4.3  T
  15    -63.0177539 -0.700296E-06  0.125E-03    0.47      12.3  T
  16    -63.0177539 -0.312616E-07  0.530E-04    0.47      29.1  T
  17    -63.0177539 -0.105014E-07  0.288E-04    0.47      53.6  T

   *** convergence criteria satisfied after 17 iterations ***

         #    Occupation            Energy/Eh            Energy/eV
      -------------------------------------------------------------
         1        2.0000           -0.7275180             -19.7968
       ...           ...                  ...                  ...
        51        2.0000           -0.4159950             -11.3198
        52        2.0000           -0.4116108             -11.2005
        53        2.0000           -0.4061393             -11.0516
        54        2.0000           -0.3956986             -10.7675
        55        1.9996           -0.3806405             -10.3578
        56        1.0004           -0.3655231              -9.9464
        57        0.9999           -0.2322372              -6.3195 (HOMO)
        58        0.0001           -0.2147813              -5.8445 (LUMO)
        59                         -0.1995333              -5.4296
        60                         -0.1637066              -4.4547
        61                         -0.0740288              -2.0144
        62                         -0.0127219              -0.3462
       ...                                ...                  ...
       105                          0.7149463              19.4547
      -------------------------------------------------------------
                  HL-Gap            0.0174559 Eh            0.4750 eV
             Fermi-level           -0.2982955 Eh           -8.1170 eV

 transition dipole moment (au) for excitation:          56          57
     X       Y       Z   
  -0.7972  -1.4940   0.3743  total (au/Debye):    1.734   4.408
 dE (eV)             :    3.627
 oscillator strength :  0.37794E+00

 SCC (total)                   0 d,  0 h,  0 min,  0.127 sec
 SCC setup                      ...        0 min,  0.000 sec (  0.262%)
 Dispersion                     ...        0 min,  0.000 sec (  0.344%)
 classical contributions        ...        0 min,  0.000 sec (  0.113%)
 integral evaluation            ...        0 min,  0.007 sec (  5.924%)
 iterations                     ...        0 min,  0.089 sec ( 70.196%)
 molecular gradient             ...        0 min,  0.023 sec ( 17.786%)
 printout                       ...        0 min,  0.007 sec (  5.370%)

         :::::::::::::::::::::::::::::::::::::::::::::::::::::
         ::                     SUMMARY                     ::
         :::::::::::::::::::::::::::::::::::::::::::::::::::::
         :: total energy             -62.158861750704 Eh    ::
         :: gradient norm              0.155451539144 Eh/a0 ::
         :: HOMO-LUMO gap              0.474998381810 eV    ::
         ::.................................................::
         :: SCC energy               -63.017108079414 Eh    ::
         :: -> isotropic ES            0.077936337638 Eh    ::
         :: -> anisotropic ES          0.007823949333 Eh    ::
         :: -> anisotropic XC          0.016757659308 Eh    ::
         :: -> dispersion             -0.044986541363 Eh    ::
         :: repulsion energy           0.858246328710 Eh    ::
         :: add. restraining           0.000000000000 Eh    ::
         :: total charge               0.000000000035 e     ::
         :::::::::::::::::::::::::::::::::::::::::::::::::::::

           -------------------------------------------------
          |                Property Printout                |
           -------------------------------------------------

    * Orbital Energies and Occupations

         #    Occupation            Energy/Eh            Energy/eV
      -------------------------------------------------------------
         1        2.0000           -0.7275180             -19.7968
       ...           ...                  ...                  ...
        45        2.0000           -0.4525579             -12.3147
        46        2.0000           -0.4503318             -12.2542
        47        2.0000           -0.4438738             -12.0784
        48        2.0000           -0.4432720             -12.0620
        49        2.0000           -0.4326904             -11.7741
        50        2.0000           -0.4256280             -11.5819
        51        2.0000           -0.4159950             -11.3198
        52        2.0000           -0.4116108             -11.2005
        53        2.0000           -0.4061393             -11.0516
        54        2.0000           -0.3956986             -10.7675
        55        1.9996           -0.3806405             -10.3578
        56        1.0004           -0.3655231              -9.9464
        57        0.9999           -0.2322372              -6.3195 (HOMO)
        58        0.0001           -0.2147813              -5.8445 (LUMO)
        59                         -0.1995333              -5.4296
        60                         -0.1637066              -4.4547
        61                         -0.0740288              -2.0144
        62                         -0.0127219              -0.3462
        63                          0.0071019               0.1933
        64                          0.0526229               1.4319
        65                          0.0669186               1.8209
        66                          0.0729805               1.9859
        67                          0.0797611               2.1704
        68                          0.0949305               2.5832
       ...                                ...                  ...
       105                          0.7149463              19.4547
      -------------------------------------------------------------
                  HL-Gap            0.0174559 Eh            0.4750 eV
             Fermi-level           -0.2982955 Eh           -8.1170 eV

     #   Z          covCN         q      C6AA      α(0)
     1   6 C        3.753    -0.098    22.437     6.755
     2   6 C        3.805    -0.055    21.561     6.610
     3   6 C        2.960    -0.021    28.528     8.761
     4   6 C        2.929    -0.045    29.107     8.848
     5   6 C        2.919    -0.041    29.010     8.832
     6   6 C        2.911    -0.044    29.099     8.845
     7   6 C        3.107    -0.032    28.662     8.772
     8   6 C        3.092     0.038    27.039     8.523
     9   7 N        2.776    -0.099    23.183     7.151
    10   6 C        3.081     0.004    27.844     8.651
    11   6 C        3.073    -0.001    27.982     8.673
    12   6 C        3.805    -0.066    21.764     6.641
    13   6 C        3.697     0.084    19.351     6.293
    14   8 O        1.700    -0.324    19.423     5.950
    15   6 C        3.792     0.144    18.267     6.087
    16   6 C        3.801    -0.073    21.895     6.662
    17   6 C        3.750    -0.105    22.560     6.774
    18   6 C        3.807    -0.093    22.270     6.718
    19   6 C        2.690     0.358    20.928     7.487
    20   8 O        1.660    -0.378    20.423     6.101
    21   8 O        0.856    -0.436    22.410     6.347
    22   1 H        0.925     0.031     2.575     2.509
    23   1 H        0.925     0.035     2.516     2.480
    24   1 H        0.925     0.039     2.456     2.451
    25   1 H        0.924     0.038     2.469     2.457
    26   1 H        0.924     0.026     2.647     2.544
    27   1 H        0.926     0.027     2.636     2.539
    28   1 H        0.926     0.026     2.640     2.541
    29   1 H        0.926     0.023     2.681     2.560
    30   1 H        0.860     0.172     1.261     1.759
    31   1 H        0.924     0.065     2.140     2.288
    32   1 H        0.924     0.051     2.304     2.374
    33   1 H        0.923     0.022     2.697     2.568
    34   1 H        0.924     0.051     2.304     2.373
    35   1 H        0.924     0.072     2.060     2.245
    36   1 H        0.924     0.038     2.471     2.458
    37   1 H        0.925     0.032     2.555     2.500
    38   1 H        0.925     0.047     2.363     2.404
    39   1 H        0.925     0.035     2.521     2.483
    40   1 H        0.925     0.067     2.121     2.278
    41   1 H        0.925     0.060     2.204     2.321
    42   1 H        0.804     0.325     0.650     1.266

 Mol. C6AA /au·bohr⁶  :      17912.908299
 Mol. C8AA /au·bohr⁸  :     415495.117313
 Mol. α(0) /au        :        204.878890


Wiberg/Mayer (AO) data.
largest (>0.10) Wiberg bond orders for each atom

 ---------------------------------------------------------------------------
     #   Z sym  total        # sym  WBO       # sym  WBO       # sym  WBO
 ---------------------------------------------------------------------------
     1   6 C    3.988 --     2 C    0.993    24 H    0.988    22 H    0.988
                            23 H    0.986
     2   6 C    3.996 --     3 C    1.018     1 C    0.993    25 H    0.974
                            26 H    0.970
     3   6 C    3.839 --     8 C    1.351     4 C    1.165     2 C    1.018
                            10 C    0.107
     4   6 C    3.900 --     5 C    1.516     3 C    1.165    27 H    0.970
     5   6 C    3.983 --     4 C    1.516     6 C    1.333    28 H    0.971
     6   6 C    3.808 --     5 C    1.333     7 C    1.187    29 H    0.970
                            11 C    0.106
     7   6 C    3.964 --    11 C    1.311     8 C    1.253     6 C    1.187
     8   6 C    3.951 --     3 C    1.351     7 C    1.253     9 N    1.131
     9   7 N    3.557 --    10 C    1.235     8 C    1.131    30 H    0.937
    10   6 C    3.838 --     9 N    1.235    11 C    1.207    15 C    1.006
                             3 C    0.107
    11   6 C    3.893 --     7 C    1.311    10 C    1.207    12 C    1.035
                             6 C    0.106
    12   6 C    3.995 --    11 C    1.035    13 C    0.990    32 H    0.961
                            31 H    0.943
    13   6 C    3.955 --    12 C    0.990    14 O    0.987    34 H    0.969
                            33 H    0.965
    14   8 O    2.076 --    13 C    0.987    15 C    0.957
    15   6 C    3.948 --    10 C    1.006    14 O    0.957    16 C    0.953
                            18 C    0.931
    16   6 C    3.981 --    17 C    1.021    36 H    0.970    35 H    0.966
                            15 C    0.953
    17   6 C    3.996 --    16 C    1.021    39 H    0.985    38 H    0.984
                            37 H    0.983
    18   6 C    3.986 --    19 C    0.977    40 H    0.975    41 H    0.960
                            15 C    0.931
    19   6 C    3.866 --    21 O    1.707    20 O    1.120    18 C    0.977
    20   8 O    2.182 --    19 C    1.120    42 H    0.869    21 O    0.161
    21   8 O    1.980 --    19 C    1.707    20 O    0.161
    22   1 H    0.999 --     1 C    0.988
    23   1 H    0.997 --     1 C    0.986
    24   1 H    0.998 --     1 C    0.988
    25   1 H    0.996 --     2 C    0.974
    26   1 H    0.998 --     2 C    0.970
    27   1 H    0.999 --     4 C    0.970
    28   1 H    0.999 --     5 C    0.971
    29   1 H    0.998 --     6 C    0.970
    30   1 H    0.970 --     9 N    0.937
    31   1 H    0.985 --    12 C    0.943
    32   1 H    0.993 --    12 C    0.961
    33   1 H    0.999 --    13 C    0.965
    34   1 H    0.996 --    13 C    0.969
    35   1 H    0.993 --    16 C    0.966
    36   1 H    0.998 --    16 C    0.970
    37   1 H    0.999 --    17 C    0.983
    38   1 H    0.997 --    17 C    0.984
    39   1 H    0.999 --    17 C    0.985
    40   1 H    0.995 --    18 C    0.975
    41   1 H    0.996 --    18 C    0.960
    42   1 H    0.894 --    20 O    0.869
 ---------------------------------------------------------------------------

Topologies differ in total number of bonds
Writing topology from bond orders to xtbtopo.mol

molecular dipole:
                 x           y           z       tot (Debye)
 q only:        0.739       0.087      -0.467
   full:        0.707      -0.030      -0.457       2.141
molecular quadrupole (traceless):
                xx          xy          yy          xz          yz          zz
 q only:      -11.369      -9.764       8.692       6.492       4.113       2.677
  q+dip:      -11.524     -11.709      10.636       4.403       4.576       0.888
   full:      -12.792     -12.059      10.102       5.928       4.003       2.690


           -------------------------------------------------
          | TOTAL ENERGY              -62.158861750704 Eh   |
          | GRADIENT NORM               0.155451539144 Eh/α |
          | HOMO-LUMO GAP               0.474998381810 eV   |
           -------------------------------------------------

------------------------------------------------------------------------
 * finished run on 2025/05/15 at 16:24:01.287     
------------------------------------------------------------------------
 total:
 * wall-time:     0 d,  0 h,  0 min,  0.190 sec
 *  cpu-time:     0 d,  0 h,  0 min,  0.082 sec
 * ratio c/w:     0.430 speedup
 SCF:
 * wall-time:     0 d,  0 h,  0 min,  0.127 sec
 *  cpu-time:     0 d,  0 h,  0 min,  0.070 sec
 * ratio c/w:     0.555 speedup


