42
 energy: -62.289427662613 gnorm: 0.000521684366 xtb: 6.7.1 (edcfbbe)
C            3.41387293061399       -2.45680701133792       -0.14687048698861
C            2.93480029212179       -1.89196617973524       -1.48599017787519
C            2.69295592666497       -0.41149864151718       -1.39065072319189
C            3.62850340262385        0.51400988240326       -1.81206879355235
C            3.41808350730923        1.89022399488877       -1.69444304848589
C            2.26056398771258        2.39406549515699       -1.14824338628882
C            1.29155238513650        1.49220037778297       -0.70922318979251
C            1.52187008682529        0.10019512472811       -0.83219053604377
N            0.42854474915529       -0.55215100536644       -0.33095159778993
C           -0.48659855538130        0.37796147469274        0.09490138269766
C            0.00594722329622        1.63544715221114       -0.11129246479051
C           -0.74862106323984        2.85402784092840        0.30070127688522
C           -2.20741993178671        2.43844693652361        0.51530146336594
O           -2.32985373816391        1.27730896907898        1.30992625138721
C           -1.80180261225807        0.07349933729922        0.74452643707991
C           -2.84084296589914       -0.52865361362830       -0.22926931104390
C           -2.35655148328528       -1.70232276083005       -1.07092666889996
C           -1.57029140140192       -0.86428189880760        1.95878781285110
C           -2.78150753736757       -0.82931487969188        2.85688813203883
O           -2.54081111193667       -0.16393274982735        3.98652621409160
O           -3.84494783057626       -1.33622035380810        2.61596272116152
H            2.68285655857401       -2.26854471678783        0.63666016159761
H            3.57685070783262       -3.52994007342117       -0.22082947081154
H            4.34872895391524       -1.98352900190570        0.14392370356512
H            3.69203534698772       -2.08743131688512       -2.24741703010996
H            2.01622865171408       -2.40148482891545       -1.79045623784256
H            4.55181137699244        0.16187460738356       -2.24964814073416
H            4.18552451999603        2.56571213923513       -2.04328366847917
H            2.10004001649536        3.45780435873973       -1.05876723374006
H            0.31854887094881       -1.54861868664835       -0.27423557422652
H           -0.33240555158799        3.24977966226670        1.23201100166437
H           -0.69093207590378        3.63653251180874       -0.45796466753463
H           -2.68811570316685        2.28946569116455       -0.46164593716375
H           -2.76074322873147        3.20584935802946        1.06075922144504
H           -3.70229388680724       -0.83362500696473        0.36666986620081
H           -3.16712299371915        0.26706418670674       -0.90189750190853
H           -2.00821054889079       -2.52349252404294       -0.44792271783730
H           -3.18370433576718       -2.07419875201412       -1.67112282404215
H           -1.56007172608093       -1.40053598791560       -1.74766044616491
H           -0.70945428547952       -0.51166022757868        2.52559593025242
H           -1.40937889844920       -1.88313258101740        1.61024908884333
H           -3.34783802903506       -0.09782630237906        4.52148117021234
