50
 energy: -70.101709526459 gnorm: 0.000378392389 xtb: 6.7.1 (edcfbbe)
O            0.34728833921010        2.29975998124482       -0.10293866948665
C           -0.01127504134142        1.15572156614193        0.63269404189707
C           -0.52744438245469        0.05151683711145       -0.31778599446068
N           -1.46778763796874        0.63312975249560       -1.27787862996645
C           -1.63382348416849       -0.30436253196953       -2.38011616953436
C           -2.03439356114337       -1.69912403540726       -1.85275108259505
C           -2.76813589095499        0.88236596593076       -0.66658275885980
C           -3.48011792529760       -0.43327534477758       -0.28266226093219
C           -4.15827396605044       -0.35868756588409        1.08629162970238
C           -5.35274767381815        0.58874484241685        1.08128297297600
C           -2.42039449268357       -1.54329317851848       -0.37648039741192
C           -1.16831352286547       -1.14126207945827        0.41080748915683
C            1.14256635357904        0.62014955160672        1.44355580231947
C            0.93866570270382        0.28888953163673        2.76056216576347
C            1.97516926864093       -0.29536417885494        3.50583752523215
N            3.15394090767612       -0.55756558455630        3.02064400458106
C            3.40122401608443       -0.22845339828171        1.73770170982754
C            2.42944884146080        0.37883397130327        0.88773597403969
C            2.79695464119709        0.69664606636814       -0.42856084820836
C            4.05987731676922        0.41772472805231       -0.90713614844839
O            4.29647397031835        0.76792274744363       -2.20306553810041
C            5.56997755805142        0.53231472253945       -2.75102707053032
C            5.01006214088222       -0.19528626416840       -0.06769374698896
C            4.68253075892587       -0.50327891686739        1.22276740837768
H           -0.24919582880530        2.33043255070002       -0.86643162830008
H           -0.81608921887115        1.42490959139259        1.33979455619278
H            0.33198582664886       -0.28938727370362       -0.90421792492515
H           -2.40014813703234        0.10005233355102       -3.04486805676213
H           -0.69474858975569       -0.34818080096227       -2.93733449197561
H           -1.20333863259229       -2.40087991721864       -1.93998131706033
H           -2.87386931697219       -2.10062469687454       -2.42188582972665
H           -2.61820779644761        1.50758199872265        0.21454006659662
H           -3.36158550247085        1.45674516303942       -1.38292917464093
H           -4.25812176223726       -0.65672637773013       -1.02156623888240
H           -3.44328922196324       -0.02831120882069        1.84264418236678
H           -4.49739726342867       -1.35910261557216        1.36761826068541
H           -5.04439795645179        1.60045826615587        0.82914771958187
H           -6.09272428760295        0.26517659708018        0.35238520845697
H           -5.82433013120019        0.60897935787495        2.06111787549628
H           -2.82292638331267       -2.48319233905022        0.01167273338759
H           -0.46855963170201       -1.97651667392408        0.46307429138357
H           -1.43744600563806       -0.87533336151705        1.43346698080777
H           -0.01589735894759        0.46802606425818        3.23368482422837
H            1.81676731020311       -0.56419474998394        4.54287123273062
H            2.10502425271473        1.20239796959434       -1.08023038547985
H            6.35032422878697        1.07815693698778       -2.21121076789009
H            5.52027307712098        0.89970197532606       -3.77509934758330
H            5.81401757656311       -0.53520814944864       -2.76378771482405
H            6.00162658366075       -0.41681300675126       -0.43088717469451
H            5.40068193297500       -0.96171481867332        1.88441071247173
