51
 energy: -84.108397181914 gnorm: 0.000271643388 xtb: 6.7.1 (edcfbbe)
F            3.56763492200228        4.34897158499864       -1.17769023703138
C            3.02175196285942        3.19049241918733       -0.75946956720147
C            2.41752452646625        3.14217758306247        0.48388338359157
C            1.84547464509167        1.95389284918345        0.88911317063884
C            1.89021879909819        0.81788848926245        0.08056171724713
C            2.52549601388511        0.89318482213192       -1.15720480916422
C            3.08137098656034        2.08316789889655       -1.58717891415213
C            1.25031505434650       -0.41692147972850        0.62377652825541
C            1.80335778890022       -1.73885618222983        0.11803703563676
C            1.60524354858175       -2.86417604951452        1.13874066347659
C            0.12166655684784       -3.18201919739189        1.36871726345661
N           -0.66043838373399       -2.76397955142085        0.22627752723195
C           -0.00293548937198       -3.11797237007275       -1.00848864473522
C            1.14996851779407       -2.13241862736206       -1.22824681726674
C           -2.06134770553278       -3.09091825976296        0.31552559465165
C           -2.90355210362468       -2.05536098030322       -0.44295427741515
N           -2.52237667097499       -0.70204722440750       -0.06741445572346
C           -2.86725033958424       -0.30267277302956        1.20932034020134
N           -2.47204014641729        0.96042180995459        1.56652088588837
C           -1.78335157600399        1.82388555116467        0.75715479455235
C           -1.45576031111973        3.11525735868040        1.16976052302398
C           -0.79969862363354        3.96455230682276        0.30408344256550
C           -0.44887487017542        3.54420029130196       -0.97494443726356
C           -0.75519601795359        2.26458283505680       -1.38237408525587
C           -1.43021559755075        1.39597177761691       -0.52539801968409
C           -1.77515735474125        0.04110208988566       -0.96436337870584
O           -1.46482882976373       -0.40250996138140       -2.05319026752830
O           -3.51404550761718       -0.99438827478218        1.96200736572859
O            0.38575062458514       -0.32137197798058        1.46440269866810
H            2.39752732452195        4.02143078175060        1.10774308938163
H            1.35566732306963        1.88249570464404        1.84821978563001
H            2.57455029561396        0.03251672055955       -1.80339724465766
H            3.56059106351240        2.16149768177288       -2.55032488232622
H            2.87867700138910       -1.59624833168969       -0.03478771627383
H            2.07023633352214       -2.58684496143157        2.08584341329304
H            2.12263008539518       -3.74855711373421        0.76092326005114
H           -0.25024214176990       -2.63722513628345        2.23887423720677
H            0.01163247820024       -4.26612871677579        1.56640157591454
H           -0.70374327223630       -3.02793807828114       -1.83805584616398
H            0.36802799193025       -4.15908592195174       -0.98722278435219
H            1.89689594371613       -2.58058714128833       -1.88596076960925
H            0.74235866513721       -1.24896128677884       -1.71826267065971
H           -2.29844430426597       -4.09561262414106       -0.07539980942224
H           -2.35131943334633       -3.05551861703694        1.36710606342952
H           -3.95858691190781       -2.19974444253443       -0.20038235015435
H           -2.75238768617726       -2.13146710718041       -1.52013365306673
H           -2.69142156472539        1.23362679042207        2.51494779325090
H           -1.72823684798842        3.44169635432168        2.16260336643669
H           -0.55930288413462        4.96797733274018        0.62229725154419
H            0.06175459238947        4.22042914189878       -1.64261094095925
H           -0.49546847105473        1.90711221316094       -2.36698619218071
