62
 energy: -94.881491692592 gnorm: 0.000640586490 xtb: 6.7.1 (edcfbbe)
C           -7.13611320883441        3.03946053820412       -1.33628137807786
C           -5.87497446903925        3.18525163616529       -2.13599632457485
C           -4.73485953950540        2.31804616304115       -1.69738883363292
C           -3.49044296105955        2.83611865304713       -1.48438688993346
C           -3.16996668221441        4.28959838672709       -1.62810666995478
C           -2.44887486115099        1.95112187281908       -1.06803570316693
C           -1.13237515333530        2.33277351319877       -0.78007773128326
N           -0.19367699650620        1.49437092909456       -0.41373160231809
C           -0.54114952243703        0.20109694576641       -0.32016769538533
N            0.37049887670604       -0.72480150460145        0.04092165258679
C            1.70649492559567       -0.60688411799461        0.39266792810988
N            2.27141751601683       -1.77091743448945        0.69433875481749
C            3.53503150357123       -1.79842453263171        1.06707772460880
C            4.34581742347736       -0.66035485746469        1.17298176894822
C            3.73357474633540        0.55668752466525        0.83153572875313
C            2.41406694723315        0.59427522372958        0.43950725288110
N            5.68317657251477       -0.71062561881205        1.51640941610573
C            6.36443357091887       -1.98257536539410        1.62036735112938
C            7.85922501439869       -1.76925709814799        1.36822728728274
N            8.37606135203117       -0.82000580672869        2.33417829633491
C            7.71264956684884        0.45969572616868        2.17824621040619
C            6.22451940864652        0.25481548375097        2.45261957103403
N           -1.75805807660101       -0.28379271166432       -0.56284212204478
C           -2.71022548976758        0.56331008111915       -0.93222039614932
N           -3.95227262731409        0.07182577491035       -1.17840440180344
C           -4.23179328615861       -1.35532742983554       -1.05697712358277
C           -3.95231392554714       -1.93372903326645        0.34628408387386
C           -3.04340575405571       -3.14545902191767        0.12155928039020
C           -3.32046730059461       -3.56009358176813       -1.32091820175948
C           -3.43530290930650       -2.22230422843544       -2.04300038174584
C           -5.01845265561489        0.89315576908102       -1.55136260458365
O           -6.11478333930807        0.39913467259256       -1.75595894754650
O           -5.76987043500739        3.95913752144713       -3.05890613786510
H           -6.91955588793500        3.10835243466166       -0.27223390299756
H           -7.54662411219339        2.04960231793703       -1.52955145286147
H           -7.85210156733652        3.80198548951268       -1.63044008259968
H           -2.80919954402806        4.68969453211776       -0.68090152888856
H           -4.03620564900962        4.85737698458208       -1.94778137567571
H           -2.38632115887171        4.41972107505322       -2.37300997395020
H           -0.82093877683670        3.36602440495067       -0.84975673167844
H            0.02569056759566       -1.67685552535408        0.07365775373550
H            3.90514387021116       -2.78500724798905        1.30620795593057
H            4.29972030036475        1.47549074697393        0.85528961422463
H            1.92939755154391        1.51595093255315        0.16885161367281
H            5.97844100026834       -2.66492907821012        0.86290927136492
H            6.23028927685166       -2.42903897187126        2.61717154632802
H            7.99096283268634       -1.41957170914277        0.32853707062090
H            8.38629469893936       -2.71782399887751        1.48781030048344
H            9.38025944818152       -0.71792564147794        2.22845541414187
H            7.83583420688166        0.87705781880489        1.16305158232436
H            8.12708354500246        1.16451980860498        2.90180117391317
H            5.69458428274912        1.20169782297542        2.36999697862181
H            6.11327358003582       -0.12131928713145        3.48182684578991
H           -5.29797948799949       -1.44237780502677       -1.28178342084954
H           -3.48108261154421       -1.19581026759229        0.99190094073624
H           -4.89125464467070       -2.23692687203794        0.80956108885257
H           -3.24086901771301       -3.94564166369414        0.83315892619091
H           -2.00111458136903       -2.84321363373395        0.21706264171214
H           -2.53507356373921       -4.19043576792917       -1.73480651129065
H           -4.26704551233585       -4.09960228901358       -1.38150578239251
H           -2.44368501410082       -1.79757556198212       -2.19052273401539
H           -3.93521226256090       -2.29864312004029       -3.00741638329512
