----- Optimization -----
      -----------------------------------------------------------      
     |                   =====================                   |     
     |                           x T B                           |     
     |                   =====================                   |     
     |                         S. Grimme                         |     
     |          Mulliken Center for Theoretical Chemistry        |     
     |                    University of Bonn                     |     
      -----------------------------------------------------------      

   * xtb version 6.7.1 (edcfbbe) compiled by 'conda@3ef47c1a292c' on 2024-11-25

   xtb is free software: you can redistribute it and/or modify it under
   the terms of the GNU Lesser General Public License as published by
   the Free Software Foundation, either version 3 of the License, or
   (at your option) any later version.
   
   xtb is distributed in the hope that it will be useful,
   but WITHOUT ANY WARRANTY; without even the implied warranty of
   MERCHANTABILITY or FITNESS FOR A PARTICULAR PURPOSE.  See the
   GNU Lesser General Public License for more details.
   
   Cite this work as:
   * C. Bannwarth, E. Caldeweyher, S. Ehlert, A. Hansen, P. Pracht,
     J. Seibert, S. Spicher, S. Grimme, WIREs Comput. Mol. Sci., 2020, 11,
     e01493. DOI: 10.1002/wcms.1493
   
   for GFN2-xTB:
   * C. Bannwarth, S. Ehlert and S. Grimme., J. Chem. Theory Comput., 2019,
     15, 1652-1671. DOI: 10.1021/acs.jctc.8b01176
   for GFN1-xTB:
   * S. Grimme, C. Bannwarth, P. Shushkov, J. Chem. Theory Comput., 2017,
     13, 1989-2009. DOI: 10.1021/acs.jctc.7b00118
   for GFN0-xTB:
   * P. Pracht, E. Caldeweyher, S. Ehlert, S. Grimme, ChemRxiv, 2019, preprint.
     DOI: 10.26434/chemrxiv.8326202.v1
   for GFN-FF:
   * S. Spicher and S. Grimme, Angew. Chem. Int. Ed., 2020, 59, 15665-15673.
     DOI: 10.1002/anie.202004239
   
   for ALPB and GBSA implicit solvation:
   * S. Ehlert, M. Stahn, S. Spicher, S. Grimme, J. Chem. Theory Comput.,
     2021, 17, 4250-4261. DOI: 10.1021/acs.jctc.1c00471
   
   for ddCOSMO and CPCM-X implicit solvation:
   * M. Stahn, S. Ehlert, S. Grimme, J. Phys. Chem. A,
     2023, XX, XXXX-XXXX. DOI: 10.1021/acs.jpca.3c04382
   
   for DFT-D4:
   * E. Caldeweyher, C. Bannwarth and S. Grimme, J. Chem. Phys., 2017,
     147, 034112. DOI: 10.1063/1.4993215
   * E. Caldeweyher, S. Ehlert, A. Hansen, H. Neugebauer, S. Spicher,
     C. Bannwarth and S. Grimme, J. Chem. Phys., 2019, 150, 154122.
     DOI: 10.1063/1.5090222
   * E. Caldeweyher, J.-M. Mewes, S. Ehlert and S. Grimme, Phys. Chem. Chem. Phys.
     2020, 22, 8499-8512. DOI: 10.1039/D0CP00502A
   
   for sTDA-xTB:
   * S. Grimme and C. Bannwarth, J. Chem. Phys., 2016, 145, 054103.
     DOI: 10.1063/1.4959605
   
   in the mass-spec context:
   * V. Asgeirsson, C. Bauer and S. Grimme, Chem. Sci., 2017, 8, 4879.
     DOI: 10.1039/c7sc00601b
   * J. Koopman and S. Grimme, ACS Omega 2019, 4, 12, 15120-15133.
     DOI: 10.1021/acsomega.9b02011
   
   for metadynamics refer to:
   * S. Grimme, J. Chem. Theory Comput., 2019, 155, 2847-2862
     DOI: 10.1021/acs.jctc.9b00143
   
   for SPH calculations refer to:
   * S. Spicher and S. Grimme, J. Chem. Theory Comput., 2021, 17, 1701-1714
     DOI: 10.1021/acs.jctc.0c01306
   
   for ONIOM refer to:
   * C. Plett, A. Katbashev, S. Ehlert, S. Grimme, M. Bursch,
     Phys. Chem. Chem. Phys., 2023, 25, 17860-17868. DOI: 10.1039/D3CP02178E
   
   for DIPRO refer to:
   * J. Kohn, N. Gildemeister, S. Grimme, D. Fazzi, A. Hansen,
     J. Chem. Phys., 2023, just accepted.
   
   for PTB refer to:
   * S. Grimme, M. Mueller, A. Hansen, J. Chem. Phys., 2023, 158, 124111.
     DOI: 10.1063/5.0137838
   
   with help from (in alphabetical order)
   P. Atkinson, C. Bannwarth, F. Bohle, G. Brandenburg, E. Caldeweyher
   M. Checinski, S. Dohm, S. Ehlert, S. Ehrlich, I. Gerasimov, C. Hölzer
   A. Katbashev, J. Kohn, J. Koopman, C. Lavigne, S. Lehtola, F. März, M. Müller,
   F. Musil, H. Neugebauer, J. Pisarek, C. Plett, P. Pracht, F. Pultar,
   J. Seibert, P. Shushkov, S. Spicher, M. Stahn, M. Steiner, T. Strunk,
   J. Stückrath, T. Rose, and J. Unsleber
   
 * started run on 2025/05/15 at 16:24:08.302     
   ID    Z sym.   atoms
    1    8 O      1, 14
    2    6 C      2-5, 7-12, 15-19, 21, 22, 24, 26-30
    3    7 N      6, 13, 23, 25
    4    9 F      20
    5    1 H      31-57

           -------------------------------------------------
          |                Calculation Setup                |
           -------------------------------------------------

          program call               : xtb /rds/general/user/hgt20/home/callum/QDESCP/Risperidone_rdkit_conf_6/Risperidone_rdkit_conf_6.xyz --opt normal --acc 1 --gfn 2 --chrg 0 --uhf 0 -P 1
          hostname                   : login-c
          coordinate file            : /rds/general/user/hgt20/home/callum/QDESCP/Risperidone_rdkit_conf_6/Risperidone_rdkit_conf_6.xyz
          omp threads                :                     1


           -------------------------------------------------
          |                 G F N 2 - x T B                 |
           -------------------------------------------------

        Reference                      10.1021/acs.jctc.8b01176
      * Hamiltonian:
        H0-scaling (s, p, d)           1.850000    2.230000    2.230000
        zeta-weighting                 0.500000
      * Dispersion:
        s8                             2.700000
        a1                             0.520000
        a2                             5.000000
        s9                             5.000000
      * Repulsion:
        kExp                           1.500000    1.000000
        rExp                           1.000000
      * Coulomb:
        alpha                          2.000000
        third order                    shell-resolved
        anisotropic                    true
        a3                             3.000000
        a5                             4.000000
        cn-shift                       1.200000
        cn-exp                         4.000000
        max-rad                        5.000000


          ...................................................
          :                      SETUP                      :
          :.................................................:
          :  # basis functions                 147          :
          :  # atomic orbitals                 147          :
          :  # shells                           87          :
          :  # electrons                       158          :
          :  max. iterations                   250          :
          :  Hamiltonian                  GFN2-xTB          :
          :  restarted?                      false          :
          :  GBSA solvation                  false          :
          :  PC potential                    false          :
          :  electronic temp.          300.0000000     K    :
          :  accuracy                    1.0000000          :
          :  -> integral cutoff          0.2500000E+02      :
          :  -> integral neglect         0.1000000E-07      :
          :  -> SCF convergence          0.1000000E-05 Eh   :
          :  -> wf. convergence          0.1000000E-03 e    :
          :  Broyden damping             0.4000000          :
          :  net charge                          0          :
          :  unpaired electrons                  0          :
          ...................................................

 iter      E             dE          RMSdq      gap      omega  full diag
   1    -88.5820467 -0.885820E+02  0.362E+00    3.12       0.0  T
   2    -88.7091723 -0.127126E+00  0.219E+00    2.62       1.0  T
   3    -88.7128511 -0.367871E-02  0.118E+00    2.20       1.0  T
   4    -88.7292266 -0.163756E-01  0.429E-01    1.83       1.0  T
   5    -88.7351122 -0.588555E-02  0.115E-01    1.78       1.0  T
   6    -88.7353861 -0.273882E-03  0.612E-02    1.81       1.0  T
   7    -88.7354725 -0.864262E-04  0.249E-02    1.83       1.0  T
   8    -88.7354772 -0.470372E-05  0.993E-03    1.84       1.3  T
   9    -88.7354790 -0.180106E-05  0.419E-03    1.84       3.2  T
  10    -88.7354793 -0.286020E-06  0.140E-03    1.83       9.4  T
  11    -88.7354793 -0.353489E-07  0.827E-04    1.83      16.0  T
  12    -88.7354793 -0.147373E-07  0.358E-04    1.83      37.0  T

   *** convergence criteria satisfied after 12 iterations ***

         #    Occupation            Energy/Eh            Energy/eV
      -------------------------------------------------------------
         1        2.0000           -0.8287964             -22.5527
       ...           ...                  ...                  ...
        73        2.0000           -0.4213705             -11.4661
        74        2.0000           -0.4148458             -11.2885
        75        2.0000           -0.4077661             -11.0959
        76        2.0000           -0.3908452             -10.6354
        77        2.0000           -0.3857189             -10.4959
        78        2.0000           -0.3844300             -10.4609
        79        2.0000           -0.3511408              -9.5550 (HOMO)
        80                         -0.2837399              -7.7210 (LUMO)
        81                         -0.2546644              -6.9298
        82                         -0.2411496              -6.5620
        83                         -0.2286215              -6.2211
        84                         -0.2076918              -5.6516
       ...                                ...                  ...
       147                          0.6917914              18.8246
      -------------------------------------------------------------
                  HL-Gap            0.0674009 Eh            1.8341 eV
             Fermi-level           -0.3174403 Eh           -8.6380 eV

 SCC (total)                   0 d,  0 h,  0 min,  0.200 sec
 SCC setup                      ...        0 min,  0.001 sec (  0.296%)
 Dispersion                     ...        0 min,  0.001 sec (  0.406%)
 classical contributions        ...        0 min,  0.000 sec (  0.130%)
 integral evaluation            ...        0 min,  0.011 sec (  5.665%)
 iterations                     ...        0 min,  0.095 sec ( 47.742%)
 molecular gradient             ...        0 min,  0.091 sec ( 45.602%)
 printout                       ...        0 min,  0.000 sec (  0.156%)

         :::::::::::::::::::::::::::::::::::::::::::::::::::::
         ::                     SUMMARY                     ::
         :::::::::::::::::::::::::::::::::::::::::::::::::::::
         :: total energy             -87.628319723775 Eh    ::
         :: gradient norm              0.107898365660 Eh/a0 ::
         :: HOMO-LUMO gap              1.834071942856 eV    ::
         ::.................................................::
         :: SCC energy               -88.735487239848 Eh    ::
         :: -> isotropic ES            0.080987800491 Eh    ::
         :: -> anisotropic ES          0.008378037391 Eh    ::
         :: -> anisotropic XC          0.041622959617 Eh    ::
         :: -> dispersion             -0.060851984822 Eh    ::
         :: repulsion energy           1.107167516072 Eh    ::
         :: add. restraining           0.000000000000 Eh    ::
         :: total charge              -0.000000000000 e     ::
         :::::::::::::::::::::::::::::::::::::::::::::::::::::

      ----------------------------------------------------------- 
     |                   =====================                   |
     |                        A N C O P T                        |
     |                   =====================                   |
     |               Approximate Normal Coordinate               |
     |                Rational Function Optimizer                |
      ----------------------------------------------------------- 
      ----------------------------------------------------------- 
     |                   =====================                   |
     |                        A N C O P T                        |
     |                   =====================                   |
     |               Approximate Normal Coordinate               |
     |                Rational Function Optimizer                |
      ----------------------------------------------------------- 

          ...................................................
          :                      SETUP                      :
          :.................................................:
          :   optimization level            normal          :
          :   max. optcycles                   200          :
          :   ANC micro-cycles                  20          :
          :   degrees of freedom               165          :
          :.................................................:
          :   RF solver                   davidson          :
          :   write xtbopt.log                true          :
          :   linear?                        false          :
          :   energy convergence         0.5000000E-05 Eh   :
          :   grad. convergence          0.1000000E-02 Eh/α :
          :   maxmium RF displ.          1.0000000          :
          :   Hlow (freq-cutoff)         0.1000000E-01      :
          :   Hmax (freq-cutoff)         5.0000000          :
          :   S6 in model hess.         20.0000000          :
          ...................................................

generating ANC from exact Hessian ...
Using Lindh-Hessian (1995)
 Shifting diagonal of input Hessian by    9.8630592162977336E-003
 Lowest  eigenvalues of input Hessian
    0.000000    0.000000    0.000000    0.000000    0.000000    0.010000
    0.000000    0.010034    0.010369    0.010390    0.010943    0.011260
    0.011775    0.012508    0.012889    0.014156    0.015761    0.016745
 Highest eigenvalues
    1.922273    1.941959    2.067901    2.167728    2.187176    2.331712


........................................................................
.............................. CYCLE    1 ..............................
........................................................................

 iter      E             dE          RMSdq      gap      omega  full diag
   1    -88.7354793 -0.887355E+02  0.134E-04    1.83       0.0  T
   2    -88.7354793 -0.208701E-09  0.901E-05    1.83     147.0  T
   3    -88.7354793 -0.161265E-09  0.544E-05    1.83     243.5  T
     SCC iter.                  ...        0 min,  0.012 sec
     gradient                   ...        0 min,  0.094 sec
 * total energy  :   -87.6283197 Eh     change       -0.2358931E-08 Eh
   gradient norm :     0.1078985 Eh/α   predicted     0.0000000E+00 (-100.00%)
   displ. norm   :     0.2995414 α      lambda       -0.1539330E-01
   maximum displ.:     0.0995478 α      in ANC's #55, #16, #29, ...

........................................................................
.............................. CYCLE    2 ..............................
........................................................................

 iter      E             dE          RMSdq      gap      omega  full diag
   1    -88.7725286 -0.887725E+02  0.187E-01    1.97       0.0  T
   2    -88.7726257 -0.971330E-04  0.109E-01    2.00       1.0  T
   3    -88.7725793  0.463589E-04  0.448E-02    2.01       1.0  T
   4    -88.7726386 -0.593072E-04  0.118E-02    2.00       1.1  T
   5    -88.7726452 -0.655665E-05  0.388E-03    2.01       3.4  T
   6    -88.7726456 -0.366503E-06  0.167E-03    2.01       7.9  T
   7    -88.7726456 -0.244869E-07  0.652E-04    2.00      20.3  T
   8    -88.7726456 -0.800071E-08  0.225E-04    2.00      58.8  T
     SCC iter.                  ...        0 min,  0.080 sec
     gradient                   ...        0 min,  0.094 sec
 * total energy  :   -87.6388294 Eh     change       -0.1050972E-01 Eh
   gradient norm :     0.0471992 Eh/α   predicted    -0.8391779E-02 ( -20.15%)
   displ. norm   :     0.2665227 α      lambda       -0.4537241E-02
   maximum displ.:     0.1082816 α      in ANC's #16, #8, #10, ...

........................................................................
.............................. CYCLE    3 ..............................
........................................................................

 iter      E             dE          RMSdq      gap      omega  full diag
   1    -88.7928205 -0.887928E+02  0.117E-01    2.07       0.0  T
   2    -88.7928736 -0.530714E-04  0.685E-02    2.08       1.0  T
   3    -88.7928444  0.292027E-04  0.410E-02    2.08       1.0  T
   4    -88.7928910 -0.466073E-04  0.820E-03    2.08       1.6  T
   5    -88.7928945 -0.354375E-05  0.225E-03    2.08       5.9  T
   6    -88.7928946 -0.111644E-06  0.950E-04    2.08      13.9  T
   7    -88.7928946 -0.110028E-07  0.402E-04    2.08      32.9  T
     SCC iter.                  ...        0 min,  0.025 sec
     gradient                   ...        0 min,  0.090 sec
 * total energy  :   -87.6415125 Eh     change       -0.2683093E-02 Eh
   gradient norm :     0.0159142 Eh/α   predicted    -0.2431255E-02 (  -9.39%)
   displ. norm   :     0.1854641 α      lambda       -0.7490547E-03
   maximum displ.:     0.0902964 α      in ANC's #16, #8, #10, ...

........................................................................
.............................. CYCLE    4 ..............................
........................................................................

 iter      E             dE          RMSdq      gap      omega  full diag
   1    -88.7951450 -0.887951E+02  0.488E-02    2.08       0.0  T
   2    -88.7951501 -0.512240E-05  0.279E-02    2.09       1.0  T
   3    -88.7951432  0.694518E-05  0.183E-02    2.09       1.0  T
   4    -88.7951543 -0.111109E-04  0.227E-03    2.09       5.8  T
   5    -88.7951545 -0.206958E-06  0.955E-04    2.09      13.9  T
   6    -88.7951545 -0.155176E-07  0.464E-04    2.09      28.6  T
     SCC iter.                  ...        0 min,  0.021 sec
     gradient                   ...        0 min,  0.091 sec
 * total energy  :   -87.6420627 Eh     change       -0.5501430E-03 Eh
   gradient norm :     0.0088651 Eh/α   predicted    -0.3874139E-03 ( -29.58%)
   displ. norm   :     0.2448620 α      lambda       -0.5452144E-03
   maximum displ.:     0.1330891 α      in ANC's #8, #16, #3, ...

........................................................................
.............................. CYCLE    5 ..............................
........................................................................

 iter      E             dE          RMSdq      gap      omega  full diag
   1    -88.7952863 -0.887953E+02  0.532E-02    2.07       0.0  T
   2    -88.7952893 -0.299850E-05  0.303E-02    2.07       1.0  T
   3    -88.7952805  0.882367E-05  0.163E-02    2.07       1.0  T
   4    -88.7952916 -0.111263E-04  0.186E-03    2.07       7.1  T
   5    -88.7952917 -0.969400E-07  0.934E-04    2.07      14.2  T
   6    -88.7952917 -0.745096E-08  0.414E-04    2.07      32.0  T
     SCC iter.                  ...        0 min,  0.021 sec
     gradient                   ...        0 min,  0.094 sec
 * total energy  :   -87.6424202 Eh     change       -0.3574950E-03 Eh
   gradient norm :     0.0056996 Eh/α   predicted    -0.2889539E-03 ( -19.17%)
   displ. norm   :     0.1807772 α      lambda       -0.2049702E-03
   maximum displ.:     0.1092309 α      in ANC's #8, #16, #3, ...

........................................................................
.............................. CYCLE    6 ..............................
........................................................................

 iter      E             dE          RMSdq      gap      omega  full diag
   1    -88.7953448 -0.887953E+02  0.322E-02    2.07       0.0  T
   2    -88.7953455 -0.705748E-06  0.189E-02    2.07       1.0  T
   3    -88.7953449  0.580504E-06  0.400E-03    2.07       3.3  T
   4    -88.7953457 -0.760382E-06  0.106E-03    2.07      12.5  T
   5    -88.7953457 -0.333607E-07  0.523E-04    2.07      25.3  T
   6    -88.7953457 -0.327600E-08  0.161E-04    2.07      82.2  T
     SCC iter.                  ...        0 min,  0.066 sec
     gradient                   ...        0 min,  0.092 sec
 * total energy  :   -87.6425729 Eh     change       -0.1526828E-03 Eh
   gradient norm :     0.0062612 Eh/α   predicted    -0.1058805E-03 ( -30.65%)
   displ. norm   :     0.2191427 α      lambda       -0.1947522E-03
   maximum displ.:     0.1314754 α      in ANC's #8, #3, #16, ...

........................................................................
.............................. CYCLE    7 ..............................
........................................................................

 iter      E             dE          RMSdq      gap      omega  full diag
   1    -88.7956755 -0.887957E+02  0.356E-02    2.06       0.0  T
   2    -88.7956766 -0.106947E-05  0.212E-02    2.06       1.0  T
   3    -88.7956742  0.240090E-05  0.751E-03    2.06       1.8  T
   4    -88.7956770 -0.288923E-05  0.127E-03    2.06      10.4  T
   5    -88.7956771 -0.442885E-07  0.587E-04    2.06      22.6  T
   6    -88.7956771 -0.510924E-08  0.242E-04    2.06      54.8  T
     SCC iter.                  ...        0 min,  0.021 sec
     gradient                   ...        0 min,  0.087 sec
 * total energy  :   -87.6427151 Eh     change       -0.1422579E-03 Eh
   gradient norm :     0.0057728 Eh/α   predicted    -0.1020530E-03 ( -28.26%)
   displ. norm   :     0.2217110 α      lambda       -0.1552995E-03
   maximum displ.:     0.1209602 α      in ANC's #8, #3, #14, ...

........................................................................
.............................. CYCLE    8 ..............................
........................................................................

 iter      E             dE          RMSdq      gap      omega  full diag
   1    -88.7962333 -0.887962E+02  0.338E-02    2.06       0.0  T
   2    -88.7962342 -0.932142E-06  0.200E-02    2.06       1.0  T
   3    -88.7962313  0.286638E-05  0.854E-03    2.06       1.6  T
   4    -88.7962348 -0.343662E-05  0.120E-03    2.06      11.0  T
   5    -88.7962348 -0.442796E-07  0.545E-04    2.06      24.3  T
   6    -88.7962348 -0.490134E-08  0.237E-04    2.06      55.9  T
     SCC iter.                  ...        0 min,  0.068 sec
     gradient                   ...        0 min,  0.099 sec
 * total energy  :   -87.6428316 Eh     change       -0.1164615E-03 Eh
   gradient norm :     0.0048283 Eh/α   predicted    -0.8146808E-04 ( -30.05%)
   displ. norm   :     0.2547102 α      lambda       -0.1585833E-03
   maximum displ.:     0.1251308 α      in ANC's #14, #3, #8, ...

........................................................................
.............................. CYCLE    9 ..............................
........................................................................

 iter      E             dE          RMSdq      gap      omega  full diag
   1    -88.7968312 -0.887968E+02  0.388E-02    2.07       0.0  T
   2    -88.7968323 -0.107212E-05  0.227E-02    2.07       1.0  T
   3    -88.7968299  0.239193E-05  0.786E-03    2.07       1.7  T
   4    -88.7968327 -0.278967E-05  0.140E-03    2.07       9.5  T
   5    -88.7968327 -0.772823E-07  0.537E-04    2.07      24.7  T
   6    -88.7968327 -0.209221E-08  0.254E-04    2.07      52.1  T
     SCC iter.                  ...        0 min,  0.021 sec
     gradient                   ...        0 min,  0.085 sec
 * total energy  :   -87.6429517 Eh     change       -0.1201654E-03 Eh
   gradient norm :     0.0050152 Eh/α   predicted    -0.8443856E-04 ( -29.73%)
   displ. norm   :     0.2837025 α      lambda       -0.1776308E-03
   maximum displ.:     0.1514891 α      in ANC's #14, #3, #8, ...

........................................................................
.............................. CYCLE   10 ..............................
........................................................................

 iter      E             dE          RMSdq      gap      omega  full diag
   1    -88.7973536 -0.887974E+02  0.453E-02    2.07       0.0  T
   2    -88.7973551 -0.149162E-05  0.265E-02    2.07       1.0  T
   3    -88.7973543  0.792730E-06  0.510E-03    2.07       2.6  T
   4    -88.7973553 -0.979289E-06  0.161E-03    2.07       8.2  T
   5    -88.7973554 -0.109644E-06  0.612E-04    2.07      21.7  T
   6    -88.7973554 -0.260708E-08  0.245E-04    2.07      54.0  T
     SCC iter.                  ...        0 min,  0.066 sec
     gradient                   ...        0 min,  0.100 sec
 * total energy  :   -87.6430887 Eh     change       -0.1369838E-03 Eh
   gradient norm :     0.0064882 Eh/α   predicted    -0.9597528E-04 ( -29.94%)
   displ. norm   :     0.3166080 α      lambda       -0.1999764E-03
   maximum displ.:     0.1734661 α      in ANC's #14, #3, #7, ...

........................................................................
.............................. CYCLE   11 ..............................
........................................................................

 iter      E             dE          RMSdq      gap      omega  full diag
   1    -88.7974302 -0.887974E+02  0.539E-02    2.08       0.0  T
   2    -88.7974322 -0.203315E-05  0.318E-02    2.08       1.0  T
   3    -88.7974308  0.142540E-05  0.604E-03    2.08       2.2  T
   4    -88.7974326 -0.182157E-05  0.173E-03    2.08       7.6  T
   5    -88.7974327 -0.102293E-06  0.763E-04    2.08      17.4  T
   6    -88.7974327 -0.373686E-08  0.350E-04    2.08      37.8  T
     SCC iter.                  ...        0 min,  0.021 sec
     gradient                   ...        0 min,  0.089 sec
 * total energy  :   -87.6432411 Eh     change       -0.1523675E-03 Eh
   gradient norm :     0.0075421 Eh/α   predicted    -0.1100166E-03 ( -27.80%)
   displ. norm   :     0.3332615 α      lambda       -0.1797344E-03
   maximum displ.:     0.1845020 α      in ANC's #14, #3, #1, ...

........................................................................
.............................. CYCLE   12 ..............................
........................................................................

 iter      E             dE          RMSdq      gap      omega  full diag
   1    -88.7965606 -0.887966E+02  0.577E-02    2.09       0.0  T
   2    -88.7965622 -0.159326E-05  0.340E-02    2.09       1.0  T
   3    -88.7965583  0.386472E-05  0.924E-03    2.09       1.4  T
   4    -88.7965629 -0.461014E-05  0.166E-03    2.09       8.0  T
   5    -88.7965630 -0.573532E-07  0.876E-04    2.09      15.1  T
   6    -88.7965630 -0.743624E-08  0.371E-04    2.09      35.7  T
     SCC iter.                  ...        0 min,  0.066 sec
     gradient                   ...        0 min,  0.094 sec
 * total energy  :   -87.6433753 Eh     change       -0.1341969E-03 Eh
   gradient norm :     0.0070644 Eh/α   predicted    -0.9984874E-04 ( -25.60%)
   displ. norm   :     0.2736238 α      lambda       -0.1591751E-03
   maximum displ.:     0.1542308 α      in ANC's #3, #14, #1, ...

........................................................................
.............................. CYCLE   13 ..............................
........................................................................

 iter      E             dE          RMSdq      gap      omega  full diag
   1    -88.7977235 -0.887977E+02  0.501E-02    2.09       0.0  T
   2    -88.7977252 -0.170707E-05  0.293E-02    2.09       1.0  T
   3    -88.7977217  0.353163E-05  0.950E-03    2.09       1.4  T
   4    -88.7977260 -0.424774E-05  0.177E-03    2.09       7.5  T
   5    -88.7977260 -0.909282E-07  0.826E-04    2.09      16.0  T
   6    -88.7977261 -0.519465E-08  0.391E-04    2.09      33.9  T
     SCC iter.                  ...        0 min,  0.022 sec
     gradient                   ...        0 min,  0.087 sec
 * total energy  :   -87.6434690 Eh     change       -0.9368356E-04 Eh
   gradient norm :     0.0050802 Eh/α   predicted    -0.8555032E-04 (  -8.68%)
   displ. norm   :     0.4873404 α      lambda       -0.1842717E-03
   maximum displ.:     0.2813607 α      in ANC's #14, #3, #1, ...

........................................................................
.............................. CYCLE   14 ..............................
........................................................................

 iter      E             dE          RMSdq      gap      omega  full diag
   1    -88.7916808 -0.887917E+02  0.831E-02    2.09       0.0  T
   2    -88.7916874 -0.662414E-05  0.484E-02    2.09       1.0  T
   3    -88.7916856  0.178320E-05  0.883E-03    2.09       1.5  T
   4    -88.7916881 -0.247552E-05  0.346E-03    2.09       3.8  T
   5    -88.7916886 -0.482922E-06  0.145E-03    2.09       9.1  T
   6    -88.7916886 -0.139078E-07  0.525E-04    2.09      25.2  T
   7    -88.7916886 -0.696022E-08  0.164E-04    2.09      80.8  T
     SCC iter.                  ...        0 min,  0.070 sec
     gradient                   ...        0 min,  0.094 sec
 * total energy  :   -87.6434408 Eh     change        0.2819171E-04 Eh
   gradient norm :     0.0105049 Eh/α   predicted    -0.1140205E-03 (-504.45%)
   displ. norm   :     0.2014834 α      lambda       -0.2690397E-03
   maximum displ.:     0.1135427 α      in ANC's #14, #3, #7, ...

........................................................................
.............................. CYCLE   15 ..............................
........................................................................

 iter      E             dE          RMSdq      gap      omega  full diag
   1    -88.7971283 -0.887971E+02  0.395E-02    2.09       0.0  T
   2    -88.7971322 -0.388093E-05  0.228E-02    2.09       1.0  T
   3    -88.7971309  0.134729E-05  0.712E-03    2.09       1.9  T
   4    -88.7971325 -0.164005E-05  0.246E-03    2.09       5.4  T
   5    -88.7971328 -0.267014E-06  0.822E-04    2.09      16.1  T
   6    -88.7971328 -0.404610E-08  0.425E-04    2.09      31.2  T
     SCC iter.                  ...        0 min,  0.021 sec
     gradient                   ...        0 min,  0.087 sec
 * total energy  :   -87.6435730 Eh     change       -0.1322005E-03 Eh
   gradient norm :     0.0027229 Eh/α   predicted    -0.1399812E-03 (   5.89%)
   displ. norm   :     0.0986352 α      lambda       -0.4083763E-04
   maximum displ.:     0.0547533 α      in ANC's #3, #14, #1, ...

........................................................................
.............................. CYCLE   16 ..............................
........................................................................

 iter      E             dE          RMSdq      gap      omega  full diag
   1    -88.7976234 -0.887976E+02  0.158E-02    2.09       0.0  T
   2    -88.7976236 -0.232626E-06  0.931E-03    2.09       1.4  T
   3    -88.7976234  0.268920E-06  0.264E-03    2.09       5.0  T
   4    -88.7976237 -0.337966E-06  0.555E-04    2.09      23.9  T
   5    -88.7976237 -0.815173E-08  0.253E-04    2.09      52.4  T
     SCC iter.                  ...        0 min,  0.061 sec
     gradient                   ...        0 min,  0.042 sec
 * total energy  :   -87.6436086 Eh     change       -0.3556798E-04 Eh
   gradient norm :     0.0023427 Eh/α   predicted    -0.2061842E-04 ( -42.03%)
   displ. norm   :     0.3425837 α      lambda       -0.1145703E-03
   maximum displ.:     0.1883744 α      in ANC's #3, #14, #1, ...

........................................................................
.............................. CYCLE   17 ..............................
........................................................................

 iter      E             dE          RMSdq      gap      omega  full diag
   1    -88.7973678 -0.887974E+02  0.536E-02    2.09       0.0  T
   2    -88.7973697 -0.186778E-05  0.315E-02    2.09       1.0  T
   3    -88.7973673  0.244381E-05  0.783E-03    2.09       1.7  T
   4    -88.7973704 -0.310257E-05  0.170E-03    2.09       7.8  T
   5    -88.7973704 -0.536949E-07  0.820E-04    2.09      16.1  T
   6    -88.7973704 -0.892213E-08  0.352E-04    2.09      37.6  T
     SCC iter.                  ...        0 min,  0.021 sec
     gradient                   ...        0 min,  0.088 sec
 * total energy  :   -87.6436839 Eh     change       -0.7532149E-04 Eh
   gradient norm :     0.0034168 Eh/α   predicted    -0.6401084E-04 ( -15.02%)
   displ. norm   :     0.1888223 α      lambda       -0.3683052E-04
   maximum displ.:     0.1011719 α      in ANC's #3, #14, #1, ...

........................................................................
.............................. CYCLE   18 ..............................
........................................................................

 iter      E             dE          RMSdq      gap      omega  full diag
   1    -88.7973005 -0.887973E+02  0.300E-02    2.09       0.0  T
   2    -88.7973009 -0.408496E-06  0.175E-02    2.09       1.0  T
   3    -88.7973008  0.809955E-07  0.221E-03    2.09       6.0  T
   4    -88.7973010 -0.188386E-06  0.896E-04    2.09      14.8  T
   5    -88.7973010 -0.176220E-07  0.399E-04    2.09      33.2  T
     SCC iter.                  ...        0 min,  0.019 sec
     gradient                   ...        0 min,  0.081 sec
 * total energy  :   -87.6437106 Eh     change       -0.2670513E-04 Eh
   gradient norm :     0.0031555 Eh/α   predicted    -0.1907285E-04 ( -28.58%)
   displ. norm   :     0.1531996 α      lambda       -0.3696692E-04
   maximum displ.:     0.0729570 α      in ANC's #3, #14, #1, ...

........................................................................
.............................. CYCLE   19 ..............................
........................................................................

 iter      E             dE          RMSdq      gap      omega  full diag
   1    -88.7982291 -0.887982E+02  0.273E-02    2.09       0.0  T
   2    -88.7982297 -0.606202E-06  0.159E-02    2.09       1.0  T
   3    -88.7982297  0.467729E-07  0.228E-03    2.09       5.8  T
   4    -88.7982298 -0.153367E-06  0.788E-04    2.09      16.8  T
   5    -88.7982298 -0.112985E-07  0.429E-04    2.09      30.9  T
     SCC iter.                  ...        0 min,  0.018 sec
     gradient                   ...        0 min,  0.082 sec
 * total energy  :   -87.6437352 Eh     change       -0.2466186E-04 Eh
   gradient norm :     0.0014891 Eh/α   predicted    -0.1891965E-04 ( -23.28%)
   displ. norm   :     0.1614437 α      lambda       -0.1733012E-04
   maximum displ.:     0.0673566 α      in ANC's #3, #14, #1, ...

........................................................................
.............................. CYCLE   20 ..............................
........................................................................

 iter      E             dE          RMSdq      gap      omega  full diag
   1    -88.7983902 -0.887984E+02  0.309E-02    2.09       0.0  T
   2    -88.7983913 -0.105899E-05  0.181E-02    2.09       1.0  T
   3    -88.7983909  0.382458E-06  0.388E-03    2.09       3.4  T
   4    -88.7983915 -0.556433E-06  0.114E-03    2.09      11.6  T
   5    -88.7983915 -0.399234E-07  0.489E-04    2.09      27.1  T
   6    -88.7983915 -0.857824E-09  0.199E-04    2.09      66.4  T
     SCC iter.                  ...        0 min,  0.022 sec
     gradient                   ...        0 min,  0.083 sec
 * total energy  :   -87.6437481 Eh     change       -0.1289341E-04 Eh
   gradient norm :     0.0017431 Eh/α   predicted    -0.8766518E-05 ( -32.01%)
   displ. norm   :     0.0518429 α      lambda       -0.9572021E-05
   maximum displ.:     0.0249426 α      in ANC's #6, #5, #14, ...
 * RMSD in coord.:     0.4280547 α      energy gain  -0.1542841E-01 Eh

generating ANC from exact Hessian ...
Using Lindh-Hessian (1995)
 Shifting diagonal of input Hessian by    9.8575130429506344E-003
 Lowest  eigenvalues of input Hessian
    0.000000    0.000000    0.000000    0.000000    0.000000    0.010000
    0.000000    0.010028    0.010360    0.010424    0.011018    0.011363
    0.011961    0.012694    0.013221    0.014448    0.016497    0.017233
 Highest eigenvalues
    1.980785    1.982380    2.084978    2.210331    2.225163    2.387228


........................................................................
.............................. CYCLE   21 ..............................
........................................................................

 iter      E             dE          RMSdq      gap      omega  full diag
   1    -88.7987855 -0.887988E+02  0.121E-02    2.09       0.0  T
   2    -88.7987857 -0.171423E-06  0.703E-03    2.09       1.9  T
   3    -88.7987856  0.833391E-07  0.166E-03    2.08       8.0  T
   4    -88.7987857 -0.110737E-06  0.506E-04    2.09      26.2  T
   5    -88.7987857 -0.889086E-08  0.214E-04    2.09      62.0  T
     SCC iter.                  ...        0 min,  0.057 sec
     gradient                   ...        0 min,  0.095 sec
 * total energy  :   -87.6437555 Eh     change       -0.7336048E-05 Eh
   gradient norm :     0.0018702 Eh/α   predicted     0.0000000E+00 (-100.00%)
   displ. norm   :     0.0296703 α      lambda       -0.8549091E-05
   maximum displ.:     0.0168307 α      in ANC's #2, #6, #5, ...

........................................................................
.............................. CYCLE   22 ..............................
........................................................................

 iter      E             dE          RMSdq      gap      omega  full diag
   1    -88.7982765 -0.887983E+02  0.621E-03    2.09       0.0  T
   2    -88.7982767 -0.188483E-06  0.356E-03    2.09       3.7  T
   3    -88.7982766  0.208233E-07  0.155E-03    2.09       8.5  T
   4    -88.7982767 -0.406877E-07  0.503E-04    2.09      26.3  T
   5    -88.7982767 -0.107478E-07  0.144E-04    2.09      91.9  T
     SCC iter.                  ...        0 min,  0.018 sec
     gradient                   ...        0 min,  0.076 sec
 * total energy  :   -87.6437655 Eh     change       -0.9993609E-05 Eh
   gradient norm :     0.0005969 Eh/α   predicted    -0.4694216E-05 ( -53.03%)
   displ. norm   :     0.0637815 α      lambda       -0.9764803E-05
   maximum displ.:     0.0356587 α      in ANC's #2, #6, #5, ...

........................................................................
.............................. CYCLE   23 ..............................
........................................................................

 iter      E             dE          RMSdq      gap      omega  full diag
   1    -88.7979646 -0.887980E+02  0.101E-02    2.08       0.0  T
   2    -88.7979648 -0.252659E-06  0.591E-03    2.08       2.2  T
   3    -88.7979648  0.551413E-07  0.179E-03    2.08       7.4  T
   4    -88.7979648 -0.797703E-07  0.499E-04    2.08      26.5  T
   5    -88.7979649 -0.115178E-07  0.169E-04    2.08      78.3  T
     SCC iter.                  ...        0 min,  0.018 sec
     gradient                   ...        0 min,  0.084 sec
 * total energy  :   -87.6437770 Eh     change       -0.1149733E-04 Eh
   gradient norm :     0.0012522 Eh/α   predicted    -0.4894588E-05 ( -57.43%)
   displ. norm   :     0.1212814 α      lambda       -0.1400792E-04
   maximum displ.:     0.0663934 α      in ANC's #2, #6, #5, ...

........................................................................
.............................. CYCLE   24 ..............................
........................................................................

 iter      E             dE          RMSdq      gap      omega  full diag
   1    -88.7976721 -0.887977E+02  0.184E-02    2.08       0.0  T
   2    -88.7976723 -0.249937E-06  0.107E-02    2.08       1.2  T
   3    -88.7976723  0.753881E-07  0.175E-03    2.08       7.6  T
   4    -88.7976724 -0.113540E-06  0.618E-04    2.08      21.4  T
   5    -88.7976724 -0.141475E-07  0.281E-04    2.08      47.1  T
     SCC iter.                  ...        0 min,  0.070 sec
     gradient                   ...        0 min,  0.043 sec
 * total energy  :   -87.6437934 Eh     change       -0.1647061E-04 Eh
   gradient norm :     0.0021506 Eh/α   predicted    -0.7093358E-05 ( -56.93%)
   displ. norm   :     0.1084245 α      lambda       -0.1600943E-04
   maximum displ.:     0.0603183 α      in ANC's #2, #6, #5, ...

........................................................................
.............................. CYCLE   25 ..............................
........................................................................

 iter      E             dE          RMSdq      gap      omega  full diag
   1    -88.7976005 -0.887976E+02  0.164E-02    2.08       0.0  T
   2    -88.7976006 -0.776159E-07  0.963E-03    2.08       1.4  T
   3    -88.7976005  0.538445E-07  0.133E-03    2.08      10.0  T
   4    -88.7976006 -0.858726E-07  0.424E-04    2.08      31.2  T
   5    -88.7976006 -0.230975E-08  0.188E-04    2.08      70.4  T
     SCC iter.                  ...        0 min,  0.051 sec
     gradient                   ...        0 min,  0.100 sec
 * total energy  :   -87.6438068 Eh     change       -0.1340039E-04 Eh
   gradient norm :     0.0021566 Eh/α   predicted    -0.8141390E-05 ( -39.25%)
   displ. norm   :     0.1567031 α      lambda       -0.2032897E-04
   maximum displ.:     0.0890767 α      in ANC's #2, #6, #5, ...

........................................................................
.............................. CYCLE   26 ..............................
........................................................................

 iter      E             dE          RMSdq      gap      omega  full diag
   1    -88.7976272 -0.887976E+02  0.233E-02    2.08       0.0  T
   2    -88.7976274 -0.197135E-06  0.137E-02    2.08       1.0  T
   3    -88.7976273  0.103975E-06  0.194E-03    2.08       6.8  T
   4    -88.7976275 -0.171302E-06  0.656E-04    2.08      20.2  T
   5    -88.7976275 -0.744981E-08  0.328E-04    2.08      40.4  T
     SCC iter.                  ...        0 min,  0.018 sec
     gradient                   ...        0 min,  0.064 sec
 * total energy  :   -87.6438220 Eh     change       -0.1519506E-04 Eh
   gradient norm :     0.0015962 Eh/α   predicted    -0.1041514E-04 ( -31.46%)
   displ. norm   :     0.1659160 α      lambda       -0.1128453E-04
   maximum displ.:     0.1004721 α      in ANC's #2, #6, #1, ...

........................................................................
.............................. CYCLE   27 ..............................
........................................................................

 iter      E             dE          RMSdq      gap      omega  full diag
   1    -88.7979483 -0.887979E+02  0.240E-02    2.08       0.0  T
   2    -88.7979487 -0.351049E-06  0.141E-02    2.08       1.0  T
   3    -88.7979486  0.867373E-07  0.208E-03    2.08       6.4  T
   4    -88.7979487 -0.166069E-06  0.709E-04    2.08      18.7  T
   5    -88.7979488 -0.101192E-07  0.352E-04    2.08      37.6  T
     SCC iter.                  ...        0 min,  0.018 sec
     gradient                   ...        0 min,  0.094 sec
 * total energy  :   -87.6438329 Eh     change       -0.1090569E-04 Eh
   gradient norm :     0.0006306 Eh/α   predicted    -0.5719908E-05 ( -47.55%)
   displ. norm   :     0.0496004 α      lambda       -0.4217150E-05
   maximum displ.:     0.0348645 α      in ANC's #2, #1, #13, ...

........................................................................
.............................. CYCLE   28 ..............................
........................................................................

 iter      E             dE          RMSdq      gap      omega  full diag
   1    -88.7984369 -0.887984E+02  0.656E-03    2.08       0.0  T
   2    -88.7984369 -0.629365E-07  0.383E-03    2.08       3.5  T
   3    -88.7984369  0.357350E-07  0.113E-03    2.08      11.7  T
   4    -88.7984370 -0.434205E-07  0.346E-04    2.08      38.3  T
   5    -88.7984370 -0.560104E-08  0.123E-04    2.08     107.9  T
     SCC iter.                  ...        0 min,  0.019 sec
     gradient                   ...        0 min,  0.066 sec
 * total energy  :   -87.6438381 Eh     change       -0.5125237E-05 Eh
   gradient norm :     0.0005223 Eh/α   predicted    -0.2117798E-05 ( -58.68%)
   displ. norm   :     0.0645820 α      lambda       -0.5625957E-05
   maximum displ.:     0.0424145 α      in ANC's #2, #1, #8, ...

........................................................................
.............................. CYCLE   29 ..............................
........................................................................

 iter      E             dE          RMSdq      gap      omega  full diag
   1    -88.7986336 -0.887986E+02  0.881E-03    2.08       0.0  T
   2    -88.7986337 -0.585061E-07  0.518E-03    2.08       2.6  T
   3    -88.7986335  0.103080E-06  0.159E-03    2.08       8.3  T
   4    -88.7986337 -0.120431E-06  0.354E-04    2.08      37.4  T
   5    -88.7986337 -0.497555E-08  0.133E-04    2.08      99.7  T
     SCC iter.                  ...        0 min,  0.018 sec
     gradient                   ...        0 min,  0.043 sec
 * total energy  :   -87.6438448 Eh     change       -0.6723054E-05 Eh
   gradient norm :     0.0008418 Eh/α   predicted    -0.2819028E-05 ( -58.07%)
   displ. norm   :     0.0751360 α      lambda       -0.5207699E-05
   maximum displ.:     0.0483557 α      in ANC's #2, #1, #8, ...

........................................................................
.............................. CYCLE   30 ..............................
........................................................................

 iter      E             dE          RMSdq      gap      omega  full diag
   1    -88.7986182 -0.887986E+02  0.105E-02    2.08       0.0  T
   2    -88.7986182 -0.445444E-07  0.618E-03    2.08       2.1  T
   3    -88.7986181  0.110766E-06  0.152E-03    2.08       8.7  T
   4    -88.7986182 -0.133102E-06  0.291E-04    2.08      45.5  T
   5    -88.7986182 -0.125723E-08  0.137E-04    2.08      96.5  T
     SCC iter.                  ...        0 min,  0.018 sec
     gradient                   ...        0 min,  0.094 sec
 * total energy  :   -87.6438508 Eh     change       -0.6014813E-05 Eh
   gradient norm :     0.0008753 Eh/α   predicted    -0.2610806E-05 ( -56.59%)
   displ. norm   :     0.0629730 α      lambda       -0.3547686E-05
   maximum displ.:     0.0423585 α      in ANC's #2, #1, #8, ...

........................................................................
.............................. CYCLE   31 ..............................
........................................................................

 iter      E             dE          RMSdq      gap      omega  full diag
   1    -88.7985117 -0.887985E+02  0.867E-03    2.08       0.0  T
   2    -88.7985117 -0.447384E-07  0.509E-03    2.08       2.6  T
   3    -88.7985117  0.301358E-07  0.871E-04    2.08      15.2  T
   4    -88.7985117 -0.407139E-07  0.284E-04    2.08      46.7  T
     SCC iter.                  ...        0 min,  0.015 sec
     gradient                   ...        0 min,  0.080 sec
 * total energy  :   -87.6438552 Eh     change       -0.4402671E-05 Eh
   gradient norm :     0.0006025 Eh/α   predicted    -0.1781867E-05 ( -59.53%)
   displ. norm   :     0.0548821 α      lambda       -0.3195287E-05
   maximum displ.:     0.0378714 α      in ANC's #2, #1, #8, ...

   *** GEOMETRY OPTIMIZATION CONVERGED AFTER 31 ITERATIONS ***

------------------------------------------------------------------------
 total energy gain   :        -0.0155355 Eh       -9.7487 kcal/mol
 total RMSD          :         0.4420906 a0        0.2339 Å
 total power (kW/mol):        -1.3157544 (step)   -9.2750 (real)
------------------------------------------------------------------------

 ANCopt (total)                0 d,  0 h,  0 min,  4.398 sec
 optimizer setup                ...        0 min,  0.000 sec (  0.002%)
 model hessian                  ...        0 min,  0.101 sec (  2.293%)
 ANC generation                 ...        0 min,  0.006 sec (  0.135%)
 coordinate transformation      ...        0 min,  0.001 sec (  0.014%)
 single point calculation       ...        0 min,  4.278 sec ( 97.288%)
 optimization log               ...        0 min,  0.007 sec (  0.160%)
 hessian update                 ...        0 min,  0.001 sec (  0.017%)
 rational function              ...        0 min,  0.003 sec (  0.062%)

================
 final structure:
================
57
 xtb: 6.7.1 (edcfbbe)
O           -2.83170073206466       -2.45811118112322        0.01022113387507
C           -3.26233729231063       -1.52895952619148        0.67222654468449
C           -2.47165601023738       -0.49653036689623        1.30255433848487
C           -0.99078621940875       -0.58578021835313        1.08677053938866
C           -0.62742930240933        0.04782236380471       -0.26359978774691
N            0.80821437353719        0.17898794267577       -0.44118559173971
C            1.12794950225814        1.12817233117790       -1.49321309339770
C            2.63176655843139        1.37200585235795       -1.55372957071527
C            3.35704878215818        0.05242105896253       -1.82999224566537
C            2.95866367564351       -0.95178338636701       -0.74549067896448
C            1.44154601466503       -1.10024261027520       -0.71497600300651
C            4.83088975133384        0.24448435999770       -1.89215440826467
N            5.49140809208800       -0.02544247388961       -2.97634529928240
O            6.81973957774838        0.23989820640243       -2.78199692818089
C            6.97916051090468        0.69147577748767       -1.52795550278229
C            5.72871755130616        0.72474831295371       -0.87736914456040
C            5.64530444756582        1.16281780342447        0.44387522052815
C            6.80398625769403        1.55372596742763        1.07313597470210
C            8.02452237474560        1.50780882321307        0.39450266240410
F            9.12733654605245        1.90346955661154        1.05798655139151
C            8.15803110033173        1.08245738896315       -0.90853354589539
C           -3.09002904154712        0.50507616172086        1.99452648271034
N           -4.44259378238826        0.56094629024451        2.13273247631507
C           -5.15849908102177       -0.36353860818818        1.58626946384283
N           -4.64108489199988       -1.39345389180328        0.88068726897423
C           -5.55822520030499       -2.32090273662850        0.25536613873183
C           -6.59466563189272       -1.53237232012902       -0.54203719114318
C           -7.32686289515751       -0.51426340895848        0.34940606620714
C           -6.64554049174538       -0.35557708081553        1.71749730907498
C           -2.34955746452080        1.62005962968839        2.66370651619274
H           -0.71855468947299       -1.64178351198138        1.07872724768052
H           -0.44235350223239       -0.07781187504403        1.87852435652319
H           -1.05913833668455        1.05268603907696       -0.29876635652416
H           -1.08778484363622       -0.54605510567069       -1.07085559380828
H            0.61898551980989        2.07044163790166       -1.27209672388371
H            0.77502206349932        0.77307829092404       -2.47937198175317
H            2.85410326032817        2.09698679311138       -2.33859328978925
H            2.96270207523799        1.78224354366617       -0.59936418026605
H            3.04137892873105       -0.33143559313107       -2.80589243249100
H            3.30051539590188       -0.59954914895539        0.22798955337042
H            3.41722426403958       -1.92197620391435       -0.94317619673989
H            1.09216289081400       -1.51845058532849       -1.67678923988595
H            1.16676867972258       -1.79955411482759        0.07526779536253
H            4.70134323001705        1.19643973077376        0.96325498374772
H            6.79574112619731        1.90093201802178        2.09401739632645
H            9.11112328645810        1.05689750893825       -1.40786406026536
H           -6.04281958130466       -2.93269824770745        1.02318878435241
H           -4.96242585084446       -2.97081239260286       -0.39038316436704
H           -7.29951686034232       -2.22882117896560       -0.99528509782580
H           -6.07546342354922       -1.01318912526788       -1.34952190415728
H           -7.34816858882874        0.45594378607833       -0.14746255614729
H           -8.36042533212423       -0.82178130765908        0.51116971852568
H           -6.95114731806745        0.57001074129053        2.20221545444903
H           -6.93163791561882       -1.18951239907037        2.36475251338565
H           -1.71934876708493        1.23082519628631        3.46157432489991
H           -1.71311157939595        2.14265019394180        1.95348479808765
H           -3.06829121102828        2.31507529262771        3.08717015503441

 Bond Distances (Angstroems)
 ---------------------------
O1-C2=1.2194         C2-O1=1.2194         C2-C3=1.4451         C2-N25=1.4010        C3-C2=1.4451         C3-C4=1.4992         
C3-C22=1.3654        C4-C3=1.4992         C4-C5=1.5352         C4-H31=1.0906        C4-H32=1.0889        C5-C4=1.5352         
C5-N6=1.4525         C5-H33=1.0942        C5-H34=1.1029        N6-C5=1.4525         N6-C7=1.4526         N6-C11=1.4534        
C7-N6=1.4526         C7-C8=1.5247         C7-H35=1.0935        C7-H36=1.1060        C8-C7=1.5247         C8-C9=1.5309         
C8-H37=1.0913        C8-H38=1.0902        C9-C8=1.5309         C9-C10=1.5308        C9-C12=1.4876        C9-H39=1.0952        
C10-C9=1.5308        C10-C11=1.5247       C10-H40=1.0902       C10-H41=1.0912       C11-N6=1.4534        C11-C10=1.5247       
C11-H42=1.1055       C11-H43=1.0904       C12-C9=1.4876        C12-N13=1.2979       C12-C16=1.4375       N13-C12=1.2979       
N13-O14=1.3684       O14-N13=1.3684       O14-C15=1.3424       C15-O14=1.3424       C15-C16=1.4100       C15-C21=1.3879       
C16-C12=1.4375       C16-C15=1.4100       C16-C17=1.3945       C17-C16=1.3945       C17-C18=1.3753       C17-H44=1.0779       
C18-C17=1.3753       C18-C19=1.3973       C18-H45=1.0783       C19-C18=1.3973       C19-F20=1.3465       C19-C21=1.3772       
F20-C19=1.3465       C21-C15=1.3879       C21-C19=1.3772       C21-H46=1.0763       C22-C3=1.3654        C22-N23=1.3608       
C22-C30=1.4964       N23-C22=1.3608       N23-C24=1.2907       C24-N23=1.2907       C24-N25=1.3514       C24-C29=1.4928       
N25-C2=1.4010        N25-C24=1.3514       N25-C26=1.4465       C26-N25=1.4465       C26-C27=1.5270       C26-H47=1.0948       
C26-H48=1.0929       C27-C26=1.5270       C27-C28=1.5386       C27-H49=1.0896       C27-H50=1.0914       C28-C27=1.5386       
C28-C29=1.5366       C28-H51=1.0902       C28-H52=1.0904       C29-C24=1.4928       C29-C28=1.5366       C29-H53=1.0886       
C29-H54=1.0937       C30-C22=1.4964       C30-H55=1.0887       C30-H56=1.0875       C30-H57=1.0858       H31-C4=1.0906        
H32-C4=1.0889        H33-C5=1.0942        H34-C5=1.1029        H35-C7=1.0935        H36-C7=1.1060        H37-C8=1.0913        
H38-C8=1.0902        H39-C9=1.0952        H40-C10=1.0902       H41-C10=1.0912       H42-C11=1.1055       H43-C11=1.0904       
H44-C17=1.0779       H45-C18=1.0783       H46-C21=1.0763       H47-C26=1.0948       H48-C26=1.0929       H49-C27=1.0896       
H50-C27=1.0914       H51-C28=1.0902       H52-C28=1.0904       H53-C29=1.0886       H54-C29=1.0937       H55-C30=1.0887       
H56-C30=1.0875       H57-C30=1.0858       
 C  H  Rav=1.0910 sigma=0.0068  Rmin=1.0763  Rmax=1.1060    27
 C  C  Rav=1.4674 sigma=0.0632  Rmin=1.3654  Rmax=1.5386    21
 N  C  Rav=1.3896 sigma=0.0631  Rmin=1.2907  Rmax=1.4534     9
 O  C  Rav=1.2809 sigma=0.0615  Rmin=1.2194  Rmax=1.3424     2
 O  N  Rav=1.3684 sigma=0.0000  Rmin=1.3684  Rmax=1.3684     1
 F  C  Rav=1.3465 sigma=0.0000  Rmin=1.3465  Rmax=1.3465     1

 selected bond angles (degree)
 --------------------
C3-C2-O1=126.01                N25-C2-O1=120.13               N25-C2-C3=113.86               C4-C3-C2=115.79                
C22-C3-C2=119.82               C22-C3-C4=124.33               C5-C4-C3=109.62                H31-C4-C3=107.78               
H31-C4-C5=109.52               H32-C4-C3=111.41               H32-C4-C5=109.14               H32-C4-H31=109.35              
N6-C5-C4=112.26                H33-C5-C4=108.29               H33-C5-N6=107.64               H34-C5-C4=108.83               
H34-C5-N6=111.82               H34-C5-H33=107.84              C7-N6-C5=111.41                C11-N6-C5=111.98               
C11-N6-C7=110.05               C8-C7-N6=110.51                H35-C7-N6=108.31               H35-C7-C8=109.23               
H36-C7-N6=111.45               H36-C7-C8=109.31               H36-C7-H35=107.96              C9-C8-C7=109.67                
H37-C8-C7=109.62               H37-C8-C9=110.26               H38-C8-C7=108.96               H38-C8-C9=109.79               
H38-C8-H37=108.53              C10-C9-C8=108.32               C12-C9-C8=111.45               C12-C9-C10=111.85              
H39-C9-C8=109.05               H39-C9-C10=109.05              H39-C9-C12=107.07              C11-C10-C9=109.70              
H40-C10-C9=109.82              H40-C10-C11=109.00             H41-C10-C9=110.22              H41-C10-C11=109.59             
H41-C10-H40=108.50             

 selected dihedral angles (degree)
 ---------------------------------
C4-C3-C2-O1=  1.15            C4-C3-C2-N25=181.05           C22-C3-C2-O1=178.62           C22-C3-C2-N25=358.52          
C5-C4-C3-C2= 82.86            C5-C4-C3-C22=265.52           H31-C4-C3-C2=323.73           H31-C4-C3-C22=146.39          
H32-C4-C3-C2=203.77           H32-C4-C3-C22= 26.42          N6-C5-C4-C3=171.14            N6-C5-C4-H31=289.19           
N6-C5-C4-H32= 48.86           H33-C5-C4-C3= 52.44           H33-C5-C4-H31=170.49          H33-C5-C4-H32=290.17          
H34-C5-C4-C3=295.47           H34-C5-C4-H31= 53.51          H34-C5-C4-H32=173.19          C7-N6-C5-C4=197.76            
C7-N6-C5-H33=316.84           C7-N6-C5-H34= 75.11           C11-N6-C5-C4= 74.03           C11-N6-C5-H33=193.11          
C11-N6-C5-H34=311.38          C8-C7-N6-C5=173.44            C8-C7-N6-C11=298.26           H35-C7-N6-C5= 53.83           
H35-C7-N6-C11=178.65          H36-C7-N6-C5=295.20           H36-C7-N6-C11= 60.02          C9-C8-C7-N6= 59.61            
C9-C8-C7-H35=178.67           C9-C8-C7-H36=296.59           H37-C8-C7-N6=180.79           H37-C8-C7-H35=299.85          
H37-C8-C7-H36= 57.78          H38-C8-C7-N6=299.42           H38-C8-C7-H35= 58.48          H38-C8-C7-H36=176.40          
C10-C9-C8-C7=303.66           C10-C9-C8-H37=182.87          C10-C9-C8-H38= 63.35          C12-C9-C8-C7=180.21           
C12-C9-C8-H37= 59.41          C12-C9-C8-H38=299.89          H39-C9-C8-C7= 62.22           H39-C9-C8-H37=301.42          
H39-C9-C8-H38=181.90          C11-C10-C9-C8= 56.21          C11-C10-C9-C12=179.42         C11-C10-C9-H39=297.66         
H40-C10-C9-C8=296.44          H40-C10-C9-C12= 59.65         H40-C10-C9-H39=177.88         H41-C10-C9-C8=176.96          
H41-C10-C9-C12=300.17         H41-C10-C9-H39= 58.40         
           -------------------------------------------------
          |                Final Singlepoint                |
           -------------------------------------------------

          ...................................................
          :                      SETUP                      :
          :.................................................:
          :  # basis functions                 147          :
          :  # atomic orbitals                 147          :
          :  # shells                           87          :
          :  # electrons                       158          :
          :  max. iterations                   250          :
          :  Hamiltonian                  GFN2-xTB          :
          :  restarted?                      false          :
          :  GBSA solvation                  false          :
          :  PC potential                    false          :
          :  electronic temp.          300.0000000     K    :
          :  accuracy                    1.0000000          :
          :  -> integral cutoff          0.2500000E+02      :
          :  -> integral neglect         0.1000000E-07      :
          :  -> SCF convergence          0.1000000E-05 Eh   :
          :  -> wf. convergence          0.1000000E-03 e    :
          :  Broyden damping             0.4000000          :
          :  net charge                          0          :
          :  unpaired electrons                  0          :
          ...................................................

 iter      E             dE          RMSdq      gap      omega  full diag
   1    -88.7985117 -0.887985E+02  0.124E-04    2.08       0.0  T
   2    -88.7985117 -0.800497E-10  0.770E-05    2.08     172.0  T
   3    -88.7985117 -0.319318E-10  0.494E-05    2.08     267.9  T

   *** convergence criteria satisfied after 3 iterations ***

         #    Occupation            Energy/Eh            Energy/eV
      -------------------------------------------------------------
         1        2.0000           -0.8256316             -22.4666
       ...           ...                  ...                  ...
        73        2.0000           -0.4208608             -11.4522
        74        2.0000           -0.4110480             -11.1852
        75        2.0000           -0.4101424             -11.1605
        76        2.0000           -0.3925627             -10.6822
        77        2.0000           -0.3854445             -10.4885
        78        2.0000           -0.3826087             -10.4113
        79        2.0000           -0.3520066              -9.5786 (HOMO)
        80                         -0.2757246              -7.5028 (LUMO)
        81                         -0.2560633              -6.9678
        82                         -0.2389556              -6.5023
        83                         -0.2247011              -6.1144
        84                         -0.2017999              -5.4913
       ...                                ...                  ...
       147                          0.6867806              18.6883
      -------------------------------------------------------------
                  HL-Gap            0.0762820 Eh            2.0757 eV
             Fermi-level           -0.3138656 Eh           -8.5407 eV

 SCC (total)                   0 d,  0 h,  0 min,  0.120 sec
 SCC setup                      ...        0 min,  0.001 sec (  0.424%)
 Dispersion                     ...        0 min,  0.001 sec (  0.467%)
 classical contributions        ...        0 min,  0.000 sec (  0.212%)
 integral evaluation            ...        0 min,  0.011 sec (  9.067%)
 iterations                     ...        0 min,  0.065 sec ( 54.355%)
 molecular gradient             ...        0 min,  0.042 sec ( 35.228%)
 printout                       ...        0 min,  0.000 sec (  0.241%)

         :::::::::::::::::::::::::::::::::::::::::::::::::::::
         ::                     SUMMARY                     ::
         :::::::::::::::::::::::::::::::::::::::::::::::::::::
         :: total energy             -87.643855202306 Eh    ::
         :: gradient norm              0.000602332129 Eh/a0 ::
         :: HOMO-LUMO gap              2.075739376197 eV    ::
         ::.................................................::
         :: SCC energy               -88.798466859447 Eh    ::
         :: -> isotropic ES            0.080551155587 Eh    ::
         :: -> anisotropic ES          0.006578100737 Eh    ::
         :: -> anisotropic XC          0.041334350637 Eh    ::
         :: -> dispersion             -0.061713579751 Eh    ::
         :: repulsion energy           1.154611657141 Eh    ::
         :: add. restraining           0.000000000000 Eh    ::
         :: total charge              -0.000000000000 e     ::
         :::::::::::::::::::::::::::::::::::::::::::::::::::::

           -------------------------------------------------
          |                Property Printout                |
           -------------------------------------------------

    * Orbital Energies and Occupations

         #    Occupation            Energy/Eh            Energy/eV
      -------------------------------------------------------------
         1        2.0000           -0.8256316             -22.4666
       ...           ...                  ...                  ...
        67        2.0000           -0.4417309             -12.0201
        68        2.0000           -0.4386902             -11.9374
        69        2.0000           -0.4346731             -11.8281
        70        2.0000           -0.4317740             -11.7492
        71        2.0000           -0.4296830             -11.6923
        72        2.0000           -0.4236039             -11.5268
        73        2.0000           -0.4208608             -11.4522
        74        2.0000           -0.4110480             -11.1852
        75        2.0000           -0.4101424             -11.1605
        76        2.0000           -0.3925627             -10.6822
        77        2.0000           -0.3854445             -10.4885
        78        2.0000           -0.3826087             -10.4113
        79        2.0000           -0.3520066              -9.5786 (HOMO)
        80                         -0.2757246              -7.5028 (LUMO)
        81                         -0.2560633              -6.9678
        82                         -0.2389556              -6.5023
        83                         -0.2247011              -6.1144
        84                         -0.2017999              -5.4913
        85                         -0.1229975              -3.3469
        86                         -0.1074211              -2.9231
        87                         -0.0388659              -1.0576
        88                         -0.0037554              -0.1022
        89                          0.0240837               0.6554
        90                          0.0434975               1.1836
       ...                                ...                  ...
       147                          0.6867806              18.6883
      -------------------------------------------------------------
                  HL-Gap            0.0762820 Eh            2.0757 eV
             Fermi-level           -0.3138656 Eh           -8.5407 eV

     #   Z          covCN         q      C6AA      α(0)
     1   8 O        0.858    -0.461    22.932     6.420
     2   6 C        2.781     0.258    22.655     7.796
     3   6 C        2.961    -0.058    29.431     8.898
     4   6 C        3.808    -0.061    21.670     6.626
     5   6 C        3.765     0.017    20.322     6.425
     6   7 N        2.729    -0.183    24.953     7.419
     7   6 C        3.771     0.015    20.350     6.428
     8   6 C        3.811    -0.060    21.643     6.622
     9   6 C        3.863    -0.021    20.904     6.502
    10   6 C        3.811    -0.060    21.653     6.624
    11   6 C        3.769     0.012    20.404     6.437
    12   6 C        3.013     0.079    26.212     8.398
    13   7 N        1.960    -0.130    24.582     7.352
    14   8 O        1.801    -0.137    16.349     5.460
    15   6 C        3.056     0.135    24.997     8.199
    16   6 C        3.027    -0.031    28.755     8.796
    17   6 C        2.914    -0.029    28.729     8.789
    18   6 C        2.920    -0.056    29.379     8.888
    19   6 C        2.797     0.172    24.284     8.073
    20   9 F        0.788    -0.215    11.394     3.987
    21   6 C        2.905    -0.072    29.792     8.950
    22   6 C        2.948     0.093    25.932     8.352
    23   7 N        1.845    -0.280    28.122     7.859
    24   6 C        2.901     0.160    24.534     8.121
    25   7 N        2.753    -0.072    22.644     7.068
    26   6 C        3.756     0.001    20.615     6.474
    27   6 C        3.804    -0.064    21.722     6.635
    28   6 C        3.803    -0.059    21.628     6.621
    29   6 C        3.812    -0.074    21.896     6.660
    30   6 C        3.760    -0.118    22.807     6.808
    31   1 H        0.924     0.058     2.220     2.330
    32   1 H        0.925     0.049     2.337     2.391
    33   1 H        0.924     0.026     2.647     2.544
    34   1 H        0.923     0.019     2.756     2.596
    35   1 H        0.924     0.031     2.567     2.506
    36   1 H        0.922     0.009     2.907     2.666
    37   1 H        0.924     0.036     2.502     2.474
    38   1 H        0.924     0.047     2.355     2.400
    39   1 H        0.924     0.056     2.243     2.342
    40   1 H        0.924     0.046     2.366     2.405
    41   1 H        0.924     0.037     2.487     2.466
    42   1 H        0.922     0.013     2.845     2.638
    43   1 H        0.924     0.043     2.412     2.429
    44   1 H        0.926     0.055     2.255     2.348
    45   1 H        0.926     0.066     2.133     2.284
    46   1 H        0.926     0.077     2.012     2.218
    47   1 H        0.924     0.050     2.317     2.380
    48   1 H        0.924     0.085     1.924     2.169
    49   1 H        0.925     0.048     2.343     2.393
    50   1 H        0.924     0.046     2.375     2.410
    51   1 H        0.924     0.045     2.381     2.413
    52   1 H        0.924     0.045     2.389     2.417
    53   1 H        0.925     0.070     2.091     2.261
    54   1 H        0.924     0.059     2.214     2.327
    55   1 H        0.925     0.056     2.243     2.342
    56   1 H        0.925     0.057     2.238     2.339
    57   1 H        0.925     0.067     2.119     2.276

 Mol. C6AA /au·bohr⁶  :      34397.225933
 Mol. C8AA /au·bohr⁸  :     798182.876748
 Mol. α(0) /au        :        282.457626


Wiberg/Mayer (AO) data.
largest (>0.10) Wiberg bond orders for each atom

 ---------------------------------------------------------------------------
     #   Z sym  total        # sym  WBO       # sym  WBO       # sym  WBO
 ---------------------------------------------------------------------------
     1   8 O    1.987 --     2 C    1.634    25 N    0.138
     2   6 C    3.951 --     1 O    1.634     3 C    1.126    25 N    1.073
     3   6 C    3.983 --    22 C    1.555     2 C    1.126     4 C    1.014
     4   6 C    3.994 --     3 C    1.014     5 C    0.980    32 H    0.971
                            31 H    0.964
     5   6 C    3.985 --     6 N    1.001     4 C    0.980    33 H    0.972
                            34 H    0.965
     6   7 N    3.118 --     7 C    1.004    11 C    1.004     5 C    1.001
     7   6 C    3.987 --     6 N    1.004     8 C    1.003    35 H    0.971
                            36 H    0.963
     8   6 C    3.996 --     7 C    1.003     9 C    0.979    37 H    0.977
                            38 H    0.974
     9   6 C    3.993 --    12 C    1.007    10 C    0.980     8 C    0.979
                            39 H    0.962
    10   6 C    3.996 --    11 C    1.004     9 C    0.980    41 H    0.977
                            40 H    0.974
    11   6 C    3.986 --    10 C    1.004     6 N    1.004    43 H    0.968
                            42 H    0.962
    12   6 C    3.974 --    13 N    1.641    16 C    1.166     9 C    1.007
    13   7 N    2.953 --    12 C    1.641    14 O    1.058
    14   8 O    2.413 --    15 C    1.127    13 N    1.058
    15   6 C    3.937 --    21 C    1.330    16 C    1.277    14 O    1.127
    16   6 C    3.983 --    17 C    1.328    15 C    1.277    12 C    1.166
    17   6 C    3.990 --    18 C    1.511    16 C    1.328    44 H    0.964
                            21 C    0.115
    18   6 C    3.987 --    17 C    1.511    19 C    1.332    45 H    0.966
    19   6 C    3.889 --    21 C    1.449    18 C    1.332    20 F    0.968
    20   9 F    1.097 --    19 C    0.968
    21   6 C    3.984 --    19 C    1.449    15 C    1.330    46 H    0.962
                            17 C    0.115
    22   6 C    3.977 --     3 C    1.555    23 N    1.227    30 C    1.025
    23   7 N    3.047 --    24 C    1.542    22 C    1.227
    24   6 C    3.963 --    23 N    1.542    25 N    1.234    29 C    1.012
    25   7 N    3.614 --    24 C    1.234     2 C    1.073    26 C    0.980
                             1 O    0.138
    26   6 C    3.962 --    27 C    0.998    25 N    0.980    48 H    0.962
                            47 H    0.962
    27   6 C    3.995 --    28 C    1.003    26 C    0.998    50 H    0.980
                            49 H    0.977
    28   6 C    3.995 --    27 C    1.003    29 C    0.990    51 H    0.981
                            52 H    0.980
    29   6 C    3.993 --    24 C    1.012    28 C    0.990    53 H    0.973
                            54 H    0.952
    30   6 C    3.994 --    22 C    1.025    57 H    0.983    56 H    0.969
                            55 H    0.965
    31   1 H    0.996 --     4 C    0.964
    32   1 H    0.997 --     4 C    0.971
    33   1 H    0.999 --     5 C    0.972
    34   1 H    1.000 --     5 C    0.965
    35   1 H    0.998 --     7 C    0.971
    36   1 H    1.000 --     7 C    0.963
    37   1 H    0.998 --     8 C    0.977
    38   1 H    0.998 --     8 C    0.974
    39   1 H    0.996 --     9 C    0.962
    40   1 H    0.998 --    10 C    0.974
    41   1 H    0.998 --    10 C    0.977
    42   1 H    1.000 --    11 C    0.962
    43   1 H    0.997 --    11 C    0.968
    44   1 H    0.997 --    17 C    0.964
    45   1 H    0.995 --    18 C    0.966
    46   1 H    0.994 --    21 C    0.962
    47   1 H    0.997 --    26 C    0.962
    48   1 H    0.993 --    26 C    0.962
    49   1 H    0.997 --    27 C    0.977
    50   1 H    0.998 --    27 C    0.980
    51   1 H    0.998 --    28 C    0.981
    52   1 H    0.997 --    28 C    0.980
    53   1 H    0.995 --    29 C    0.973
    54   1 H    0.996 --    29 C    0.952
    55   1 H    0.996 --    30 C    0.965
    56   1 H    0.996 --    30 C    0.969
    57   1 H    0.995 --    30 C    0.983
 ---------------------------------------------------------------------------

Topologies differ in total number of bonds
Writing topology from bond orders to xtbtopo.mol

molecular dipole:
                 x           y           z       tot (Debye)
 q only:       -2.398       0.578       0.821
   full:       -2.404       0.421       0.776       6.509
molecular quadrupole (traceless):
                xx          xy          yy          xz          yz          zz
 q only:        5.264      -1.152      -2.651       2.548      -2.149      -2.613
  q+dip:        5.839       3.832      -1.946       6.713      -4.541      -3.893
   full:        5.388       3.365      -0.442       7.390      -7.559      -4.946

           -------------------------------------------------
          |                Geometry Summary                 |
           -------------------------------------------------

      molecular mass/u    :      410.4853518
   center of mass at/Å    :        0.8223741       0.0329960      -0.0302906
  moments of inertia/u·Å² :        0.1044341E+04   0.1137952E+05   0.1196638E+05
rotational constants/cm⁻¹ :        0.1614189E-01   0.1481400E-02   0.1408750E-02

 * 56 selected distances

     #   Z          #   Z                                           value/Å
     1   8 O        2   6 C                                       1.2194351
     4   6 C        5   6 C                                       1.5352462
     5   6 C        6   7 N                                       1.4525200
     6   7 N        7   6 C                                       1.4525646
     7   6 C        8   6 C                                       1.5246584
     8   6 C        9   6 C                                       1.5309016
     9   6 C       10   6 C                                       1.5307780
     6   7 N       11   6 C                                       1.4534447
    10   6 C       11   6 C                                       1.5246697
     9   6 C       12   6 C                                       1.4876021
    12   6 C       13   7 N                                       1.2979273
    13   7 N       14   8 O                                       1.3684450
    14   8 O       15   6 C                                       1.3423701
    12   6 C       16   6 C                                       1.4375457
    15   6 C       16   6 C                                       1.4099566
    16   6 C       17   6 C                                       1.3944711
    17   6 C       18   6 C                                       1.3752535
    18   6 C       19   6 C                                       1.3972689
    15   6 C       21   6 C                                       1.3879072
    19   6 C       21   6 C                                       1.3771899
     3   6 C       22   6 C                                       1.3654401
    22   6 C       23   7 N                                       1.3607550
    23   7 N       24   6 C                                       1.2906645
     2   6 C       25   7 N                                       1.4009864
    24   6 C       25   7 N                                       1.3514028
    25   7 N       26   6 C                                       1.4464904
    26   6 C       27   6 C                                       1.5270368
    27   6 C       28   6 C                                       1.5386130 (max)
    28   6 C       29   6 C                                       1.5365727
     4   6 C       31   1 H                                       1.0905585
     4   6 C       32   1 H                                       1.0888915
     5   6 C       33   1 H                                       1.0942397
     5   6 C       34   1 H                                       1.1028508
     7   6 C       35   1 H                                       1.0935303
     7   6 C       36   1 H                                       1.1059653
     8   6 C       37   1 H                                       1.0913488
     8   6 C       38   1 H                                       1.0902416
     9   6 C       39   1 H                                       1.0951597
    10   6 C       40   1 H                                       1.0902273
    10   6 C       41   1 H                                       1.0911607
    11   6 C       42   1 H                                       1.1054643
    11   6 C       43   1 H                                       1.0904241
    17   6 C       44   1 H                                       1.0779373
    18   6 C       45   1 H                                       1.0783409
    21   6 C       46   1 H                                       1.0762756 (min)
    26   6 C       47   1 H                                       1.0948412
    26   6 C       48   1 H                                       1.0928640
    27   6 C       49   1 H                                       1.0896284
    27   6 C       50   1 H                                       1.0914000
    28   6 C       51   1 H                                       1.0902452
    28   6 C       52   1 H                                       1.0904065
    29   6 C       53   1 H                                       1.0886047
    29   6 C       54   1 H                                       1.0937273
    30   6 C       55   1 H                                       1.0886963
    30   6 C       56   1 H                                       1.0874647
[...]
   J. Stückrath, T. Rose, and J. Unsleber
   
 * started run on 2025/05/15 at 16:24:16.543     
   ID    Z sym.   atoms
    1    8 O      1, 14
    2    6 C      2-5, 7-12, 15-19, 21, 22, 24, 26-30
    3    7 N      6, 13, 23, 25
    4    9 F      20
    5    1 H      31-57

           -------------------------------------------------
          |                Calculation Setup                |
           -------------------------------------------------

          program call               : xtb /rds/general/user/hgt20/home/callum/QDESCP/Risperidone_rdkit_conf_6/Risperidone_rdkit_conf_6.xyz --acc 1 --gfn 2 --chrg 0 --uhf 2 --etemp 300 --input /rds/general/user/hgt20/home/callum/QDESCP/Risperidone_rdkit_conf_6/Risperidone_rdkit_conf_6_xtb.inp -P 1
          hostname                   : login-c
          coordinate file            : /rds/general/user/hgt20/home/callum/QDESCP/Risperidone_rdkit_conf_6/Risperidone_rdkit_conf_6.xyz
          omp threads                :                     1


           -------------------------------------------------
          |                 G F N 2 - x T B                 |
           -------------------------------------------------

        Reference                      10.1021/acs.jctc.8b01176
      * Hamiltonian:
        H0-scaling (s, p, d)           1.850000    2.230000    2.230000
        zeta-weighting                 0.500000
      * Dispersion:
        s8                             2.700000
        a1                             0.520000
        a2                             5.000000
        s9                             5.000000
      * Repulsion:
        kExp                           1.500000    1.000000
        rExp                           1.000000
      * Coulomb:
        alpha                          2.000000
        third order                    shell-resolved
        anisotropic                    true
        a3                             3.000000
        a5                             4.000000
        cn-shift                       1.200000
        cn-exp                         4.000000
        max-rad                        5.000000


          ...................................................
          :                      SETUP                      :
          :.................................................:
          :  # basis functions                 147          :
          :  # atomic orbitals                 147          :
          :  # shells                           87          :
          :  # electrons                       158          :
          :  max. iterations                   250          :
          :  Hamiltonian                  GFN2-xTB          :
          :  restarted?                      false          :
          :  GBSA solvation                  false          :
          :  PC potential                    false          :
          :  electronic temp.          300.0000000     K    :
          :  accuracy                    1.0000000          :
          :  -> integral cutoff          0.2500000E+02      :
          :  -> integral neglect         0.1000000E-07      :
          :  -> SCF convergence          0.1000000E-05 Eh   :
          :  -> wf. convergence          0.1000000E-03 e    :
          :  Broyden damping             0.4000000          :
          :  net charge                          0          :
          :  unpaired electrons                  2          :
          ...................................................

 iter      E             dE          RMSdq      gap      omega  full diag
   1    -88.3514420 -0.883514E+02  0.349E+00    0.15       0.0  T
   2    -88.2738958  0.775462E-01  0.303E+00    0.96       1.0  T
   3    -88.3987496 -0.124854E+00  0.206E+00    1.06       1.0  T
   4    -88.3316224  0.671273E-01  0.190E+00    0.95       1.0  T
   5    -88.4636452 -0.132023E+00  0.153E+00    0.24       1.0  T
   6    -88.5943195 -0.130674E+00  0.898E-01    0.02       1.0  T
   7    -88.4348223  0.159497E+00  0.120E+00    0.19       1.0  T
   8    -88.4937570 -0.589348E-01  0.101E+00    0.17       1.0  T
   9    -88.5135541 -0.197971E-01  0.992E-01    0.19       1.0  T
  10    -88.5753196 -0.617655E-01  0.785E-01    0.17       1.0  T
  11    -88.5949598 -0.196403E-01  0.652E-01    0.09       1.0  T
  12    -88.6399596 -0.449998E-01  0.485E-01    0.11       1.0  T
  13    -88.6322706  0.768897E-02  0.517E-01    0.12       1.0  T
  14    -88.6757226 -0.434520E-01  0.123E-01    0.03       1.0  T
  15    -88.6758163 -0.936226E-04  0.878E-02    0.02       1.0  T
  16    -88.6759480 -0.131735E-03  0.707E-02    0.03       1.0  T
  17    -88.6762674 -0.319409E-03  0.527E-02    0.02       1.0  T
  18    -88.6764250 -0.157596E-03  0.323E-02    0.02       1.0  T
  19    -88.6765178 -0.927761E-04  0.649E-03    0.03       2.0  T
  20    -88.6765158  0.195256E-05  0.699E-03    0.02       1.9  T
  21    -88.6765162 -0.353493E-06  0.537E-03    0.02       2.5  T
  22    -88.6765182 -0.201865E-05  0.396E-03    0.03       3.3  T
  23    -88.6765212 -0.297661E-05  0.797E-04    0.02      16.6  T
  24    -88.6765211  0.683840E-07  0.869E-04    0.02      15.2  T
  25    -88.6765212 -0.756561E-07  0.513E-04    0.02      25.8  T

   *** convergence criteria satisfied after 25 iterations ***

         #    Occupation            Energy/Eh            Energy/eV
      -------------------------------------------------------------
         1        2.0000           -0.8069851             -21.9592
       ...           ...                  ...                  ...
        74        2.0000           -0.4007198             -10.9041
        75        1.9991           -0.3974463             -10.8151
        76        1.9646           -0.3939266             -10.7193
        77        1.9233           -0.3931501             -10.6982
        78        1.8629           -0.3925347             -10.6814
        79        1.2501           -0.3897434             -10.6055
        80        0.6174           -0.2556170              -6.9557 (HOMO)
        81        0.3826           -0.2547080              -6.9310 (LUMO)
        82                         -0.2308054              -6.2805
        83                         -0.2177968              -5.9266
        84                         -0.1824721              -4.9653
        85                         -0.1283070              -3.4914
       ...                                ...                  ...
       147                          0.6998328              19.0434
      -------------------------------------------------------------
                  HL-Gap            0.0009090 Eh            0.0247 eV
             Fermi-level           -0.3229745 Eh           -8.7886 eV

 transition dipole moment (au) for excitation:          79          80
     X       Y       Z   
  -1.0771   0.4267   0.4392  total (au/Debye):    1.239   3.149
 dE (eV)             :    3.650
 oscillator strength :  0.19411E+00

 SCC (total)                   0 d,  0 h,  0 min,  0.260 sec
 SCC setup                      ...        0 min,  0.001 sec (  0.216%)
 Dispersion                     ...        0 min,  0.001 sec (  0.330%)
 classical contributions        ...        0 min,  0.000 sec (  0.104%)
 integral evaluation            ...        0 min,  0.038 sec ( 14.806%)
 iterations                     ...        0 min,  0.131 sec ( 50.469%)
 molecular gradient             ...        0 min,  0.079 sec ( 30.432%)
 printout                       ...        0 min,  0.009 sec (  3.640%)

         :::::::::::::::::::::::::::::::::::::::::::::::::::::
         ::                     SUMMARY                     ::
         :::::::::::::::::::::::::::::::::::::::::::::::::::::
         :: total energy             -87.521864640927 Eh    ::
         :: gradient norm              0.118346124380 Eh/a0 ::
         :: HOMO-LUMO gap              0.024736099529 eV    ::
         ::.................................................::
         :: SCC energy               -88.676476298068 Eh    ::
         :: -> isotropic ES            0.074454380909 Eh    ::
         :: -> anisotropic ES          0.005691694977 Eh    ::
         :: -> anisotropic XC          0.036453222828 Eh    ::
         :: -> dispersion             -0.061424403121 Eh    ::
         :: repulsion energy           1.154611657141 Eh    ::
         :: add. restraining           0.000000000000 Eh    ::
         :: total charge               0.000000000026 e     ::
         :::::::::::::::::::::::::::::::::::::::::::::::::::::

           -------------------------------------------------
          |                Property Printout                |
           -------------------------------------------------

    * Orbital Energies and Occupations

         #    Occupation            Energy/Eh            Energy/eV
      -------------------------------------------------------------
         1        2.0000           -0.8069851             -21.9592
       ...           ...                  ...                  ...
        68        2.0000           -0.4425987             -12.0437
        69        2.0000           -0.4414861             -12.0134
        70        2.0000           -0.4312520             -11.7350
        71        2.0000           -0.4297645             -11.6945
        72        2.0000           -0.4283287             -11.6554
        73        2.0000           -0.4063410             -11.0571
        74        2.0000           -0.4007198             -10.9041
        75        1.9991           -0.3974463             -10.8151
        76        1.9646           -0.3939266             -10.7193
        77        1.9233           -0.3931501             -10.6982
        78        1.8629           -0.3925347             -10.6814
        79        1.2501           -0.3897434             -10.6055
        80        0.6174           -0.2556170              -6.9557 (HOMO)
        81        0.3826           -0.2547080              -6.9310 (LUMO)
        82                         -0.2308054              -6.2805
        83                         -0.2177968              -5.9266
        84                         -0.1824721              -4.9653
        85                         -0.1283070              -3.4914
        86                         -0.0861648              -2.3447
        87                         -0.0231909              -0.6311
        88                         -0.0114067              -0.3104
        89                          0.0020389               0.0555
        90                          0.0422734               1.1503
        91                          0.0484870               1.3194
       ...                                ...                  ...
       147                          0.6998328              19.0434
      -------------------------------------------------------------
                  HL-Gap            0.0009090 Eh            0.0247 eV
             Fermi-level           -0.3229745 Eh           -8.7886 eV

     #   Z          covCN         q      C6AA      α(0)
     1   8 O        0.858    -0.435    22.392     6.344
     2   6 C        2.781     0.253    22.750     7.812
     3   6 C        2.961    -0.055    29.364     8.888
     4   6 C        3.808    -0.059    21.622     6.619
     5   6 C        3.765     0.008    20.491     6.452
     6   7 N        2.729    -0.109    23.378     7.181
     7   6 C        3.771     0.005    20.533     6.457
     8   6 C        3.811    -0.064    21.712     6.632
     9   6 C        3.863    -0.022    20.917     6.504
    10   6 C        3.811    -0.064    21.718     6.633
    11   6 C        3.769     0.001    20.597     6.468
    12   6 C        3.013     0.063    26.578     8.457
    13   7 N        1.960    -0.152    25.055     7.423
    14   8 O        1.801    -0.145    16.478     5.482
    15   6 C        3.056     0.132    25.058     8.209
    16   6 C        3.027    -0.041    28.992     8.832
    17   6 C        2.914    -0.047    29.164     8.855
    18   6 C        2.920    -0.060    29.489     8.905
    19   6 C        2.797     0.160    24.527     8.113
    20   9 F        0.788    -0.225    11.494     4.005
    21   6 C        2.905    -0.081    30.028     8.985
    22   6 C        2.948     0.066    26.523     8.447
    23   7 N        1.845    -0.249    27.332     7.748
    24   6 C        2.901     0.137    25.010     8.200
    25   7 N        2.753    -0.089    22.976     7.119
    26   6 C        3.756     0.002    20.590     6.470
    27   6 C        3.804    -0.063    21.712     6.634
    28   6 C        3.803    -0.059    21.626     6.621
    29   6 C        3.812    -0.072    21.864     6.656
    30   6 C        3.760    -0.116    22.765     6.802
    31   1 H        0.924     0.065     2.140     2.288
    32   1 H        0.925     0.059     2.216     2.328
    33   1 H        0.924     0.043     2.410     2.428
    34   1 H        0.923     0.047     2.352     2.398
    35   1 H        0.924     0.044     2.402     2.424
    36   1 H        0.922     0.034     2.536     2.491
    37   1 H        0.924     0.045     2.381     2.413
    38   1 H        0.924     0.054     2.272     2.357
    39   1 H        0.924     0.052     2.292     2.368
    40   1 H        0.924     0.053     2.282     2.363
    41   1 H        0.924     0.046     2.371     2.408
    42   1 H        0.922     0.038     2.474     2.460
    43   1 H        0.924     0.055     2.258     2.350
    44   1 H        0.926     0.034     2.535     2.490
    45   1 H        0.926     0.053     2.287     2.365
    46   1 H        0.926     0.065     2.145     2.291
    47   1 H        0.924     0.048     2.343     2.394
    48   1 H        0.924     0.080     1.978     2.199
    49   1 H        0.925     0.046     2.367     2.406
    50   1 H        0.924     0.043     2.403     2.424
    51   1 H        0.924     0.044     2.399     2.422
    52   1 H        0.924     0.043     2.411     2.428
    53   1 H        0.925     0.065     2.137     2.286
    54   1 H        0.924     0.055     2.255     2.348
    55   1 H        0.925     0.052     2.296     2.369
    56   1 H        0.925     0.049     2.327     2.386
    57   1 H        0.925     0.065     2.136     2.286

 Mol. C6AA /au·bohr⁶  :      34311.230331
 Mol. C8AA /au·bohr⁸  :     797467.008950
 Mol. α(0) /au        :        282.121950


Wiberg/Mayer (AO) data.
largest (>0.10) Wiberg bond orders for each atom

 ---------------------------------------------------------------------------
     #   Z sym  total        # sym  WBO       # sym  WBO       # sym  WBO
 ---------------------------------------------------------------------------
     1   8 O    1.922 --     2 C    1.604
     2   6 C    3.919 --     1 O    1.604     3 C    1.168    25 N    1.040
     3   6 C    3.746 --    22 C    1.262     2 C    1.168     4 C    1.034
     4   6 C    3.979 --     3 C    1.034    32 H    0.966    31 H    0.958
                             5 C    0.953
     5   6 C    3.961 --     6 N    1.020    33 H    0.970     4 C    0.953
                            34 H    0.949
     6   7 N    3.209 --     5 C    1.020    11 C    1.001     7 C    0.997
     7   6 C    3.970 --     8 C    1.003     6 N    0.997    35 H    0.969
                            36 H    0.952
     8   6 C    3.987 --     7 C    1.003     9 C    0.982    37 H    0.975
                            38 H    0.973
     9   6 C    3.992 --    12 C    1.004    10 C    0.982     8 C    0.982
                            39 H    0.962
    10   6 C    3.988 --    11 C    1.004     9 C    0.982    41 H    0.975
                            40 H    0.972
    11   6 C    3.972 --    10 C    1.004     6 N    1.001    43 H    0.964
                            42 H    0.949
    12   6 C    3.876 --    13 N    1.521    16 C    1.206     9 C    1.004
    13   7 N    2.778 --    12 C    1.521    14 O    1.050
    14   8 O    2.364 --    15 C    1.116    13 N    1.050
    15   6 C    3.930 --    21 C    1.344    16 C    1.272    14 O    1.116
    16   6 C    3.941 --    15 C    1.272    17 C    1.269    12 C    1.206
    17   6 C    3.830 --    18 C    1.465    16 C    1.269    44 H    0.966
    18   6 C    3.974 --    17 C    1.465    19 C    1.364    45 H    0.968
    19   6 C    3.787 --    18 C    1.364    21 C    1.354    20 F    0.958
    20   9 F    1.072 --    19 C    0.958
    21   6 C    3.849 --    19 C    1.354    15 C    1.344    46 H    0.964
    22   6 C    3.767 --    23 N    1.304     3 C    1.262    30 C    1.026
    23   7 N    2.979 --    24 C    1.446    22 C    1.304
    24   6 C    3.799 --    23 N    1.446    25 N    1.178    29 C    1.013
    25   7 N    3.458 --    24 C    1.178     2 C    1.040    26 C    0.985
    26   6 C    3.962 --    27 C    0.996    25 N    0.985    48 H    0.963
                            47 H    0.961
    27   6 C    3.990 --    28 C    1.003    26 C    0.996    50 H    0.980
                            49 H    0.977
    28   6 C    3.989 --    27 C    1.003    29 C    0.988    51 H    0.981
                            52 H    0.980
    29   6 C    3.989 --    24 C    1.013    28 C    0.988    53 H    0.973
                            54 H    0.951
    30   6 C    3.989 --    22 C    1.026    57 H    0.983    56 H    0.967
                            55 H    0.963
    31   1 H    0.991 --     4 C    0.958
    32   1 H    0.993 --     4 C    0.966
    33   1 H    0.998 --     5 C    0.970
    34   1 H    0.988 --     5 C    0.949
    35   1 H    0.996 --     7 C    0.969
    36   1 H    0.982 --     7 C    0.952
    37   1 H    0.997 --     8 C    0.975
    38   1 H    0.996 --     8 C    0.973
    39   1 H    0.996 --     9 C    0.962
    40   1 H    0.996 --    10 C    0.972
    41   1 H    0.997 --    10 C    0.975
    42   1 H    0.984 --    11 C    0.949
    43   1 H    0.994 --    11 C    0.964
    44   1 H    0.999 --    17 C    0.966
    45   1 H    0.997 --    18 C    0.968
    46   1 H    0.995 --    21 C    0.964
    47   1 H    0.991 --    26 C    0.961
    48   1 H    0.992 --    26 C    0.963
    49   1 H    0.997 --    27 C    0.977
    50   1 H    0.998 --    27 C    0.980
    51   1 H    0.997 --    28 C    0.981
    52   1 H    0.997 --    28 C    0.980
    53   1 H    0.995 --    29 C    0.973
    54   1 H    0.988 --    29 C    0.951
    55   1 H    0.989 --    30 C    0.963
    56   1 H    0.990 --    30 C    0.967
    57   1 H    0.995 --    30 C    0.983
 ---------------------------------------------------------------------------

Topologies differ in total number of bonds
Writing topology from bond orders to xtbtopo.mol

molecular dipole:
                 x           y           z       tot (Debye)
 q only:       -3.721       0.252       0.564
   full:       -3.762       0.120       0.576       9.679
molecular quadrupole (traceless):
                xx          xy          yy          xz          yz          zz
 q only:      -22.535      -7.517      12.203       5.928      -2.845      10.333
  q+dip:      -22.748      -2.727      13.334      10.777      -4.977       9.415
   full:      -23.228      -3.195      14.675      11.327      -7.637       8.552


           -------------------------------------------------
          | TOTAL ENERGY              -87.521864640927 Eh   |
          | GRADIENT NORM               0.118346124380 Eh/α |
          | HOMO-LUMO GAP               0.024736099529 eV   |
           -------------------------------------------------

------------------------------------------------------------------------
 * finished run on 2025/05/15 at 16:24:16.821     
------------------------------------------------------------------------
 total:
 * wall-time:     0 d,  0 h,  0 min,  0.277 sec
 *  cpu-time:     0 d,  0 h,  0 min,  0.168 sec
 * ratio c/w:     0.608 speedup
 SCF:
 * wall-time:     0 d,  0 h,  0 min,  0.260 sec
 *  cpu-time:     0 d,  0 h,  0 min,  0.153 sec
 * ratio c/w:     0.587 speedup


