57
 energy: -87.643855202306 gnorm: 0.000602332129 xtb: 6.7.1 (edcfbbe)
O           -2.83170073206466       -2.45811118112322        0.01022113387507
C           -3.26233729231063       -1.52895952619148        0.67222654468449
C           -2.47165601023738       -0.49653036689623        1.30255433848487
C           -0.99078621940875       -0.58578021835313        1.08677053938866
C           -0.62742930240933        0.04782236380471       -0.26359978774691
N            0.80821437353719        0.17898794267577       -0.44118559173971
C            1.12794950225814        1.12817233117790       -1.49321309339770
C            2.63176655843139        1.37200585235795       -1.55372957071527
C            3.35704878215818        0.05242105896253       -1.82999224566537
C            2.95866367564351       -0.95178338636701       -0.74549067896448
C            1.44154601466503       -1.10024261027520       -0.71497600300651
C            4.83088975133384        0.24448435999770       -1.89215440826467
N            5.49140809208800       -0.02544247388961       -2.97634529928240
O            6.81973957774838        0.23989820640243       -2.78199692818089
C            6.97916051090468        0.69147577748767       -1.52795550278229
C            5.72871755130616        0.72474831295371       -0.87736914456040
C            5.64530444756582        1.16281780342447        0.44387522052815
C            6.80398625769403        1.55372596742763        1.07313597470210
C            8.02452237474560        1.50780882321307        0.39450266240410
F            9.12733654605245        1.90346955661154        1.05798655139151
C            8.15803110033173        1.08245738896315       -0.90853354589539
C           -3.09002904154712        0.50507616172086        1.99452648271034
N           -4.44259378238826        0.56094629024451        2.13273247631507
C           -5.15849908102177       -0.36353860818818        1.58626946384283
N           -4.64108489199988       -1.39345389180328        0.88068726897423
C           -5.55822520030499       -2.32090273662850        0.25536613873183
C           -6.59466563189272       -1.53237232012902       -0.54203719114318
C           -7.32686289515751       -0.51426340895848        0.34940606620714
C           -6.64554049174538       -0.35557708081553        1.71749730907498
C           -2.34955746452080        1.62005962968839        2.66370651619274
H           -0.71855468947299       -1.64178351198138        1.07872724768052
H           -0.44235350223239       -0.07781187504403        1.87852435652319
H           -1.05913833668455        1.05268603907696       -0.29876635652416
H           -1.08778484363622       -0.54605510567069       -1.07085559380828
H            0.61898551980989        2.07044163790166       -1.27209672388371
H            0.77502206349932        0.77307829092404       -2.47937198175317
H            2.85410326032817        2.09698679311138       -2.33859328978925
H            2.96270207523799        1.78224354366617       -0.59936418026605
H            3.04137892873105       -0.33143559313107       -2.80589243249100
H            3.30051539590188       -0.59954914895539        0.22798955337042
H            3.41722426403958       -1.92197620391435       -0.94317619673989
H            1.09216289081400       -1.51845058532849       -1.67678923988595
H            1.16676867972258       -1.79955411482759        0.07526779536253
H            4.70134323001705        1.19643973077376        0.96325498374772
H            6.79574112619731        1.90093201802178        2.09401739632645
H            9.11112328645810        1.05689750893825       -1.40786406026536
H           -6.04281958130466       -2.93269824770745        1.02318878435241
H           -4.96242585084446       -2.97081239260286       -0.39038316436704
H           -7.29951686034232       -2.22882117896560       -0.99528509782580
H           -6.07546342354922       -1.01318912526788       -1.34952190415728
H           -7.34816858882874        0.45594378607833       -0.14746255614729
H           -8.36042533212423       -0.82178130765908        0.51116971852568
H           -6.95114731806745        0.57001074129053        2.20221545444903
H           -6.93163791561882       -1.18951239907037        2.36475251338565
H           -1.71934876708493        1.23082519628631        3.46157432489991
H           -1.71311157939595        2.14265019394180        1.95348479808765
H           -3.06829121102828        2.31507529262771        3.08717015503441
