51
 energy: -84.104896063708 gnorm: 0.000815307570 xtb: 6.7.1 (edcfbbe)
F            7.51038770301000        3.14235881278089        0.17465238128738
C            6.65215624936160        2.10646577781910        0.23087119765764
C            5.82746811753341        1.97978595931328        1.33589082606269
C            4.93892243124254        0.92269908613455        1.39045345824668
C            4.88001758739907       -0.00426783927115        0.35132164727629
C            5.74091080923276        0.13837199337311       -0.73717415735538
C            6.62540254136916        1.19585913868588       -0.81083707730993
C            3.96209191941373       -1.17849139295535        0.34477777324117
C            2.62832094263772       -1.01126251429001        1.05517077678995
C            1.86059581722104        0.21900088592139        0.55089403617505
C            1.33359317739181       -0.02170275977324       -0.87127380993113
N            0.51132978314271       -1.20813435237252       -0.99468467360398
C            1.23669175693122       -2.37764642423497       -0.54249613685370
C            1.75535618081081       -2.26072982648906        0.89722317189097
C           -0.82620100172928       -1.06543484130422       -0.45892400154096
C           -1.75123208937359       -0.45554715068704       -1.52256359681019
N           -3.08847310641117       -0.24872975048641       -0.98717979817375
C           -3.99391000048766       -1.28084910635532       -1.14631856744216
N           -5.24099776099561       -1.06006138366325       -0.61564178838457
C           -5.62234956552140        0.07667785150460        0.05429739011256
C           -6.91037231835301        0.22700868364468        0.56528991427381
C           -7.24880742097991        1.38487533503450        1.23483516839812
C           -6.31791427574265        2.40444080269850        1.40594732163021
C           -5.04241786686597        2.26082070800595        0.90437843539091
C           -4.68222468104403        1.09770315272105        0.22447091924040
C           -3.32459802169729        0.93910586142096       -0.30616963977295
O           -2.44810344604775        1.76819934295848       -0.17979546694989
O           -3.72795405369281       -2.31381982230454       -1.71430784011387
O            4.28856975158390       -2.20601725484470       -0.20457642572788
H            5.88962865629522        2.70221322815449        2.13458737578534
H            4.31000093088131        0.81355196398114        2.26011418499156
H            5.69942149886644       -0.59679754963482       -1.52676896102128
H            7.28933428447712        1.31968260619896       -1.65140731964841
H            2.86459976064157       -0.87399840047887        2.11880906882338
H            2.49496790716511        1.10613543312337        0.55161395171306
H            1.02034753251735        0.40909608902491        1.22219894336536
H            2.18280798174344       -0.14037231223987       -1.55232454027503
H            0.75534076679386        0.84524550228114       -1.19447359248034
H            2.08658573890807       -2.51652559014948       -1.21490542464004
H            0.58735421716876       -3.25023045074125       -0.63724664142949
H            0.91157712485161       -2.19872621868171        1.58816031762717
H            2.33872560746976       -3.14925577683384        1.14057616708981
H           -1.21386506510945       -2.05365207713294       -0.20092460428335
H           -0.87046353092645       -0.43267131589379        0.44022723536848
H           -1.37117558794961        0.51601229732242       -1.84033306820745
H           -1.82171900997253       -1.12901927297198       -2.37647995309559
H           -5.90656403150960       -1.81116609733352       -0.74034567329217
H           -7.63219665348067       -0.56504746011400        0.43195246846179
H           -8.24741555101897        1.49817210757801        1.62912924451534
H           -6.59642903886922        3.30459426878262        1.93121868728160
H           -4.29682269831406        3.03208005276157        1.02039069560082
