33
 energy: -50.363674989186 gnorm: 0.000593044562 xtb: 6.7.1 (edcfbbe)
C            3.41402315770197       -2.06431415460345        0.52740586366934
N            2.29379524331298       -1.16215544021402        0.63735548067622
C            2.32111679963323        0.17481647877205        0.37729926588017
N            1.26576692379603        0.86753857136877        0.88762775199212
C            0.94603099305057        2.19083896355275        0.40848240316936
C           -0.15700691132426        2.18416320735932       -0.65493661939043
S           -1.81383918025887        2.58725147435789       -0.01253302185859
C           -2.09938645680103        1.22600537825731        1.19292560152949
C           -2.01007093518992       -0.11153806812185        0.56682186016238
C           -2.86166846765549       -0.70115802241317       -0.33422999403788
C           -4.11932760429179       -0.22444288147931       -0.95806787041500
N           -2.30964724346221       -1.92656118278475       -0.60443706260850
C           -1.17078573811626       -2.02668159344409        0.11682601834409
N           -0.96120190843542       -0.95301955603994        0.82748028397491
N            3.22192884329022        0.82462707470550       -0.27674816964629
C            4.31691997158834        0.43276685254148       -0.83852792011934
N            5.30881179708140        0.24531197968167       -1.39969088502262
H            3.05931439015495       -3.03860065127064        0.18881203552574
H            3.92669721694454       -2.18820309571755        1.48731120515303
H            4.12753557454365       -1.67900176993297       -0.19817334142321
H            1.52505367005614       -1.47779482475495        1.21129876829610
H            0.47608563597651        0.28969564382089        1.17043615990668
H            0.64144274851505        2.81481393016230        1.25472805327986
H            1.86494939860632        2.60188925659639       -0.01552441000609
H            0.01914869158320        2.95311428333675       -1.40515235425258
H           -0.20961770182054        1.21410074642644       -1.15084826898860
H           -3.10055312765013        1.42246467969175        1.57493572377022
H           -1.37608388176724        1.32633315683117        2.00048549330612
H           -4.23226735832053        0.84138177645901       -0.78280026864076
H           -4.10397524078627       -0.40148389253593       -2.03248565732281
H           -4.98199889983213       -0.74291481525283       -0.53856217779721
H           -2.69175197248510       -2.61528335838794       -1.23190499692721
H           -0.52923842763300       -2.88436014696467        0.09419104982549
