----- Optimization -----
      -----------------------------------------------------------      
     |                   =====================                   |     
     |                           x T B                           |     
     |                   =====================                   |     
     |                         S. Grimme                         |     
     |          Mulliken Center for Theoretical Chemistry        |     
     |                    University of Bonn                     |     
      -----------------------------------------------------------      

   * xtb version 6.7.1 (edcfbbe) compiled by 'conda@3ef47c1a292c' on 2024-11-25

   xtb is free software: you can redistribute it and/or modify it under
   the terms of the GNU Lesser General Public License as published by
   the Free Software Foundation, either version 3 of the License, or
   (at your option) any later version.
   
   xtb is distributed in the hope that it will be useful,
   but WITHOUT ANY WARRANTY; without even the implied warranty of
   MERCHANTABILITY or FITNESS FOR A PARTICULAR PURPOSE.  See the
   GNU Lesser General Public License for more details.
   
   Cite this work as:
   * C. Bannwarth, E. Caldeweyher, S. Ehlert, A. Hansen, P. Pracht,
     J. Seibert, S. Spicher, S. Grimme, WIREs Comput. Mol. Sci., 2020, 11,
     e01493. DOI: 10.1002/wcms.1493
   
   for GFN2-xTB:
   * C. Bannwarth, S. Ehlert and S. Grimme., J. Chem. Theory Comput., 2019,
     15, 1652-1671. DOI: 10.1021/acs.jctc.8b01176
   for GFN1-xTB:
   * S. Grimme, C. Bannwarth, P. Shushkov, J. Chem. Theory Comput., 2017,
     13, 1989-2009. DOI: 10.1021/acs.jctc.7b00118
   for GFN0-xTB:
   * P. Pracht, E. Caldeweyher, S. Ehlert, S. Grimme, ChemRxiv, 2019, preprint.
     DOI: 10.26434/chemrxiv.8326202.v1
   for GFN-FF:
   * S. Spicher and S. Grimme, Angew. Chem. Int. Ed., 2020, 59, 15665-15673.
     DOI: 10.1002/anie.202004239
   
   for ALPB and GBSA implicit solvation:
   * S. Ehlert, M. Stahn, S. Spicher, S. Grimme, J. Chem. Theory Comput.,
     2021, 17, 4250-4261. DOI: 10.1021/acs.jctc.1c00471
   
   for ddCOSMO and CPCM-X implicit solvation:
   * M. Stahn, S. Ehlert, S. Grimme, J. Phys. Chem. A,
     2023, XX, XXXX-XXXX. DOI: 10.1021/acs.jpca.3c04382
   
   for DFT-D4:
   * E. Caldeweyher, C. Bannwarth and S. Grimme, J. Chem. Phys., 2017,
     147, 034112. DOI: 10.1063/1.4993215
   * E. Caldeweyher, S. Ehlert, A. Hansen, H. Neugebauer, S. Spicher,
     C. Bannwarth and S. Grimme, J. Chem. Phys., 2019, 150, 154122.
     DOI: 10.1063/1.5090222
   * E. Caldeweyher, J.-M. Mewes, S. Ehlert and S. Grimme, Phys. Chem. Chem. Phys.
     2020, 22, 8499-8512. DOI: 10.1039/D0CP00502A
   
   for sTDA-xTB:
   * S. Grimme and C. Bannwarth, J. Chem. Phys., 2016, 145, 054103.
     DOI: 10.1063/1.4959605
   
   in the mass-spec context:
   * V. Asgeirsson, C. Bauer and S. Grimme, Chem. Sci., 2017, 8, 4879.
     DOI: 10.1039/c7sc00601b
   * J. Koopman and S. Grimme, ACS Omega 2019, 4, 12, 15120-15133.
     DOI: 10.1021/acsomega.9b02011
   
   for metadynamics refer to:
   * S. Grimme, J. Chem. Theory Comput., 2019, 155, 2847-2862
     DOI: 10.1021/acs.jctc.9b00143
   
   for SPH calculations refer to:
   * S. Spicher and S. Grimme, J. Chem. Theory Comput., 2021, 17, 1701-1714
     DOI: 10.1021/acs.jctc.0c01306
   
   for ONIOM refer to:
   * C. Plett, A. Katbashev, S. Ehlert, S. Grimme, M. Bursch,
     Phys. Chem. Chem. Phys., 2023, 25, 17860-17868. DOI: 10.1039/D3CP02178E
   
   for DIPRO refer to:
   * J. Kohn, N. Gildemeister, S. Grimme, D. Fazzi, A. Hansen,
     J. Chem. Phys., 2023, just accepted.
   
   for PTB refer to:
   * S. Grimme, M. Mueller, A. Hansen, J. Chem. Phys., 2023, 158, 124111.
     DOI: 10.1063/5.0137838
   
   with help from (in alphabetical order)
   P. Atkinson, C. Bannwarth, F. Bohle, G. Brandenburg, E. Caldeweyher
   M. Checinski, S. Dohm, S. Ehlert, S. Ehrlich, I. Gerasimov, C. Hölzer
   A. Katbashev, J. Kohn, J. Koopman, C. Lavigne, S. Lehtola, F. März, M. Müller,
   F. Musil, H. Neugebauer, J. Pisarek, C. Plett, P. Pracht, F. Pultar,
   J. Seibert, P. Shushkov, S. Spicher, M. Stahn, M. Steiner, T. Strunk,
   J. Stückrath, T. Rose, and J. Unsleber
   
 * started run on 2025/05/15 at 16:17:27.993     
   ID    Z sym.   atoms
    1    6 C      1, 3, 5, 6, 8-11, 13, 16
    2    7 N      2, 4, 12, 14, 15, 17
    3   16 S      7
    4    1 H      18-33

           -------------------------------------------------
          |                Calculation Setup                |
           -------------------------------------------------

          program call               : xtb /rds/general/user/hgt20/home/callum/QDESCP/Cimetadine_rdkit_conf_4/Cimetadine_rdkit_conf_4.xyz --opt normal --acc 1 --gfn 2 --chrg 0 --uhf 0 -P 1
          hostname                   : login-c
          coordinate file            : /rds/general/user/hgt20/home/callum/QDESCP/Cimetadine_rdkit_conf_4/Cimetadine_rdkit_conf_4.xyz
          omp threads                :                     1


           -------------------------------------------------
          |                 G F N 2 - x T B                 |
           -------------------------------------------------

        Reference                      10.1021/acs.jctc.8b01176
      * Hamiltonian:
        H0-scaling (s, p, d)           1.850000    2.230000    2.230000
        zeta-weighting                 0.500000
      * Dispersion:
        s8                             2.700000
        a1                             0.520000
        a2                             5.000000
        s9                             5.000000
      * Repulsion:
        kExp                           1.500000    1.000000
        rExp                           1.000000
      * Coulomb:
        alpha                          2.000000
        third order                    shell-resolved
        anisotropic                    true
        a3                             3.000000
        a5                             4.000000
        cn-shift                       1.200000
        cn-exp                         4.000000
        max-rad                        5.000000


          ...................................................
          :                      SETUP                      :
          :.................................................:
          :  # basis functions                  90          :
          :  # atomic orbitals                  89          :
          :  # shells                           51          :
          :  # electrons                        92          :
          :  max. iterations                   250          :
          :  Hamiltonian                  GFN2-xTB          :
          :  restarted?                      false          :
          :  GBSA solvation                  false          :
          :  PC potential                    false          :
          :  electronic temp.          300.0000000     K    :
          :  accuracy                    1.0000000          :
          :  -> integral cutoff          0.2500000E+02      :
          :  -> integral neglect         0.1000000E-07      :
          :  -> SCF convergence          0.1000000E-05 Eh   :
          :  -> wf. convergence          0.1000000E-03 e    :
          :  Broyden damping             0.4000000          :
          :  net charge                          0          :
          :  unpaired electrons                  0          :
          ...................................................

 iter      E             dE          RMSdq      gap      omega  full diag
   1    -50.9029742 -0.509030E+02  0.400E+00    3.84       0.0  T
   2    -50.9962088 -0.932346E-01  0.249E+00    3.88       1.0  T
   3    -50.9979186 -0.170984E-02  0.146E+00    3.76       1.0  T
   4    -51.0109033 -0.129847E-01  0.703E-01    3.49       1.0  T
   5    -51.0219966 -0.110933E-01  0.175E-01    3.50       1.0  T
   6    -51.0220154 -0.187682E-04  0.996E-02    3.56       1.0  T
   7    -51.0221552 -0.139813E-03  0.329E-02    3.56       1.0  T
   8    -51.0221674 -0.121979E-04  0.129E-02    3.57       1.3  T
   9    -51.0221684 -0.931473E-06  0.484E-03    3.57       3.6  T
  10    -51.0221684 -0.677279E-07  0.194E-03    3.57       9.0  T
  11    -51.0221685 -0.501810E-07  0.855E-04    3.57      20.3  T
  12    -51.0221685 -0.729941E-08  0.333E-04    3.57      52.2  T

   *** convergence criteria satisfied after 12 iterations ***

         #    Occupation            Energy/Eh            Energy/eV
      -------------------------------------------------------------
         1        2.0000           -0.7124020             -19.3854
       ...           ...                  ...                  ...
        40        2.0000           -0.4136762             -11.2567
        41        2.0000           -0.3979295             -10.8282
        42        2.0000           -0.3954100             -10.7597
        43        2.0000           -0.3896139             -10.6019
        44        2.0000           -0.3762965             -10.2395
        45        2.0000           -0.3686800             -10.0323
        46        2.0000           -0.3618906              -9.8475 (HOMO)
        47                         -0.2308456              -6.2816 (LUMO)
        48                         -0.2199201              -5.9843
        49                         -0.2174115              -5.9161
        50                         -0.1860716              -5.0633
        51                         -0.1498156              -4.0767
       ...                                ...                  ...
        89                          1.1696715              31.8284
      -------------------------------------------------------------
                  HL-Gap            0.1310450 Eh            3.5659 eV
             Fermi-level           -0.2963681 Eh           -8.0646 eV

 SCC (total)                   0 d,  0 h,  0 min,  0.039 sec
 SCC setup                      ...        0 min,  0.000 sec (  0.713%)
 Dispersion                     ...        0 min,  0.000 sec (  0.708%)
 classical contributions        ...        0 min,  0.000 sec (  0.235%)
 integral evaluation            ...        0 min,  0.006 sec ( 14.430%)
 iterations                     ...        0 min,  0.017 sec ( 44.617%)
 molecular gradient             ...        0 min,  0.015 sec ( 38.908%)
 printout                       ...        0 min,  0.000 sec (  0.371%)

         :::::::::::::::::::::::::::::::::::::::::::::::::::::
         ::                     SUMMARY                     ::
         :::::::::::::::::::::::::::::::::::::::::::::::::::::
         :: total energy             -50.349302473936 Eh    ::
         :: gradient norm              0.063186285530 Eh/a0 ::
         :: HOMO-LUMO gap              3.565916168324 eV    ::
         ::.................................................::
         :: SCC energy               -51.021619866920 Eh    ::
         :: -> isotropic ES            0.057857965546 Eh    ::
         :: -> anisotropic ES          0.008153784965 Eh    ::
         :: -> anisotropic XC          0.044082823091 Eh    ::
         :: -> dispersion             -0.034272436243 Eh    ::
         :: repulsion energy           0.672317392984 Eh    ::
         :: add. restraining           0.000000000000 Eh    ::
         :: total charge              -0.000000000000 e     ::
         :::::::::::::::::::::::::::::::::::::::::::::::::::::

      ----------------------------------------------------------- 
     |                   =====================                   |
     |                        A N C O P T                        |
     |                   =====================                   |
     |               Approximate Normal Coordinate               |
     |                Rational Function Optimizer                |
      ----------------------------------------------------------- 
      ----------------------------------------------------------- 
     |                   =====================                   |
     |                        A N C O P T                        |
     |                   =====================                   |
     |               Approximate Normal Coordinate               |
     |                Rational Function Optimizer                |
      ----------------------------------------------------------- 

          ...................................................
          :                      SETUP                      :
          :.................................................:
          :   optimization level            normal          :
          :   max. optcycles                   200          :
          :   ANC micro-cycles                  20          :
          :   degrees of freedom                93          :
          :.................................................:
          :   RF solver                   davidson          :
          :   write xtbopt.log                true          :
          :   linear?                        false          :
          :   energy convergence         0.5000000E-05 Eh   :
          :   grad. convergence          0.1000000E-02 Eh/α :
          :   maxmium RF displ.          1.0000000          :
          :   Hlow (freq-cutoff)         0.1000000E-01      :
          :   Hmax (freq-cutoff)         5.0000000          :
          :   S6 in model hess.         20.0000000          :
          ...................................................

generating ANC from exact Hessian ...
Using Lindh-Hessian (1995)
 Shifting diagonal of input Hessian by    9.7513130164014004E-003
 Lowest  eigenvalues of input Hessian
    0.000000    0.000000    0.000000    0.000000    0.000000    0.000000
    0.010000    0.010180    0.010462    0.010761    0.011865    0.012433
    0.013115    0.015363    0.016658    0.017831    0.019245    0.020468
 Highest eigenvalues
    1.875873    2.028643    2.030399    2.122646    2.265174    2.734833


........................................................................
.............................. CYCLE    1 ..............................
........................................................................

 iter      E             dE          RMSdq      gap      omega  full diag
   1    -51.0221685 -0.510222E+02  0.859E-05    3.57       0.0  T
   2    -51.0221685 -0.260982E-10  0.503E-05    3.57     346.2  T
   3    -51.0221685  0.159872E-11  0.269E-05    3.57     646.0  T
     SCC iter.                  ...        0 min,  0.005 sec
     gradient                   ...        0 min,  0.015 sec
 * total energy  :   -50.3493025 Eh     change       -0.3025278E-09 Eh
   gradient norm :     0.0631848 Eh/α   predicted     0.0000000E+00 (-100.00%)
   displ. norm   :     0.3681153 α      lambda       -0.1059188E-01
   maximum displ.:     0.1438613 α      in ANC's #15, #22, #13, ...

........................................................................
.............................. CYCLE    2 ..............................
........................................................................

 iter      E             dE          RMSdq      gap      omega  full diag
   1    -51.0462497 -0.510462E+02  0.438E-01    3.64       0.0  T
   2    -51.0463960 -0.146318E-03  0.251E-01    3.63       1.0  T
   3    -51.0459328  0.463190E-03  0.140E-01    3.63       1.0  T
   4    -51.0464960 -0.563200E-03  0.182E-02    3.63       1.0  T
   5    -51.0465021 -0.607665E-05  0.684E-03    3.63       2.5  T
   6    -51.0465022 -0.139392E-06  0.338E-03    3.63       5.1  T
   7    -51.0465024 -0.152471E-06  0.111E-03    3.63      15.7  T
   8    -51.0465024 -0.146453E-07  0.528E-04    3.63      33.0  T
   9    -51.0465024 -0.984180E-09  0.216E-04    3.63      80.5  T
     SCC iter.                  ...        0 min,  0.012 sec
     gradient                   ...        0 min,  0.015 sec
 * total energy  :   -50.3553157 Eh     change       -0.6013236E-02 Eh
   gradient norm :     0.0391070 Eh/α   predicted    -0.6013844E-02 (   0.01%)
   displ. norm   :     0.5950115 α      lambda       -0.1262552E-01
   maximum displ.:     0.2194380 α      in ANC's #15, #9, #5, ...

........................................................................
.............................. CYCLE    3 ..............................
........................................................................

 iter      E             dE          RMSdq      gap      omega  full diag
   1    -51.0878945 -0.510879E+02  0.765E-01    3.63       0.0  T
   2    -51.0881915 -0.296978E-03  0.435E-01    3.60       1.0  T
   3    -51.0869952  0.119628E-02  0.233E-01    3.62       1.0  T
   4    -51.0885019 -0.150674E-02  0.201E-02    3.61       1.0  T
   5    -51.0885050 -0.306246E-05  0.102E-02    3.61       1.7  T
   6    -51.0885051 -0.739465E-07  0.429E-03    3.61       4.1  T
   7    -51.0885055 -0.404993E-06  0.129E-03    3.61      13.5  T
   8    -51.0885055 -0.880169E-08  0.644E-04    3.61      27.0  T
   9    -51.0885055 -0.137285E-08  0.241E-04    3.61      72.3  T
     SCC iter.                  ...        0 min,  0.012 sec
     gradient                   ...        0 min,  0.015 sec
 * total energy  :   -50.3547813 Eh     change        0.5343757E-03 Eh
   gradient norm :     0.0644743 Eh/α   predicted    -0.8547845E-02 (*******%)
   displ. norm   :     0.2238448 α      lambda       -0.7119787E-02
   maximum displ.:     0.0778933 α      in ANC's #13, #20, #5, ...

........................................................................
.............................. CYCLE    4 ..............................
........................................................................

 iter      E             dE          RMSdq      gap      omega  full diag
   1    -51.0727518 -0.510728E+02  0.259E-01    3.64       0.0  T
   2    -51.0727830 -0.311925E-04  0.150E-01    3.64       1.0  T
   3    -51.0725915  0.191512E-03  0.954E-02    3.63       1.0  T
   4    -51.0728390 -0.247538E-03  0.851E-03    3.63       2.0  T
   5    -51.0728397 -0.729553E-06  0.473E-03    3.64       3.7  T
   6    -51.0728399 -0.136435E-06  0.145E-03    3.64      12.0  T
   7    -51.0728399 -0.319145E-07  0.543E-04    3.64      32.1  T
   8    -51.0728399 -0.354720E-08  0.242E-04    3.64      71.9  T
     SCC iter.                  ...        0 min,  0.011 sec
     gradient                   ...        0 min,  0.023 sec
 * total energy  :   -50.3596155 Eh     change       -0.4834171E-02 Eh
   gradient norm :     0.0207996 Eh/α   predicted    -0.3738270E-02 ( -22.67%)
   displ. norm   :     0.2886915 α      lambda       -0.2378330E-02
   maximum displ.:     0.1126817 α      in ANC's #13, #5, #15, ...

........................................................................
.............................. CYCLE    5 ..............................
........................................................................

 iter      E             dE          RMSdq      gap      omega  full diag
   1    -51.0620437 -0.510620E+02  0.290E-01    3.64       0.0  T
   2    -51.0621103 -0.666217E-04  0.162E-01    3.63       1.0  T
   3    -51.0620982  0.120614E-04  0.298E-02    3.62       1.0  T
   4    -51.0621203 -0.220465E-04  0.124E-02    3.63       1.4  T
   5    -51.0621237 -0.346136E-05  0.460E-03    3.63       3.8  T
   6    -51.0621239 -0.200488E-06  0.198E-03    3.63       8.8  T
   7    -51.0621240 -0.380380E-07  0.511E-04    3.63      34.1  T
   8    -51.0621240 -0.167299E-08  0.264E-04    3.63      66.0  T
     SCC iter.                  ...        0 min,  0.011 sec
     gradient                   ...        0 min,  0.015 sec
 * total energy  :   -50.3608880 Eh     change       -0.1272519E-02 Eh
   gradient norm :     0.0223922 Eh/α   predicted    -0.1288278E-02 (   1.24%)
   displ. norm   :     0.1825694 α      lambda       -0.7296496E-03
   maximum displ.:     0.0828991 α      in ANC's #9, #7, #15, ...

........................................................................
.............................. CYCLE    6 ..............................
........................................................................

 iter      E             dE          RMSdq      gap      omega  full diag
   1    -51.0652620 -0.510653E+02  0.819E-02    3.62       0.0  T
   2    -51.0652723 -0.103621E-04  0.460E-02    3.61       1.0  T
   3    -51.0652598  0.125128E-04  0.288E-02    3.61       1.0  T
   4    -51.0652774 -0.175543E-04  0.569E-03    3.61       3.1  T
   5    -51.0652781 -0.721695E-06  0.169E-03    3.61      10.3  T
   6    -51.0652781 -0.119372E-07  0.751E-04    3.61      23.2  T
   7    -51.0652781 -0.495297E-08  0.225E-04    3.61      77.3  T
     SCC iter.                  ...        0 min,  0.010 sec
     gradient                   ...        0 min,  0.015 sec
 * total energy  :   -50.3614830 Eh     change       -0.5949826E-03 Eh
   gradient norm :     0.0139569 Eh/α   predicted    -0.3769852E-03 ( -36.64%)
   displ. norm   :     0.3486666 α      lambda       -0.9393713E-03
   maximum displ.:     0.1559825 α      in ANC's #7, #9, #5, ...

........................................................................
.............................. CYCLE    7 ..............................
........................................................................

 iter      E             dE          RMSdq      gap      omega  full diag
   1    -51.0693230 -0.510693E+02  0.150E-01    3.60       0.0  T
   2    -51.0693508 -0.278132E-04  0.844E-02    3.59       1.0  T
   3    -51.0693180  0.328311E-04  0.416E-02    3.59       1.0  T
   4    -51.0693592 -0.412859E-04  0.919E-03    3.59       1.9  T
   5    -51.0693610 -0.177715E-05  0.299E-03    3.59       5.8  T
   6    -51.0693611 -0.550601E-07  0.126E-03    3.59      13.8  T
   7    -51.0693611 -0.143277E-07  0.375E-04    3.59      46.4  T
   8    -51.0693611 -0.311999E-10  0.177E-04    3.59      98.1  T
     SCC iter.                  ...        0 min,  0.011 sec
     gradient                   ...        0 min,  0.015 sec
 * total energy  :   -50.3620890 Eh     change       -0.6060260E-03 Eh
   gradient norm :     0.0092580 Eh/α   predicted    -0.5267854E-03 ( -13.08%)
   displ. norm   :     0.1818824 α      lambda       -0.2447202E-03
   maximum displ.:     0.0958288 α      in ANC's #5, #7, #9, ...

........................................................................
.............................. CYCLE    8 ..............................
........................................................................

 iter      E             dE          RMSdq      gap      omega  full diag
   1    -51.0731845 -0.510732E+02  0.698E-02    3.59       0.0  T
   2    -51.0731870 -0.251046E-05  0.389E-02    3.59       1.0  T
   3    -51.0731845  0.247988E-05  0.116E-02    3.60       1.5  T
   4    -51.0731878 -0.331351E-05  0.343E-03    3.60       5.1  T
   5    -51.0731880 -0.146776E-06  0.110E-03    3.60      15.8  T
   6    -51.0731880 -0.794737E-08  0.402E-04    3.60      43.3  T
   7    -51.0731880 -0.195645E-08  0.183E-04    3.60      94.9  T
     SCC iter.                  ...        0 min,  0.010 sec
     gradient                   ...        0 min,  0.015 sec
 * total energy  :   -50.3622593 Eh     change       -0.1702772E-03 Eh
   gradient norm :     0.0047120 Eh/α   predicted    -0.1264090E-03 ( -25.76%)
   displ. norm   :     0.1994005 α      lambda       -0.1564476E-03
   maximum displ.:     0.1265856 α      in ANC's #5, #7, #9, ...

........................................................................
.............................. CYCLE    9 ..............................
........................................................................

 iter      E             dE          RMSdq      gap      omega  full diag
   1    -51.0735282 -0.510735E+02  0.793E-02    3.60       0.0  T
   2    -51.0735316 -0.340447E-05  0.440E-02    3.60       1.0  T
   3    -51.0735318 -0.197885E-06  0.657E-03    3.60       2.6  T
   4    -51.0735322 -0.401427E-06  0.380E-03    3.60       4.6  T
   5    -51.0735325 -0.268399E-06  0.124E-03    3.60      14.1  T
   6    -51.0735325 -0.174016E-07  0.409E-04    3.60      42.6  T
   7    -51.0735325 -0.176887E-08  0.205E-04    3.60      84.8  T
     SCC iter.                  ...        0 min,  0.010 sec
     gradient                   ...        0 min,  0.015 sec
 * total energy  :   -50.3623644 Eh     change       -0.1051330E-03 Eh
   gradient norm :     0.0035044 Eh/α   predicted    -0.8133947E-04 ( -22.63%)
   displ. norm   :     0.2001303 α      lambda       -0.1359585E-03
   maximum displ.:     0.1509212 α      in ANC's #5, #3, #9, ...

........................................................................
.............................. CYCLE   10 ..............................
........................................................................

 iter      E             dE          RMSdq      gap      omega  full diag
   1    -51.0761450 -0.510761E+02  0.564E-02    3.60       0.0  T
   2    -51.0761471 -0.207683E-05  0.312E-02    3.61       1.0  T
   3    -51.0761465  0.611848E-06  0.757E-03    3.61       2.3  T
   4    -51.0761475 -0.100907E-05  0.326E-03    3.61       5.3  T
   5    -51.0761476 -0.810901E-07  0.144E-03    3.61      12.1  T
   6    -51.0761476 -0.376889E-07  0.397E-04    3.61      43.8  T
   7    -51.0761476 -0.235187E-08  0.203E-04    3.61      85.6  T
     SCC iter.                  ...        0 min,  0.010 sec
     gradient                   ...        0 min,  0.022 sec
 * total energy  :   -50.3624516 Eh     change       -0.8715648E-04 Eh
   gradient norm :     0.0065339 Eh/α   predicted    -0.7070233E-04 ( -18.88%)
   displ. norm   :     0.1901103 α      lambda       -0.9509609E-04
   maximum displ.:     0.1441884 α      in ANC's #5, #1, #3, ...

........................................................................
.............................. CYCLE   11 ..............................
........................................................................

 iter      E             dE          RMSdq      gap      omega  full diag
   1    -51.0750728 -0.510751E+02  0.518E-02    3.61       0.0  T
   2    -51.0750744 -0.155483E-05  0.284E-02    3.61       1.0  T
   3    -51.0750730  0.144102E-05  0.921E-03    3.61       1.9  T
   4    -51.0750748 -0.184302E-05  0.333E-03    3.61       5.2  T
   5    -51.0750749 -0.116399E-06  0.114E-03    3.61      15.3  T
   6    -51.0750749 -0.142141E-07  0.390E-04    3.61      44.7  T
   7    -51.0750749 -0.261176E-08  0.169E-04    3.61     102.9  T
     SCC iter.                  ...        0 min,  0.010 sec
     gradient                   ...        0 min,  0.015 sec
 * total energy  :   -50.3625215 Eh     change       -0.6994495E-04 Eh
   gradient norm :     0.0042939 Eh/α   predicted    -0.4927607E-04 ( -29.55%)
   displ. norm   :     0.2108258 α      lambda       -0.1033269E-03
   maximum displ.:     0.1531478 α      in ANC's #5, #3, #1, ...

........................................................................
.............................. CYCLE   12 ..............................
........................................................................

 iter      E             dE          RMSdq      gap      omega  full diag
   1    -51.0744836 -0.510745E+02  0.675E-02    3.61       0.0  T
   2    -51.0744855 -0.185774E-05  0.373E-02    3.61       1.0  T
   3    -51.0744827  0.276549E-05  0.117E-02    3.61       1.5  T
   4    -51.0744862 -0.349215E-05  0.355E-03    3.61       4.9  T
   5    -51.0744863 -0.884525E-07  0.125E-03    3.61      13.9  T
   6    -51.0744863 -0.178960E-07  0.444E-04    3.61      39.2  T
   7    -51.0744863 -0.314645E-08  0.205E-04    3.61      85.0  T
     SCC iter.                  ...        0 min,  0.010 sec
     gradient                   ...        0 min,  0.015 sec
 * total energy  :   -50.3625941 Eh     change       -0.7254616E-04 Eh
   gradient norm :     0.0037610 Eh/α   predicted    -0.5396708E-04 ( -25.61%)
   displ. norm   :     0.1783792 α      lambda       -0.7514787E-04
   maximum displ.:     0.1204493 α      in ANC's #5, #3, #1, ...

........................................................................
.............................. CYCLE   13 ..............................
........................................................................

 iter      E             dE          RMSdq      gap      omega  full diag
   1    -51.0732415 -0.510732E+02  0.733E-02    3.60       0.0  T
   2    -51.0732435 -0.196685E-05  0.406E-02    3.60       1.0  T
   3    -51.0732428  0.682036E-06  0.754E-03    3.60       2.3  T
   4    -51.0732440 -0.120892E-05  0.325E-03    3.60       5.4  T
   5    -51.0732442 -0.139215E-06  0.120E-03    3.60      14.5  T
   6    -51.0732442 -0.155871E-07  0.408E-04    3.60      42.6  T
   7    -51.0732442 -0.233399E-08  0.195E-04    3.60      89.1  T
     SCC iter.                  ...        0 min,  0.010 sec
     gradient                   ...        0 min,  0.030 sec
 * total energy  :   -50.3626498 Eh     change       -0.5570990E-04 Eh
   gradient norm :     0.0032673 Eh/α   predicted    -0.3877049E-04 ( -30.41%)
   displ. norm   :     0.1910557 α      lambda       -0.8230188E-04
   maximum displ.:     0.1121913 α      in ANC's #5, #3, #1, ...

........................................................................
.............................. CYCLE   14 ..............................
........................................................................

 iter      E             dE          RMSdq      gap      omega  full diag
   1    -51.0727560 -0.510728E+02  0.978E-02    3.60       0.0  T
   2    -51.0727595 -0.346898E-05  0.545E-02    3.59       1.0  T
   3    -51.0727595 -0.245648E-08  0.711E-03    3.60       2.4  T
   4    -51.0727604 -0.941558E-06  0.347E-03    3.59       5.0  T
   5    -51.0727606 -0.168217E-06  0.150E-03    3.59      11.6  T
   6    -51.0727606 -0.282870E-07  0.462E-04    3.59      37.7  T
   7    -51.0727606 -0.303817E-08  0.206E-04    3.59      84.4  T
     SCC iter.                  ...        0 min,  0.010 sec
     gradient                   ...        0 min,  0.015 sec
 * total energy  :   -50.3627072 Eh     change       -0.5744408E-04 Eh
   gradient norm :     0.0037652 Eh/α   predicted    -0.4265363E-04 ( -25.75%)
   displ. norm   :     0.2330405 α      lambda       -0.7507132E-04
   maximum displ.:     0.1476230 α      in ANC's #5, #1, #3, ...

........................................................................
.............................. CYCLE   15 ..............................
........................................................................

 iter      E             dE          RMSdq      gap      omega  full diag
   1    -51.0717640 -0.510718E+02  0.892E-02    3.59       0.0  T
   2    -51.0717674 -0.336094E-05  0.493E-02    3.58       1.0  T
   3    -51.0717675 -0.483284E-07  0.752E-03    3.59       2.3  T
   4    -51.0717681 -0.683193E-06  0.361E-03    3.59       4.8  T
   5    -51.0717683 -0.154071E-06  0.169E-03    3.59      10.3  T
   6    -51.0717683 -0.514130E-07  0.474E-04    3.59      36.7  T
   7    -51.0717683 -0.291792E-08  0.224E-04    3.59      77.5  T
     SCC iter.                  ...        0 min,  0.010 sec
     gradient                   ...        0 min,  0.015 sec
 * total energy  :   -50.3627534 Eh     change       -0.4616220E-04 Eh
   gradient norm :     0.0051084 Eh/α   predicted    -0.3957699E-04 ( -14.27%)
   displ. norm   :     0.1485481 α      lambda       -0.8885393E-04
   maximum displ.:     0.0698039 α      in ANC's #3, #1, #11, ...

........................................................................
.............................. CYCLE   16 ..............................
........................................................................

 iter      E             dE          RMSdq      gap      omega  full diag
   1    -51.0741585 -0.510742E+02  0.777E-02    3.58       0.0  T
   2    -51.0741614 -0.283461E-05  0.433E-02    3.58       1.0  T
   3    -51.0741593  0.205614E-05  0.107E-02    3.58       1.6  T
   4    -51.0741622 -0.289250E-05  0.310E-03    3.58       5.6  T
   5    -51.0741624 -0.175701E-06  0.121E-03    3.58      14.4  T
   6    -51.0741624 -0.865238E-08  0.413E-04    3.58      42.2  T
   7    -51.0741624 -0.273173E-08  0.144E-04    3.58     121.1  T
     SCC iter.                  ...        0 min,  0.010 sec
     gradient                   ...        0 min,  0.015 sec
 * total energy  :   -50.3627968 Eh     change       -0.4340611E-04 Eh
   gradient norm :     0.0034531 Eh/α   predicted    -0.4540763E-04 (   4.61%)
   displ. norm   :     0.1554453 α      lambda       -0.5012675E-04
   maximum displ.:     0.1021543 α      in ANC's #5, #1, #3, ...

........................................................................
.............................. CYCLE   17 ..............................
........................................................................

 iter      E             dE          RMSdq      gap      omega  full diag
   1    -51.0741267 -0.510741E+02  0.467E-02    3.58       0.0  T
   2    -51.0741274 -0.682648E-06  0.259E-02    3.58       1.0  T
   3    -51.0741272  0.229485E-06  0.522E-03    3.58       3.3  T
   4    -51.0741276 -0.411030E-06  0.239E-03    3.58       7.3  T
   5    -51.0741277 -0.560359E-07  0.722E-04    3.58      24.1  T
   6    -51.0741277 -0.941517E-08  0.219E-04    3.58      79.5  T
     SCC iter.                  ...        0 min,  0.008 sec
     gradient                   ...        0 min,  0.015 sec
 * total energy  :   -50.3628328 Eh     change       -0.3601372E-04 Eh
   gradient norm :     0.0027204 Eh/α   predicted    -0.2566968E-04 ( -28.72%)
   displ. norm   :     0.1332256 α      lambda       -0.4823783E-04
   maximum displ.:     0.0799822 α      in ANC's #5, #1, #3, ...

........................................................................
.............................. CYCLE   18 ..............................
........................................................................

 iter      E             dE          RMSdq      gap      omega  full diag
   1    -51.0749316 -0.510749E+02  0.365E-02    3.58       0.0  T
   2    -51.0749320 -0.452630E-06  0.207E-02    3.58       1.0  T
   3    -51.0749317  0.338966E-06  0.501E-03    3.58       3.5  T
   4    -51.0749322 -0.461423E-06  0.199E-03    3.58       8.7  T
   5    -51.0749322 -0.260070E-07  0.714E-04    3.58      24.4  T
   6    -51.0749322 -0.836547E-08  0.199E-04    3.58      87.7  T
     SCC iter.                  ...        0 min,  0.037 sec
     gradient                   ...        0 min,  0.015 sec
 * total energy  :   -50.3628643 Eh     change       -0.3142659E-04 Eh
   gradient norm :     0.0028420 Eh/α   predicted    -0.2454749E-04 ( -21.89%)
   displ. norm   :     0.1222357 α      lambda       -0.2849025E-04
   maximum displ.:     0.0665702 α      in ANC's #5, #1, #7, ...

........................................................................
.............................. CYCLE   19 ..............................
........................................................................

 iter      E             dE          RMSdq      gap      omega  full diag
   1    -51.0744406 -0.510744E+02  0.419E-02    3.57       0.0  T
   2    -51.0744411 -0.507702E-06  0.235E-02    3.57       1.0  T
   3    -51.0744409  0.153945E-06  0.419E-03    3.57       4.2  T
   4    -51.0744413 -0.317785E-06  0.180E-03    3.57       9.7  T
   5    -51.0744413 -0.189035E-07  0.689E-04    3.57      25.3  T
   6    -51.0744413 -0.102237E-07  0.184E-04    3.57      94.8  T
     SCC iter.                  ...        0 min,  0.008 sec
     gradient                   ...        0 min,  0.015 sec
 * total energy  :   -50.3628834 Eh     change       -0.1916480E-04 Eh
   gradient norm :     0.0026912 Eh/α   predicted    -0.1446351E-04 ( -24.53%)
   displ. norm   :     0.0967279 α      lambda       -0.3322977E-04
   maximum displ.:     0.0560960 α      in ANC's #7, #16, #5, ...

........................................................................
.............................. CYCLE   20 ..............................
........................................................................

 iter      E             dE          RMSdq      gap      omega  full diag
   1    -51.0753478 -0.510753E+02  0.268E-02    3.57       0.0  T
   2    -51.0753481 -0.287487E-06  0.148E-02    3.57       1.2  T
   3    -51.0753474  0.718803E-06  0.598E-03    3.57       2.9  T
   4    -51.0753482 -0.865773E-06  0.171E-03    3.57      10.2  T
   5    -51.0753482 -0.175367E-07  0.522E-04    3.57      33.4  T
   6    -51.0753482 -0.276230E-08  0.149E-04    3.57     117.0  T
     SCC iter.                  ...        0 min,  0.008 sec
     gradient                   ...        0 min,  0.015 sec
 * total energy  :   -50.3629023 Eh     change       -0.1885670E-04 Eh
   gradient norm :     0.0025192 Eh/α   predicted    -0.1677507E-04 ( -11.04%)
   displ. norm   :     0.1426514 α      lambda       -0.2454571E-04
   maximum displ.:     0.0742725 α      in ANC's #5, #1, #7, ...
 * RMSD in coord.:     0.5054631 α      energy gain  -0.1359980E-01 Eh

generating ANC from exact Hessian ...
Using Lindh-Hessian (1995)
 Shifting diagonal of input Hessian by    9.7551258421002523E-003
 Lowest  eigenvalues of input Hessian
    0.000000    0.000000    0.000000    0.000000    0.000000    0.000000
    0.010000    0.010170    0.010525    0.010796    0.011924    0.012535
    0.013095    0.014843    0.016524    0.017408    0.017875    0.020484
 Highest eigenvalues
    1.925535    2.083737    2.152690    2.191591    2.285823    2.877297


........................................................................
.............................. CYCLE   21 ..............................
........................................................................

 iter      E             dE          RMSdq      gap      omega  full diag
   1    -51.0739370 -0.510739E+02  0.431E-02    3.56       0.0  T
   2    -51.0739376 -0.657997E-06  0.240E-02    3.56       1.0  T
   3    -51.0739376  0.100154E-07  0.385E-03    3.56       4.5  T
   4    -51.0739378 -0.126648E-06  0.207E-03    3.56       8.4  T
   5    -51.0739378 -0.544509E-07  0.809E-04    3.56      21.5  T
   6    -51.0739378 -0.118389E-07  0.228E-04    3.56      76.4  T
     SCC iter.                  ...        0 min,  0.008 sec
     gradient                   ...        0 min,  0.015 sec
 * total energy  :   -50.3629179 Eh     change       -0.1563293E-04 Eh
   gradient norm :     0.0026164 Eh/α   predicted     0.0000000E+00 (-100.00%)
   displ. norm   :     0.0381356 α      lambda       -0.3412917E-04
   maximum displ.:     0.0210995 α      in ANC's #9, #6, #1, ...

........................................................................
.............................. CYCLE   22 ..............................
........................................................................

 iter      E             dE          RMSdq      gap      omega  full diag
   1    -51.0747380 -0.510747E+02  0.565E-02    3.56       0.0  T
   2    -51.0747390 -0.105272E-05  0.314E-02    3.56       1.0  T
   3    -51.0747390  0.471769E-07  0.407E-03    3.56       4.3  T
   4    -51.0747394 -0.439424E-06  0.128E-03    3.56      13.6  T
   5    -51.0747395 -0.219324E-07  0.486E-04    3.56      35.8  T
   6    -51.0747395 -0.854165E-09  0.966E-05    3.56     180.2  T
     SCC iter.                  ...        0 min,  0.008 sec
     gradient                   ...        0 min,  0.015 sec
 * total energy  :   -50.3629163 Eh     change        0.1572184E-05 Eh
   gradient norm :     0.0025284 Eh/α   predicted    -0.1712527E-04 (*******%)
   displ. norm   :     0.0448564 α      lambda       -0.5556842E-04
   maximum displ.:     0.0240224 α      in ANC's #3, #2, #9, ...

........................................................................
.............................. CYCLE   23 ..............................
........................................................................

 iter      E             dE          RMSdq      gap      omega  full diag
   1    -51.0759859 -0.510760E+02  0.487E-02    3.56       0.0  T
   2    -51.0759868 -0.913253E-06  0.271E-02    3.56       1.0  T
   3    -51.0759869 -0.482648E-07  0.309E-03    3.56       5.6  T
   4    -51.0759871 -0.215335E-06  0.134E-03    3.56      13.0  T
   5    -51.0759871 -0.308642E-07  0.526E-04    3.56      33.1  T
   6    -51.0759871 -0.944056E-09  0.185E-04    3.56      94.0  T
     SCC iter.                  ...        0 min,  0.008 sec
     gradient                   ...        0 min,  0.024 sec
 * total energy  :   -50.3629489 Eh     change       -0.3257173E-04 Eh
   gradient norm :     0.0022355 Eh/α   predicted    -0.2784150E-04 ( -14.52%)
   displ. norm   :     0.0477762 α      lambda       -0.2091921E-04
   maximum displ.:     0.0246714 α      in ANC's #9, #2, #3, ...

........................................................................
.............................. CYCLE   24 ..............................
........................................................................

 iter      E             dE          RMSdq      gap      omega  full diag
   1    -51.0754463 -0.510754E+02  0.217E-02    3.56       0.0  T
   2    -51.0754465 -0.195465E-06  0.122E-02    3.56       1.4  T
   3    -51.0754466 -0.276604E-07  0.135E-03    3.56      12.9  T
   4    -51.0754466 -0.255869E-07  0.536E-04    3.56      32.5  T
   5    -51.0754466 -0.892065E-09  0.290E-04    3.56      60.0  T
     SCC iter.                  ...        0 min,  0.007 sec
     gradient                   ...        0 min,  0.015 sec
 * total energy  :   -50.3629667 Eh     change       -0.1779485E-04 Eh
   gradient norm :     0.0012172 Eh/α   predicted    -0.1048377E-04 ( -41.09%)
   displ. norm   :     0.3091369 α      lambda       -0.7009191E-04
   maximum displ.:     0.1732561 α      in ANC's #9, #2, #3, ...

........................................................................
.............................. CYCLE   25 ..............................
........................................................................

 iter      E             dE          RMSdq      gap      omega  full diag
   1    -51.0723691 -0.510724E+02  0.993E-02    3.57       0.0  T
   2    -51.0723738 -0.471180E-05  0.562E-02    3.58       1.0  T
   3    -51.0723740 -0.177997E-06  0.811E-03    3.57       2.1  T
   4    -51.0723750 -0.988999E-06  0.294E-03    3.57       5.9  T
   5    -51.0723750 -0.188661E-07  0.154E-03    3.57      11.3  T
   6    -51.0723751 -0.317102E-07  0.571E-04    3.57      30.5  T
   7    -51.0723751 -0.422627E-08  0.283E-04    3.57      61.5  T
     SCC iter.                  ...        0 min,  0.010 sec
     gradient                   ...        0 min,  0.015 sec
 * total energy  :   -50.3630077 Eh     change       -0.4097090E-04 Eh
   gradient norm :     0.0056084 Eh/α   predicted    -0.3653520E-04 ( -10.83%)
   displ. norm   :     0.0178474 α      lambda       -0.3810538E-04
   maximum displ.:     0.0089973 α      in ANC's #5, #11, #2, ...

........................................................................
.............................. CYCLE   26 ..............................
........................................................................

 iter      E             dE          RMSdq      gap      omega  full diag
   1    -51.0733942 -0.510734E+02  0.171E-02    3.57       0.0  T
   2    -51.0733943 -0.172903E-06  0.950E-03    3.57       1.8  T
   3    -51.0733943  0.260763E-07  0.167E-03    3.57      10.4  T
   4    -51.0733944 -0.588878E-07  0.707E-04    3.57      24.6  T
   5    -51.0733944 -0.105114E-07  0.261E-04    3.57      66.7  T
     SCC iter.                  ...        0 min,  0.007 sec
     gradient                   ...        0 min,  0.030 sec
 * total energy  :   -50.3630386 Eh     change       -0.3092248E-04 Eh
   gradient norm :     0.0034878 Eh/α   predicted    -0.1906289E-04 ( -38.35%)
   displ. norm   :     0.1563801 α      lambda       -0.7979703E-04
   maximum displ.:     0.0850478 α      in ANC's #9, #2, #3, ...

........................................................................
.............................. CYCLE   27 ..............................
........................................................................

 iter      E             dE          RMSdq      gap      omega  full diag
   1    -51.0744166 -0.510744E+02  0.385E-02    3.58       0.0  T
   2    -51.0744177 -0.105981E-05  0.219E-02    3.58       1.0  T
   3    -51.0744173  0.377758E-06  0.516E-03    3.58       3.4  T
   4    -51.0744179 -0.561313E-06  0.192E-03    3.58       9.1  T
   5    -51.0744180 -0.726154E-07  0.763E-04    3.58      22.8  T
   6    -51.0744180 -0.312652E-08  0.310E-04    3.58      56.2  T
     SCC iter.                  ...        0 min,  0.008 sec
     gradient                   ...        0 min,  0.015 sec
 * total energy  :   -50.3630958 Eh     change       -0.5721992E-04 Eh
   gradient norm :     0.0017712 Eh/α   predicted    -0.4087561E-04 ( -28.56%)
   displ. norm   :     0.3994997 α      lambda       -0.6793223E-04
   maximum displ.:     0.2154055 α      in ANC's #9, #2, #3, ...

........................................................................
.............................. CYCLE   28 ..............................
........................................................................

 iter      E             dE          RMSdq      gap      omega  full diag
   1    -51.0725751 -0.510726E+02  0.873E-02    3.59       0.0  T
   2    -51.0725789 -0.375835E-05  0.504E-02    3.59       1.0  T
   3    -51.0725780  0.943715E-06  0.939E-03    3.59       1.9  T
   4    -51.0725798 -0.182347E-05  0.364E-03    3.59       4.8  T
   5    -51.0725799 -0.161995E-06  0.182E-03    3.59       9.6  T
   6    -51.0725800 -0.405812E-07  0.529E-04    3.59      32.9  T
   7    -51.0725800 -0.368736E-08  0.201E-04    3.59      86.7  T
     SCC iter.                  ...        0 min,  0.010 sec
     gradient                   ...        0 min,  0.015 sec
 * total energy  :   -50.3631372 Eh     change       -0.4138872E-04 Eh
   gradient norm :     0.0055577 Eh/α   predicted    -0.3638305E-04 ( -12.09%)
   displ. norm   :     0.0274795 α      lambda       -0.5942188E-04
   maximum displ.:     0.0164780 α      in ANC's #9, #13, #16, ...

........................................................................
.............................. CYCLE   29 ..............................
........................................................................

 iter      E             dE          RMSdq      gap      omega  full diag
   1    -51.0740301 -0.510740E+02  0.181E-02    3.59       0.0  T
   2    -51.0740305 -0.336919E-06  0.101E-02    3.59       1.7  T
   3    -51.0740302  0.246099E-06  0.388E-03    3.59       4.5  T
   4    -51.0740305 -0.318599E-06  0.123E-03    3.59      14.2  T
   5    -51.0740306 -0.273133E-07  0.464E-04    3.59      37.5  T
   6    -51.0740306 -0.150010E-09  0.208E-04    3.59      83.8  T
     SCC iter.                  ...        0 min,  0.023 sec
     gradient                   ...        0 min,  0.015 sec
 * total energy  :   -50.3631772 Eh     change       -0.4002681E-04 Eh
   gradient norm :     0.0027202 Eh/α   predicted    -0.2973388E-04 ( -25.72%)
   displ. norm   :     0.1303192 α      lambda       -0.4825572E-04
   maximum displ.:     0.0599205 α      in ANC's #2, #3, #9, ...

........................................................................
.............................. CYCLE   30 ..............................
........................................................................

 iter      E             dE          RMSdq      gap      omega  full diag
   1    -51.0744783 -0.510745E+02  0.364E-02    3.59       0.0  T
   2    -51.0744788 -0.514559E-06  0.207E-02    3.59       1.0  T
   3    -51.0744779  0.883512E-06  0.622E-03    3.59       2.8  T
   4    -51.0744790 -0.108789E-05  0.139E-03    3.59      12.5  T
   5    -51.0744790 -0.202949E-07  0.577E-04    3.59      30.2  T
   6    -51.0744790 -0.445205E-09  0.175E-04    3.59      99.5  T
     SCC iter.                  ...        0 min,  0.008 sec
     gradient                   ...        0 min,  0.015 sec
 * total energy  :   -50.3632145 Eh     change       -0.3724947E-04 Eh
   gradient norm :     0.0017410 Eh/α   predicted    -0.2454121E-04 ( -34.12%)
   displ. norm   :     0.3849629 α      lambda       -0.5747868E-04
   maximum displ.:     0.1706383 α      in ANC's #2, #9, #3, ...

........................................................................
.............................. CYCLE   31 ..............................
........................................................................

 iter      E             dE          RMSdq      gap      omega  full diag
   1    -51.0722140 -0.510722E+02  0.827E-02    3.59       0.0  T
   2    -51.0722160 -0.206759E-05  0.481E-02    3.59       1.0  T
   3    -51.0722116  0.437927E-05  0.139E-02    3.58       1.3  T
   4    -51.0722169 -0.530283E-05  0.325E-03    3.58       5.4  T
   5    -51.0722170 -0.747077E-07  0.136E-03    3.58      12.8  T
   6    -51.0722170 -0.621173E-08  0.448E-04    3.58      38.9  T
   7    -51.0722170 -0.186986E-08  0.213E-04    3.58      81.8  T
     SCC iter.                  ...        0 min,  0.010 sec
     gradient                   ...        0 min,  0.015 sec
 * total energy  :   -50.3632292 Eh     change       -0.1474885E-04 Eh
   gradient norm :     0.0057977 Eh/α   predicted    -0.3063509E-04 ( 107.71%)
   displ. norm   :     0.0985336 α      lambda       -0.7031101E-04
   maximum displ.:     0.0527591 α      in ANC's #9, #2, #3, ...

........................................................................
.............................. CYCLE   32 ..............................
........................................................................

 iter      E             dE          RMSdq      gap      omega  full diag
   1    -51.0743535 -0.510744E+02  0.343E-02    3.58       0.0  T
   2    -51.0743543 -0.819973E-06  0.193E-02    3.58       1.0  T
   3    -51.0743543  0.139156E-07  0.338E-03    3.58       5.2  T
   4    -51.0743544 -0.166491E-06  0.140E-03    3.58      12.4  T
   5    -51.0743545 -0.240949E-07  0.713E-04    3.58      24.4  T
   6    -51.0743545 -0.381330E-08  0.262E-04    3.58      66.4  T
     SCC iter.                  ...        0 min,  0.008 sec
     gradient                   ...        0 min,  0.015 sec
 * total energy  :   -50.3632655 Eh     change       -0.3631851E-04 Eh
   gradient norm :     0.0021794 Eh/α   predicted    -0.3549856E-04 (  -2.26%)
   displ. norm   :     0.0367443 α      lambda       -0.1605171E-04
   maximum displ.:     0.0169106 α      in ANC's #1, #10, #9, ...

........................................................................
.............................. CYCLE   33 ..............................
........................................................................

 iter      E             dE          RMSdq      gap      omega  full diag
   1    -51.0744766 -0.510745E+02  0.164E-02    3.58       0.0  T
   2    -51.0744767 -0.111687E-06  0.918E-03    3.58       1.9  T
   3    -51.0744767 -0.428524E-08  0.117E-03    3.58      14.9  T
   4    -51.0744767 -0.216946E-07  0.536E-04    3.58      32.4  T
   5    -51.0744767 -0.394139E-08  0.257E-04    3.58      67.7  T
     SCC iter.                  ...        0 min,  0.007 sec
     gradient                   ...        0 min,  0.015 sec
 * total energy  :   -50.3632791 Eh     change       -0.1353150E-04 Eh
   gradient norm :     0.0012884 Eh/α   predicted    -0.8038105E-05 ( -40.60%)
   displ. norm   :     0.2499009 α      lambda       -0.4212793E-04
   maximum displ.:     0.1174603 α      in ANC's #10, #1, #9, ...

........................................................................
.............................. CYCLE   34 ..............................
........................................................................

 iter      E             dE          RMSdq      gap      omega  full diag
   1    -51.0738997 -0.510739E+02  0.735E-02    3.56       0.0  T
   2    -51.0739015 -0.183977E-05  0.418E-02    3.56       1.0  T
   3    -51.0739014  0.116337E-06  0.585E-03    3.56       3.0  T
   4    -51.0739019 -0.542561E-06  0.275E-03    3.56       6.3  T
   5    -51.0739020 -0.980318E-07  0.131E-03    3.56      13.3  T
   6    -51.0739020 -0.160484E-07  0.314E-04    3.56      55.4  T
   7    -51.0739020 -0.109343E-08  0.127E-04    3.56     137.5  T
     SCC iter.                  ...        0 min,  0.010 sec
     gradient                   ...        0 min,  0.015 sec
 * total energy  :   -50.3633114 Eh     change       -0.3231002E-04 Eh
   gradient norm :     0.0030096 Eh/α   predicted    -0.2166129E-04 ( -32.96%)
   displ. norm   :     0.0535821 α      lambda       -0.1648946E-04
   maximum displ.:     0.0280434 α      in ANC's #1, #5, #10, ...

........................................................................
.............................. CYCLE   35 ..............................
........................................................................

 iter      E             dE          RMSdq      gap      omega  full diag
   1    -51.0742276 -0.510742E+02  0.136E-02    3.56       0.0  T
   2    -51.0742277 -0.757655E-07  0.778E-03    3.56       2.2  T
   3    -51.0742276  0.608090E-07  0.191E-03    3.56       9.1  T
   4    -51.0742277 -0.794736E-07  0.677E-04    3.56      25.7  T
   5    -51.0742277 -0.662209E-08  0.275E-04    3.56      63.3  T
     SCC iter.                  ...        0 min,  0.007 sec
     gradient                   ...        0 min,  0.015 sec
 * total energy  :   -50.3633262 Eh     change       -0.1482317E-04 Eh
   gradient norm :     0.0025650 Eh/α   predicted    -0.8268980E-05 ( -44.22%)
   displ. norm   :     0.3191372 α      lambda       -0.7937190E-04
   maximum displ.:     0.1655565 α      in ANC's #1, #10, #5, ...

........................................................................
.............................. CYCLE   36 ..............................
........................................................................

 iter      E             dE          RMSdq      gap      omega  full diag
   1    -51.0733445 -0.510733E+02  0.739E-02    3.55       0.0  T
   2    -51.0733463 -0.179956E-05  0.426E-02    3.54       1.0  T
   3    -51.0733465 -0.263494E-06  0.494E-03    3.54       3.5  T
   4    -51.0733467 -0.174221E-06  0.214E-03    3.54       8.1  T
   5    -51.0733467 -0.264265E-08  0.829E-04    3.54      21.0  T
   6    -51.0733467 -0.115045E-07  0.282E-04    3.54      61.8  T
     SCC iter.                  ...        0 min,  0.008 sec
     gradient                   ...        0 min,  0.015 sec
 * total energy  :   -50.3633761 Eh     change       -0.4988464E-04 Eh
   gradient norm :     0.0034927 Eh/α   predicted    -0.4370406E-04 ( -12.39%)
   displ. norm   :     0.1975854 α      lambda       -0.7171297E-04
   maximum displ.:     0.1214222 α      in ANC's #1, #5, #10, ...

........................................................................
.............................. CYCLE   37 ..............................
........................................................................

 iter      E             dE          RMSdq      gap      omega  full diag
   1    -51.0749565 -0.510750E+02  0.604E-02    3.54       0.0  T
   2    -51.0749580 -0.156650E-05  0.341E-02    3.54       1.0  T
   3    -51.0749553  0.279290E-05  0.112E-02    3.54       1.5  T
   4    -51.0749587 -0.346871E-05  0.278E-03    3.54       6.3  T
   5    -51.0749588 -0.652707E-07  0.102E-03    3.54      17.0  T
   6    -51.0749588 -0.519847E-08  0.330E-04    3.54      52.7  T
   7    -51.0749588 -0.827747E-09  0.151E-04    3.54     115.1  T
     SCC iter.                  ...        0 min,  0.010 sec
     gradient                   ...        0 min,  0.015 sec
 * total energy  :   -50.3634092 Eh     change       -0.3311938E-04 Eh
   gradient norm :     0.0026683 Eh/α   predicted    -0.3725767E-04 (  12.50%)
   displ. norm   :     0.3061356 α      lambda       -0.5600294E-04
   maximum displ.:     0.1809582 α      in ANC's #1, #5, #10, ...

........................................................................
.............................. CYCLE   38 ..............................
........................................................................

 iter      E             dE          RMSdq      gap      omega  full diag
   1    -51.0723002 -0.510723E+02  0.899E-02    3.53       0.0  T
   2    -51.0723030 -0.279859E-05  0.510E-02    3.53       1.0  T
   3    -51.0723026  0.374499E-06  0.768E-03    3.53       2.3  T
   4    -51.0723036 -0.101850E-05  0.372E-03    3.53       4.7  T
   5    -51.0723038 -0.189394E-06  0.147E-03    3.53      11.8  T
   6    -51.0723038 -0.164927E-07  0.393E-04    3.53      44.3  T
   7    -51.0723038 -0.626557E-09  0.166E-04    3.53     104.6  T
     SCC iter.                  ...        0 min,  0.010 sec
     gradient                   ...        0 min,  0.016 sec
 * total energy  :   -50.3634333 Eh     change       -0.2410024E-04 Eh
   gradient norm :     0.0045959 Eh/α   predicted    -0.3062991E-04 (  27.09%)
   displ. norm   :     0.0425056 α      lambda       -0.4767719E-04
   maximum displ.:     0.0188534 α      in ANC's #3, #10, #7, ...

........................................................................
.............................. CYCLE   39 ..............................
........................................................................

 iter      E             dE          RMSdq      gap      omega  full diag
   1    -51.0741402 -0.510741E+02  0.232E-02    3.53       0.0  T
   2    -51.0741408 -0.602871E-06  0.132E-02    3.53       1.3  T
   3    -51.0741398  0.945202E-06  0.666E-03    3.53       2.6  T
   4    -51.0741410 -0.118390E-05  0.136E-03    3.53      12.8  T
   5    -51.0741410 -0.298860E-07  0.503E-04    3.53      34.6  T
   6    -51.0741410 -0.230806E-09  0.176E-04    3.53      98.9  T
     SCC iter.                  ...        0 min,  0.008 sec
     gradient                   ...        0 min,  0.015 sec
 * total energy  :   -50.3634649 Eh     change       -0.3155311E-04 Eh
   gradient norm :     0.0021884 Eh/α   predicted    -0.2388523E-04 ( -24.30%)
   displ. norm   :     0.2022541 α      lambda       -0.4030309E-04
   maximum displ.:     0.1348290 α      in ANC's #1, #5, #10, ...

........................................................................
.............................. CYCLE   40 ..............................
........................................................................

 iter      E             dE          RMSdq      gap      omega  full diag
   1    -51.0740255 -0.510740E+02  0.791E-02    3.53       0.0  T
   2    -51.0740274 -0.193175E-05  0.443E-02    3.53       1.0  T
   3    -51.0740279 -0.478741E-06  0.403E-03    3.53       4.3  T
   4    -51.0740280 -0.110385E-06  0.214E-03    3.53       8.1  T
   5    -51.0740280 -0.483116E-07  0.875E-04    3.53      19.9  T
   6    -51.0740280 -0.119601E-07  0.326E-04    3.53      53.4  T
     SCC iter.                  ...        0 min,  0.008 sec
     gradient                   ...        0 min,  0.015 sec
 * total energy  :   -50.3634904 Eh     change       -0.2550371E-04 Eh
   gradient norm :     0.0028820 Eh/α   predicted    -0.2098078E-04 ( -17.73%)
   displ. norm   :     0.1552855 α      lambda       -0.2696044E-04
   maximum displ.:     0.1015126 α      in ANC's #1, #5, #10, ...

........................................................................
.............................. CYCLE   41 ..............................
........................................................................

 iter      E             dE          RMSdq      gap      omega  full diag
   1    -51.0744104 -0.510744E+02  0.530E-02    3.53       0.0  T
   2    -51.0744113 -0.985932E-06  0.297E-02    3.53       1.0  T
   3    -51.0744114 -0.757799E-07  0.371E-03    3.53       4.7  T
   4    -51.0744115 -0.129469E-06  0.218E-03    3.53       8.0  T
   5    -51.0744116 -0.760651E-07  0.773E-04    3.53      22.5  T
   6    -51.0744116 -0.587045E-08  0.292E-04    3.53      59.7  T
     SCC iter.                  ...        0 min,  0.008 sec
     gradient                   ...        0 min,  0.024 sec
 * total energy  :   -50.3635038 Eh     change       -0.1343144E-04 Eh
   gradient norm :     0.0021790 Eh/α   predicted    -0.1380721E-04 (   2.80%)
   displ. norm   :     0.1126479 α      lambda       -0.1743754E-04
   maximum displ.:     0.0703334 α      in ANC's #1, #5, #10, ...

........................................................................
.............................. CYCLE   42 ..............................
........................................................................

 iter      E             dE          RMSdq      gap      omega  full diag
   1    -51.0742351 -0.510742E+02  0.322E-02    3.53       0.0  T
   2    -51.0742355 -0.409983E-06  0.183E-02    3.53       1.0  T
   3    -51.0742351  0.440668E-06  0.460E-03    3.53       3.8  T
   4    -51.0742356 -0.546984E-06  0.159E-03    3.53      11.0  T
   5    -51.0742357 -0.353223E-07  0.577E-04    3.53      30.2  T
   6    -51.0742357 -0.602697E-09  0.248E-04    3.53      70.2  T
     SCC iter.                  ...        0 min,  0.008 sec
     gradient                   ...        0 min,  0.015 sec
 * total energy  :   -50.3635129 Eh     change       -0.9115375E-05 Eh
   gradient norm :     0.0023328 Eh/α   predicted    -0.8831103E-05 (  -3.12%)
   displ. norm   :     0.0267983 α      lambda       -0.8874580E-05
   maximum displ.:     0.0156624 α      in ANC's #2, #1, #10, ...
 * RMSD in coord.:     0.4289130 α      energy gain  -0.6106456E-03 Eh

generating ANC from exact Hessian ...
Using Lindh-Hessian (1995)
 Shifting diagonal of input Hessian by    9.8115184184688030E-003
 Lowest  eigenvalues of input Hessian
    0.000000    0.000000    0.000000    0.000000    0.000000    0.000000
    0.010000    0.010240    0.010538    0.010860    0.011938    0.012607
    0.013152    0.014940    0.016693    0.017420    0.018330    0.020524
 Highest eigenvalues
    1.926827    2.083131    2.155417    2.192268    2.289134    2.878482


........................................................................
.............................. CYCLE   43 ..............................
........................................................................

 iter      E             dE          RMSdq      gap      omega  full diag
   1    -51.0746031 -0.510746E+02  0.686E-03    3.53       0.0  T
   2    -51.0746032 -0.585798E-07  0.405E-03    3.53       4.3  T
   3    -51.0746031  0.106153E-06  0.240E-03    3.52       7.3  T
   4    -51.0746032 -0.135022E-06  0.433E-04    3.52      40.2  T
   5    -51.0746032 -0.362916E-08  0.153E-04    3.52     113.6  T
     SCC iter.                  ...        0 min,  0.007 sec
     gradient                   ...        0 min,  0.015 sec
 * total energy  :   -50.3635200 Eh     change       -0.7121470E-05 Eh
   gradient norm :     0.0014297 Eh/α   predicted     0.0000000E+00 (-100.00%)
   displ. norm   :     0.0194795 α      lambda       -0.4250611E-05
   maximum displ.:     0.0101165 α      in ANC's #10, #2, #3, ...

........................................................................
.............................. CYCLE   44 ..............................
........................................................................

 iter      E             dE          RMSdq      gap      omega  full diag
   1    -51.0751342 -0.510751E+02  0.631E-03    3.52       0.0  T
   2    -51.0751343 -0.102437E-06  0.371E-03    3.52       4.7  T
   3    -51.0751342  0.621598E-07  0.222E-03    3.52       7.8  T
   4    -51.0751343 -0.914471E-07  0.663E-04    3.52      26.3  T
   5    -51.0751343 -0.784798E-08  0.163E-04    3.52     107.1  T
     SCC iter.                  ...        0 min,  0.016 sec
     gradient                   ...        0 min,  0.015 sec
 * total energy  :   -50.3635254 Eh     change       -0.5404176E-05 Eh
   gradient norm :     0.0005845 Eh/α   predicted    -0.2645665E-05 ( -51.04%)
   displ. norm   :     0.0462714 α      lambda       -0.5979044E-05
   maximum displ.:     0.0237588 α      in ANC's #10, #3, #2, ...

........................................................................
.............................. CYCLE   45 ..............................
........................................................................

 iter      E             dE          RMSdq      gap      omega  full diag
   1    -51.0755286 -0.510755E+02  0.221E-02    3.52       0.0  T
   2    -51.0755288 -0.227751E-06  0.124E-02    3.52       1.4  T
   3    -51.0755285  0.262159E-06  0.347E-03    3.52       5.0  T
   4    -51.0755289 -0.340925E-06  0.902E-04    3.52      19.3  T
   5    -51.0755289 -0.129815E-07  0.352E-04    3.52      49.5  T
     SCC iter.                  ...        0 min,  0.007 sec
     gradient                   ...        0 min,  0.015 sec
 * total energy  :   -50.3635301 Eh     change       -0.4607491E-05 Eh
   gradient norm :     0.0012718 Eh/α   predicted    -0.2998250E-05 ( -34.93%)
   displ. norm   :     0.1932536 α      lambda       -0.2393161E-04
   maximum displ.:     0.1019145 α      in ANC's #10, #2, #3, ...

........................................................................
.............................. CYCLE   46 ..............................
........................................................................

 iter      E             dE          RMSdq      gap      omega  full diag
   1    -51.0760886 -0.510761E+02  0.485E-02    3.51       0.0  T
   2    -51.0760905 -0.191593E-05  0.277E-02    3.52       1.0  T
   3    -51.0760897  0.833225E-06  0.754E-03    3.51       2.3  T
   4    -51.0760907 -0.103866E-05  0.296E-03    3.51       5.9  T
   5    -51.0760909 -0.172589E-06  0.116E-03    3.51      15.0  T
   6    -51.0760909 -0.112201E-07  0.417E-04    3.51      41.8  T
   7    -51.0760909 -0.255366E-08  0.145E-04    3.51     119.9  T
     SCC iter.                  ...        0 min,  0.010 sec
     gradient                   ...        0 min,  0.015 sec
 * total energy  :   -50.3635338 Eh     change       -0.3778406E-05 Eh
   gradient norm :     0.0032296 Eh/α   predicted    -0.1216893E-04 ( 222.07%)
   displ. norm   :     0.0134956 α      lambda       -0.1714728E-04
   maximum displ.:     0.0054656 α      in ANC's #8, #9, #11, ...

........................................................................
.............................. CYCLE   47 ..............................
........................................................................

 iter      E             dE          RMSdq      gap      omega  full diag
   1    -51.0755123 -0.510755E+02  0.138E-02    3.51       0.0  T
   2    -51.0755125 -0.147057E-06  0.779E-03    3.51       2.2  T
   3    -51.0755122  0.286074E-06  0.359E-03    3.51       4.8  T
   4    -51.0755125 -0.353187E-06  0.667E-04    3.51      26.1  T
   5    -51.0755125 -0.844917E-08  0.239E-04    3.51      72.8  T
     SCC iter.                  ...        0 min,  0.007 sec
     gradient                   ...        0 min,  0.021 sec
 * total energy  :   -50.3635474 Eh     change       -0.1357362E-04 Eh
   gradient norm :     0.0021415 Eh/α   predicted    -0.8577493E-05 ( -36.81%)
   displ. norm   :     0.0536501 α      lambda       -0.2218544E-04
   maximum displ.:     0.0250813 α      in ANC's #3, #2, #10, ...

........................................................................
.............................. CYCLE   48 ..............................
........................................................................

 iter      E             dE          RMSdq      gap      omega  full diag
   1    -51.0746991 -0.510747E+02  0.230E-02    3.52       0.0  T
   2    -51.0746995 -0.401207E-06  0.130E-02    3.52       1.3  T
   3    -51.0746988  0.616457E-06  0.533E-03    3.52       3.3  T
   4    -51.0746996 -0.755165E-06  0.125E-03    3.52      14.0  T
   5    -51.0746996 -0.241788E-07  0.479E-04    3.52      36.3  T
   6    -51.0746996 -0.565301E-09  0.199E-04    3.52      87.4  T
     SCC iter.                  ...        0 min,  0.008 sec
     gradient                   ...        0 min,  0.015 sec
 * total energy  :   -50.3635616 Eh     change       -0.1421359E-04 Eh
   gradient norm :     0.0010502 Eh/α   predicted    -0.1112797E-04 ( -21.71%)
   displ. norm   :     0.1145498 α      lambda       -0.9463235E-05
   maximum displ.:     0.0589447 α      in ANC's #10, #2, #3, ...

........................................................................
.............................. CYCLE   49 ..............................
........................................................................

 iter      E             dE          RMSdq      gap      omega  full diag
   1    -51.0740466 -0.510740E+02  0.231E-02    3.52       0.0  T
   2    -51.0740469 -0.264115E-06  0.132E-02    3.52       1.3  T
   3    -51.0740467  0.223536E-06  0.366E-03    3.52       4.8  T
   4    -51.0740469 -0.264110E-06  0.147E-03    3.52      11.9  T
   5    -51.0740470 -0.272751E-07  0.550E-04    3.52      31.6  T
   6    -51.0740470 -0.275796E-08  0.181E-04    3.52      96.4  T
     SCC iter.                  ...        0 min,  0.008 sec
     gradient                   ...        0 min,  0.015 sec
 * total energy  :   -50.3635705 Eh     change       -0.8922723E-05 Eh
   gradient norm :     0.0020151 Eh/α   predicted    -0.4760628E-05 ( -46.65%)
   displ. norm   :     0.0609521 α      lambda       -0.8889910E-05
   maximum displ.:     0.0312904 α      in ANC's #10, #2, #3, ...

........................................................................
.............................. CYCLE   50 ..............................
........................................................................

 iter      E             dE          RMSdq      gap      omega  full diag
   1    -51.0742197 -0.510742E+02  0.116E-02    3.52       0.0  T
   2    -51.0742198 -0.471858E-07  0.665E-03    3.52       2.6  T
   3    -51.0742198 -0.425845E-08  0.979E-04    3.52      17.8  T
   4    -51.0742198 -0.441170E-08  0.432E-04    3.52      40.3  T
     SCC iter.                  ...        0 min,  0.006 sec
     gradient                   ...        0 min,  0.015 sec
 * total energy  :   -50.3635779 Eh     change       -0.7332436E-05 Eh
   gradient norm :     0.0020115 Eh/α   predicted    -0.4465044E-05 ( -39.11%)
   displ. norm   :     0.1365509 α      lambda       -0.1694837E-04
   maximum displ.:     0.0724444 α      in ANC's #10, #2, #3, ...

........................................................................
.............................. CYCLE   51 ..............................
........................................................................

 iter      E             dE          RMSdq      gap      omega  full diag
   1    -51.0743423 -0.510743E+02  0.256E-02    3.52       0.0  T
   2    -51.0743424 -0.158341E-06  0.148E-02    3.52       1.2  T
   3    -51.0743424  0.417779E-07  0.226E-03    3.52       7.7  T
   4    -51.0743425 -0.793488E-07  0.112E-03    3.52      15.6  T
   5    -51.0743425 -0.130208E-07  0.411E-04    3.52      42.3  T
   6    -51.0743425 -0.300152E-08  0.159E-04    3.52     109.7  T
     SCC iter.                  ...        0 min,  0.008 sec
     gradient                   ...        0 min,  0.015 sec
 * total energy  :   -50.3635890 Eh     change       -0.1110838E-04 Eh
   gradient norm :     0.0018939 Eh/α   predicted    -0.8632437E-05 ( -22.29%)
   displ. norm   :     0.0939370 α      lambda       -0.1009993E-04
   maximum displ.:     0.0492809 α      in ANC's #10, #2, #3, ...

........................................................................
.............................. CYCLE   52 ..............................
........................................................................

 iter      E             dE          RMSdq      gap      omega  full diag
   1    -51.0751745 -0.510752E+02  0.207E-02    3.53       0.0  T
   2    -51.0751747 -0.218948E-06  0.119E-02    3.53       1.5  T
   3    -51.0751747  0.404944E-07  0.199E-03    3.53       8.7  T
   4    -51.0751747 -0.726082E-07  0.945E-04    3.53      18.4  T
   5    -51.0751748 -0.155631E-07  0.381E-04    3.53      45.6  T
     SCC iter.                  ...        0 min,  0.007 sec
     gradient                   ...        0 min,  0.015 sec
 * total energy  :   -50.3635976 Eh     change       -0.8659729E-05 Eh
   gradient norm :     0.0012669 Eh/α   predicted    -0.5071885E-05 ( -41.43%)
   displ. norm   :     0.2702829 α      lambda       -0.1404462E-04
   maximum displ.:     0.1546579 α      in ANC's #10, #2, #3, ...

........................................................................
.............................. CYCLE   53 ..............................
........................................................................

 iter      E             dE          RMSdq      gap      omega  full diag
   1    -51.0735184 -0.510735E+02  0.501E-02    3.53       0.0  T
   2    -51.0735193 -0.859374E-06  0.293E-02    3.53       1.0  T
   3    -51.0735192  0.688053E-07  0.396E-03    3.52       4.4  T
   4    -51.0735194 -0.209929E-06  0.192E-03    3.52       9.1  T
   5    -51.0735195 -0.484449E-07  0.735E-04    3.52      23.7  T
   6    -51.0735195 -0.480905E-08  0.302E-04    3.52      57.6  T
     SCC iter.                  ...        0 min,  0.008 sec
     gradient                   ...        0 min,  0.015 sec
 * total energy  :   -50.3635907 Eh     change        0.6990305E-05 Eh
   gradient norm :     0.0041831 Eh/α   predicted    -0.7250721E-05 (-203.73%)
   displ. norm   :     0.0951493 α      lambda       -0.3840975E-04
   maximum displ.:     0.0489453 α      in ANC's #10, #2, #3, ...

........................................................................
.............................. CYCLE   54 ..............................
........................................................................

 iter      E             dE          RMSdq      gap      omega  full diag
   1    -51.0745624 -0.510746E+02  0.194E-02    3.52       0.0  T
   2    -51.0745627 -0.310407E-06  0.110E-02    3.52       1.6  T
   3    -51.0745627  0.167606E-07  0.228E-03    3.52       7.6  T
   4    -51.0745627 -0.355603E-07  0.115E-03    3.52      15.2  T
   5    -51.0745628 -0.212474E-07  0.482E-04    3.52      36.1  T
   6    -51.0745628 -0.235882E-08  0.181E-04    3.52      96.0  T
     SCC iter.                  ...        0 min,  0.009 sec
     gradient                   ...        0 min,  0.015 sec
 * total energy  :   -50.3636126 Eh     change       -0.2196482E-04 Eh
   gradient norm :     0.0013978 Eh/α   predicted    -0.1937910E-04 ( -11.77%)
   displ. norm   :     0.0588548 α      lambda       -0.9223049E-05
   maximum displ.:     0.0342467 α      in ANC's #1, #10, #5, ...

........................................................................
.............................. CYCLE   55 ..............................
........................................................................

 iter      E             dE          RMSdq      gap      omega  full diag
   1    -51.0750525 -0.510751E+02  0.147E-02    3.52       0.0  T
   2    -51.0750527 -0.124392E-06  0.845E-03    3.52       2.1  T
   3    -51.0750525  0.163712E-06  0.273E-03    3.52       6.4  T
   4    -51.0750527 -0.195013E-06  0.786E-04    3.52      22.1  T
   5    -51.0750527 -0.922783E-08  0.291E-04    3.52      59.7  T
     SCC iter.                  ...        0 min,  0.007 sec
     gradient                   ...        0 min,  0.015 sec
 * total energy  :   -50.3636222 Eh     change       -0.9575753E-05 Eh
   gradient norm :     0.0006734 Eh/α   predicted    -0.4622908E-05 ( -51.72%)
   displ. norm   :     0.1721762 α      lambda       -0.1190346E-04
   maximum displ.:     0.0963501 α      in ANC's #10, #1, #2, ...

........................................................................
.............................. CYCLE   56 ..............................
........................................................................

 iter      E             dE          RMSdq      gap      omega  full diag
   1    -51.0747384 -0.510747E+02  0.405E-02    3.52       0.0  T
   2    -51.0747388 -0.364284E-06  0.234E-02    3.52       1.0  T
   3    -51.0747384  0.318043E-06  0.422E-03    3.52       4.1  T
   4    -51.0747389 -0.472254E-06  0.137E-03    3.52      12.7  T
   5    -51.0747389 -0.115965E-07  0.562E-04    3.52      31.0  T
   6    -51.0747389 -0.305774E-08  0.213E-04    3.52      81.7  T
     SCC iter.                  ...        0 min,  0.008 sec
     gradient                   ...        0 min,  0.028 sec
 * total energy  :   -50.3636380 Eh     change       -0.1584146E-04 Eh
   gradient norm :     0.0010747 Eh/α   predicted    -0.6033723E-05 ( -61.91%)
   displ. norm   :     0.5171938 α      lambda       -0.3123885E-04
   maximum displ.:     0.2821534 α      in ANC's #1, #10, #2, ...

........................................................................
.............................. CYCLE   57 ..............................
........................................................................

 iter      E             dE          RMSdq      gap      omega  full diag
   1    -51.0701709 -0.510702E+02  0.143E-01    3.51       0.0  T
   2    -51.0701790 -0.813856E-05  0.816E-02    3.51       1.0  T
   3    -51.0701774  0.161967E-05  0.130E-02    3.50       1.3  T
   4    -51.0701807 -0.333640E-05  0.607E-03    3.50       2.9  T
   5    -51.0701813 -0.580986E-06  0.246E-03    3.50       7.1  T
   6    -51.0701813 -0.116347E-07  0.962E-04    3.50      18.1  T
   7    -51.0701813 -0.173069E-07  0.339E-04    3.50      51.3  T
     SCC iter.                  ...        0 min,  0.010 sec
     gradient                   ...        0 min,  0.015 sec
 * total energy  :   -50.3635194 Eh     change        0.1186669E-03 Eh
   gradient norm :     0.0109070 Eh/α   predicted    -0.1748421E-04 (-114.73%)
   displ. norm   :     0.2443334 α      lambda       -0.2869997E-03
   maximum displ.:     0.1412212 α      in ANC's #10, #1, #2, ...

........................................................................
.............................. CYCLE   58 ..............................
........................................................................

 iter      E             dE          RMSdq      gap      omega  full diag
   1    -51.0737478 -0.510737E+02  0.586E-02    3.50       0.0  T
   2    -51.0737504 -0.261299E-05  0.337E-02    3.51       1.0  T
   3    -51.0737494  0.104511E-05  0.827E-03    3.51       2.1  T
   4    -51.0737507 -0.126432E-05  0.355E-03    3.51       4.9  T
   5    -51.0737509 -0.269042E-06  0.120E-03    3.51      14.5  T
   6    -51.0737509  0.777902E-10  0.542E-04    3.51      32.1  T
   7    -51.0737509 -0.515170E-08  0.166E-04    3.51     104.7  T
     SCC iter.                  ...        0 min,  0.010 sec
     gradient                   ...        0 min,  0.015 sec
 * total energy  :   -50.3636560 Eh     change       -0.1365884E-03 Eh
   gradient norm :     0.0026673 Eh/α   predicted    -0.1519534E-03 (  11.25%)
   displ. norm   :     0.0305085 α      lambda       -0.9682565E-05
   maximum displ.:     0.0188652 α      in ANC's #1, #5, #3, ...

........................................................................
.............................. CYCLE   59 ..............................
[...]
   MERCHANTABILITY or FITNESS FOR A PARTICULAR PURPOSE.  See the
   GNU Lesser General Public License for more details.
   
   Cite this work as:
   * C. Bannwarth, E. Caldeweyher, S. Ehlert, A. Hansen, P. Pracht,
     J. Seibert, S. Spicher, S. Grimme, WIREs Comput. Mol. Sci., 2020, 11,
     e01493. DOI: 10.1002/wcms.1493
   
   for GFN2-xTB:
   * C. Bannwarth, S. Ehlert and S. Grimme., J. Chem. Theory Comput., 2019,
     15, 1652-1671. DOI: 10.1021/acs.jctc.8b01176
   for GFN1-xTB:
   * S. Grimme, C. Bannwarth, P. Shushkov, J. Chem. Theory Comput., 2017,
     13, 1989-2009. DOI: 10.1021/acs.jctc.7b00118
   for GFN0-xTB:
   * P. Pracht, E. Caldeweyher, S. Ehlert, S. Grimme, ChemRxiv, 2019, preprint.
     DOI: 10.26434/chemrxiv.8326202.v1
   for GFN-FF:
   * S. Spicher and S. Grimme, Angew. Chem. Int. Ed., 2020, 59, 15665-15673.
     DOI: 10.1002/anie.202004239
   
   for ALPB and GBSA implicit solvation:
   * S. Ehlert, M. Stahn, S. Spicher, S. Grimme, J. Chem. Theory Comput.,
     2021, 17, 4250-4261. DOI: 10.1021/acs.jctc.1c00471
   
   for ddCOSMO and CPCM-X implicit solvation:
   * M. Stahn, S. Ehlert, S. Grimme, J. Phys. Chem. A,
     2023, XX, XXXX-XXXX. DOI: 10.1021/acs.jpca.3c04382
   
   for DFT-D4:
   * E. Caldeweyher, C. Bannwarth and S. Grimme, J. Chem. Phys., 2017,
     147, 034112. DOI: 10.1063/1.4993215
   * E. Caldeweyher, S. Ehlert, A. Hansen, H. Neugebauer, S. Spicher,
     C. Bannwarth and S. Grimme, J. Chem. Phys., 2019, 150, 154122.
     DOI: 10.1063/1.5090222
   * E. Caldeweyher, J.-M. Mewes, S. Ehlert and S. Grimme, Phys. Chem. Chem. Phys.
     2020, 22, 8499-8512. DOI: 10.1039/D0CP00502A
   
   for sTDA-xTB:
   * S. Grimme and C. Bannwarth, J. Chem. Phys., 2016, 145, 054103.
     DOI: 10.1063/1.4959605
   
   in the mass-spec context:
   * V. Asgeirsson, C. Bauer and S. Grimme, Chem. Sci., 2017, 8, 4879.
     DOI: 10.1039/c7sc00601b
   * J. Koopman and S. Grimme, ACS Omega 2019, 4, 12, 15120-15133.
     DOI: 10.1021/acsomega.9b02011
   
   for metadynamics refer to:
   * S. Grimme, J. Chem. Theory Comput., 2019, 155, 2847-2862
     DOI: 10.1021/acs.jctc.9b00143
   
   for SPH calculations refer to:
   * S. Spicher and S. Grimme, J. Chem. Theory Comput., 2021, 17, 1701-1714
     DOI: 10.1021/acs.jctc.0c01306
   
   for ONIOM refer to:
   * C. Plett, A. Katbashev, S. Ehlert, S. Grimme, M. Bursch,
     Phys. Chem. Chem. Phys., 2023, 25, 17860-17868. DOI: 10.1039/D3CP02178E
   
   for DIPRO refer to:
   * J. Kohn, N. Gildemeister, S. Grimme, D. Fazzi, A. Hansen,
     J. Chem. Phys., 2023, just accepted.
   
   for PTB refer to:
   * S. Grimme, M. Mueller, A. Hansen, J. Chem. Phys., 2023, 158, 124111.
     DOI: 10.1063/5.0137838
   
   with help from (in alphabetical order)
   P. Atkinson, C. Bannwarth, F. Bohle, G. Brandenburg, E. Caldeweyher
   M. Checinski, S. Dohm, S. Ehlert, S. Ehrlich, I. Gerasimov, C. Hölzer
   A. Katbashev, J. Kohn, J. Koopman, C. Lavigne, S. Lehtola, F. März, M. Müller,
   F. Musil, H. Neugebauer, J. Pisarek, C. Plett, P. Pracht, F. Pultar,
   J. Seibert, P. Shushkov, S. Spicher, M. Stahn, M. Steiner, T. Strunk,
   J. Stückrath, T. Rose, and J. Unsleber
   
 * started run on 2025/05/15 at 16:17:31.742     
   ID    Z sym.   atoms
    1    6 C      1, 3, 5, 6, 8-11, 13, 16
    2    7 N      2, 4, 12, 14, 15, 17
    3   16 S      7
    4    1 H      18-33

           -------------------------------------------------
          |                Calculation Setup                |
           -------------------------------------------------

          program call               : xtb /rds/general/user/hgt20/home/callum/QDESCP/Cimetadine_rdkit_conf_4/Cimetadine_rdkit_conf_4.xyz --acc 1 --gfn 2 --chrg 0 --uhf 2 --etemp 300 --input /rds/general/user/hgt20/home/callum/QDESCP/Cimetadine_rdkit_conf_4/Cimetadine_rdkit_conf_4_xtb.inp -P 1
          hostname                   : login-c
          coordinate file            : /rds/general/user/hgt20/home/callum/QDESCP/Cimetadine_rdkit_conf_4/Cimetadine_rdkit_conf_4.xyz
          omp threads                :                     1


           -------------------------------------------------
          |                 G F N 2 - x T B                 |
           -------------------------------------------------

        Reference                      10.1021/acs.jctc.8b01176
      * Hamiltonian:
        H0-scaling (s, p, d)           1.850000    2.230000    2.230000
        zeta-weighting                 0.500000
      * Dispersion:
        s8                             2.700000
        a1                             0.520000
        a2                             5.000000
        s9                             5.000000
      * Repulsion:
        kExp                           1.500000    1.000000
        rExp                           1.000000
      * Coulomb:
        alpha                          2.000000
        third order                    shell-resolved
        anisotropic                    true
        a3                             3.000000
        a5                             4.000000
        cn-shift                       1.200000
        cn-exp                         4.000000
        max-rad                        5.000000


          ...................................................
          :                      SETUP                      :
          :.................................................:
          :  # basis functions                  90          :
          :  # atomic orbitals                  89          :
          :  # shells                           51          :
          :  # electrons                        92          :
          :  max. iterations                   250          :
          :  Hamiltonian                  GFN2-xTB          :
          :  restarted?                      false          :
          :  GBSA solvation                  false          :
          :  PC potential                    false          :
          :  electronic temp.          300.0000000     K    :
          :  accuracy                    1.0000000          :
          :  -> integral cutoff          0.2500000E+02      :
          :  -> integral neglect         0.1000000E-07      :
          :  -> SCF convergence          0.1000000E-05 Eh   :
          :  -> wf. convergence          0.1000000E-03 e    :
          :  Broyden damping             0.4000000          :
          :  net charge                          0          :
          :  unpaired electrons                  2          :
          ...................................................

 iter      E             dE          RMSdq      gap      omega  full diag
   1    -50.6382769 -0.506383E+02  0.429E+00    0.50       0.0  T
   2    -50.6109377  0.273393E-01  0.345E+00    1.87       1.0  T
   3    -50.7175839 -0.106646E+00  0.267E+00    0.42       1.0  T
   4    -50.7181823 -0.598372E-03  0.193E+00    0.78       1.0  T
   5    -50.7494132 -0.312309E-01  0.200E+00    0.17       1.0  T
   6    -50.7621213 -0.127081E-01  0.177E+00    0.37       1.0  T
   7    -50.8070214 -0.449001E-01  0.145E+00    0.15       1.0  T
   8    -50.7850639  0.219575E-01  0.132E+00    0.21       1.0  T
   9    -50.8946839 -0.109620E+00  0.972E-01    0.11       1.0  T
  10    -50.9187018 -0.240179E-01  0.331E-01    0.13       1.0  T
  11    -50.8880615  0.306404E-01  0.770E-01    0.13       1.0  T
  12    -50.9069025 -0.188410E-01  0.463E-01    0.11       1.0  T
  13    -50.9194756 -0.125731E-01  0.215E-01    0.13       1.0  T
  14    -50.9221848 -0.270923E-02  0.123E-01    0.13       1.0  T
  15    -50.9212877  0.897120E-03  0.143E-01    0.13       1.0  T
  16    -50.9173767  0.391092E-02  0.320E-01    0.13       1.0  T
  17    -50.9221542 -0.477749E-02  0.129E-01    0.13       1.0  T
  18    -50.9228256 -0.671337E-03  0.545E-02    0.13       1.0  T
  19    -50.9228889 -0.632844E-04  0.320E-02    0.13       1.0  T
  20    -50.9229235 -0.346134E-04  0.615E-03    0.13       2.8  T
  21    -50.9229252 -0.171136E-05  0.310E-03    0.13       5.6  T
  22    -50.9229258 -0.599841E-06  0.120E-03    0.13      14.5  T
  23    -50.9229259 -0.105833E-06  0.451E-04    0.13      38.6  T
  24    -50.9229259  0.133385E-07  0.508E-04    0.13      34.3  T

   *** convergence criteria satisfied after 24 iterations ***

         #    Occupation            Energy/Eh            Energy/eV
      -------------------------------------------------------------
         1        2.0000           -0.7231956             -19.6792
       ...           ...                  ...                  ...
        41        2.0000           -0.3986162             -10.8469
        42        2.0000           -0.3973375             -10.8121
        43        1.9984           -0.3866499             -10.5213
        44        1.9196           -0.3828783             -10.4186
        45        1.8378           -0.3821225             -10.3981
        46        1.2442           -0.3794892             -10.3264
        47        0.9150           -0.2180013              -5.9321 (HOMO)
        48        0.0608           -0.2131426              -5.7999 (LUMO)
        49        0.0243           -0.2122341              -5.7752
        50                         -0.1817161              -4.9447
        51                         -0.1488069              -4.0492
        52                         -0.1427711              -3.8850
       ...                                ...                  ...
        89                          1.2372720              33.6679
      -------------------------------------------------------------
                  HL-Gap            0.0048587 Eh            0.1322 eV
             Fermi-level           -0.2981533 Eh           -8.1132 eV

 transition dipole moment (au) for excitation:          46          47
     X       Y       Z   
   0.6172  -0.1253  -0.4277  total (au/Debye):    0.761   1.935
 dE (eV)             :    4.394
 oscillator strength :  0.88239E-01

 SCC (total)                   0 d,  0 h,  0 min,  0.061 sec
 SCC setup                      ...        0 min,  0.000 sec (  0.453%)
 Dispersion                     ...        0 min,  0.000 sec (  0.503%)
 classical contributions        ...        0 min,  0.000 sec (  0.153%)
 integral evaluation            ...        0 min,  0.006 sec (  9.250%)
 iterations                     ...        0 min,  0.034 sec ( 55.728%)
 molecular gradient             ...        0 min,  0.015 sec ( 24.719%)
 printout                       ...        0 min,  0.006 sec (  9.183%)

         :::::::::::::::::::::::::::::::::::::::::::::::::::::
         ::                     SUMMARY                     ::
         :::::::::::::::::::::::::::::::::::::::::::::::::::::
         :: total energy             -50.211423486468 Eh    ::
         :: gradient norm              0.114529827585 Eh/a0 ::
         :: HOMO-LUMO gap              0.132212211948 eV    ::
         ::.................................................::
         :: SCC energy               -50.922481201136 Eh    ::
         :: -> isotropic ES            0.049562265436 Eh    ::
         :: -> anisotropic ES          0.003979692796 Eh    ::
         :: -> anisotropic XC          0.036870250436 Eh    ::
         :: -> dispersion             -0.034255269975 Eh    ::
         :: repulsion energy           0.711057714667 Eh    ::
         :: add. restraining           0.000000000000 Eh    ::
         :: total charge               0.000000000000 e     ::
         :::::::::::::::::::::::::::::::::::::::::::::::::::::

           -------------------------------------------------
          |                Property Printout                |
           -------------------------------------------------

    * Orbital Energies and Occupations

         #    Occupation            Energy/Eh            Energy/eV
      -------------------------------------------------------------
         1        2.0000           -0.7231956             -19.6792
       ...           ...                  ...                  ...
        35        2.0000           -0.4678373             -12.7305
        36        2.0000           -0.4618216             -12.5668
        37        2.0000           -0.4540552             -12.3555
        38        2.0000           -0.4465113             -12.1502
        39        2.0000           -0.4369175             -11.8891
        40        2.0000           -0.4055771             -11.0363
        41        2.0000           -0.3986162             -10.8469
        42        2.0000           -0.3973375             -10.8121
        43        1.9984           -0.3866499             -10.5213
        44        1.9196           -0.3828783             -10.4186
        45        1.8378           -0.3821225             -10.3981
        46        1.2442           -0.3794892             -10.3264
        47        0.9150           -0.2180013              -5.9321 (HOMO)
        48        0.0608           -0.2131426              -5.7999 (LUMO)
        49        0.0243           -0.2122341              -5.7752
        50                         -0.1817161              -4.9447
        51                         -0.1488069              -4.0492
        52                         -0.1427711              -3.8850
        53                         -0.1000730              -2.7231
        54                         -0.0288270              -0.7844
        55                         -0.0221627              -0.6031
        56                         -0.0050740              -0.1381
        57                         -0.0013646              -0.0371
        58                          0.0155053               0.4219
       ...                                ...                  ...
        89                          1.2372720              33.6679
      -------------------------------------------------------------
                  HL-Gap            0.0048587 Eh            0.1322 eV
             Fermi-level           -0.2981533 Eh           -8.1132 eV

     #   Z          covCN         q      C6AA      α(0)
     1   6 C        3.685    -0.037    21.446     6.630
     2   7 N        2.694    -0.195    25.238     7.461
     3   6 C        2.774     0.188    23.968     8.018
     4   7 N        2.708    -0.195    25.226     7.460
     5   6 C        3.759     0.007    20.506     6.456
     6   6 C        3.794    -0.027    21.070     6.537
     7  16 S        1.989    -0.150   147.379    20.433
     8   6 C        3.797    -0.034    21.178     6.553
     9   6 C        3.220     0.038    26.453     8.363
    10   6 C        3.066     0.013    27.665     8.625
    11   6 C        3.754    -0.110    22.654     6.787
    12   7 N        2.818    -0.117    23.537     7.206
    13   6 C        3.120     0.088    25.886     8.333
    14   7 N        1.916    -0.309    28.850     7.964
    15   7 N        1.841    -0.227    26.798     7.672
    16   6 C        1.852     0.166    27.142     8.416
    17   7 N        0.912    -0.330    28.470     7.717
    18   1 H        0.924     0.050     2.323     2.384
    19   1 H        0.924     0.044     2.399     2.422
    20   1 H        0.925     0.075     2.027     2.226
    21   1 H        0.860     0.175     1.242     1.746
    22   1 H        0.860     0.201     1.101     1.644
    23   1 H        0.924     0.057     2.235     2.338
    24   1 H        0.924     0.078     2.004     2.214
    25   1 H        0.925     0.063     2.169     2.303
    26   1 H        0.925     0.052     2.291     2.367
    27   1 H        0.925     0.052     2.289     2.366
    28   1 H        0.925     0.054     2.266     2.354
    29   1 H        0.925     0.058     2.219     2.329
    30   1 H        0.925     0.045     2.389     2.417
    31   1 H        0.924     0.044     2.397     2.421
    32   1 H        0.860     0.158     1.345     1.817
    33   1 H        0.926     0.024     2.678     2.559

 Mol. C6AA /au·bohr⁶  :      13080.012670
 Mol. C8AA /au·bohr⁸  :     325075.847496
 Mol. α(0) /au        :        176.535197


Wiberg/Mayer (AO) data.
largest (>0.10) Wiberg bond orders for each atom

 ---------------------------------------------------------------------------
     #   Z sym  total        # sym  WBO       # sym  WBO       # sym  WBO
 ---------------------------------------------------------------------------
     1   6 C    3.964 --     2 N    1.014    18 H    0.978    19 H    0.972
                            20 H    0.965
     2   7 N    3.293 --     3 C    1.151     1 C    1.014    21 H    0.934
     3   6 C    3.835 --    15 N    1.303     4 N    1.158     2 N    1.151
     4   7 N    3.339 --     3 C    1.158     5 C    1.017    22 H    0.884
     5   6 C    3.961 --     4 N    1.017     6 C    0.970    23 H    0.965
                            24 H    0.957
     6   6 C    3.957 --    25 H    0.971     5 C    0.970    26 H    0.966
                             7 S    0.962
     7  16 S    2.167 --     6 C    0.962     8 C    0.855
     8   6 C    3.943 --     9 C    1.053    27 H    0.964    28 H    0.961
                             7 S    0.855
     9   6 C    3.912 --    10 C    1.403    14 N    1.249     8 C    1.053
    10   6 C    3.804 --     9 C    1.403    12 N    1.149    11 C    1.035
    11   6 C    3.993 --    10 C    1.035    29 H    0.980    30 H    0.972
                            31 H    0.967
    12   7 N    3.531 --    13 C    1.227    10 C    1.149    32 H    0.946
                            14 N    0.106
    13   6 C    3.905 --    14 N    1.516    12 N    1.227    33 H    0.965
    14   7 N    3.040 --    13 C    1.516     9 C    1.249    12 N    0.106
    15   7 N    3.008 --    16 C    1.396     3 C    1.303    17 N    0.169
    16   6 C    3.872 --    17 N    2.398    15 N    1.396
    17   7 N    2.633 --    16 C    2.398    15 N    0.169
    18   1 H    0.994 --     1 C    0.978
    19   1 H    0.990 --     1 C    0.972
    20   1 H    0.993 --     1 C    0.965
    21   1 H    0.967 --     2 N    0.934
    22   1 H    0.958 --     4 N    0.884
    23   1 H    0.993 --     5 C    0.965
    24   1 H    0.992 --     5 C    0.957
    25   1 H    0.995 --     6 C    0.971
    26   1 H    0.990 --     6 C    0.966
    27   1 H    0.994 --     8 C    0.964
    28   1 H    0.990 --     8 C    0.961
    29   1 H    0.996 --    11 C    0.980
    30   1 H    0.993 --    11 C    0.972
    31   1 H    0.991 --    11 C    0.967
    32   1 H    0.975 --    12 N    0.946
    33   1 H    0.999 --    13 C    0.965
 ---------------------------------------------------------------------------

Topologies differ in total number of bonds
Writing topology from bond orders to xtbtopo.mol

molecular dipole:
                 x           y           z       tot (Debye)
 q only:       -2.163      -0.849       0.636
   full:       -2.688      -1.802       0.653       8.391
molecular quadrupole (traceless):
                xx          xy          yy          xz          yz          zz
 q only:      -21.100      -1.778      14.963      15.236       2.534       6.138
  q+dip:      -26.351       4.980      15.882      19.411       5.356      10.470
   full:      -27.038       4.720      16.478      19.794       4.231      10.560


           -------------------------------------------------
          | TOTAL ENERGY              -50.211423486468 Eh   |
          | GRADIENT NORM               0.114529827585 Eh/α |
          | HOMO-LUMO GAP               0.132212211948 eV   |
           -------------------------------------------------

------------------------------------------------------------------------
 * finished run on 2025/05/15 at 16:17:31.885     
------------------------------------------------------------------------
 total:
 * wall-time:     0 d,  0 h,  0 min,  0.142 sec
 *  cpu-time:     0 d,  0 h,  0 min,  0.071 sec
 * ratio c/w:     0.500 speedup
 SCF:
 * wall-time:     0 d,  0 h,  0 min,  0.061 sec
 *  cpu-time:     0 d,  0 h,  0 min,  0.061 sec
 * ratio c/w:     0.995 speedup


