54
 energy: -87.156628072225 gnorm: 0.000403266555 xtb: 6.7.1 (edcfbbe)
O           -4.87420242054278       -1.12849890042914       -0.07820337443659
C           -3.65489488799954       -1.29127892995569       -0.14295704237862
C           -2.80569017831112       -0.15254703262996       -0.41140283335982
C           -1.50163488853467        0.12588945919612       -0.15703088318628
C           -0.97944403415701        1.50338042052541       -0.54396640619155
N           -1.63132537088377        2.05680605426704       -1.70859657554111
C           -1.22229082225109        1.72402181092230       -2.95802309715605
C           -2.05450493552631        2.34834211758497       -4.05672466959905
O           -0.26813803996055        1.00339808537170       -3.15659869315276
C           -1.08637264807229        2.45953929838763        0.64841379896049
C           -0.54413999054269        1.79969793366286        1.92494389522135
C           -3.05011609010889       -2.62804569537896       -0.02497520267390
O           -3.76987894693208       -3.74408450348429       -0.27106805671490
C           -5.05099686274167       -3.69249586764083       -0.86788946665790
C           -1.78252614272870       -2.89488866508871        0.42899093359416
C           -0.72049250579731       -2.04555818459693        0.76144585819041
C           -0.55380913630481       -0.70825319209518        0.50430982665035
C            0.72762557280048       -0.09664523023061        0.91340826629010
C            1.93907707913080       -0.70226441359220        0.55428080378264
O            1.92033746562192       -1.83641446940783       -0.23498038790490
C            2.18446978809054       -1.56597726761665       -1.60401094538785
C            3.15531706383596       -0.14903519936882        0.95301317615894
O            4.36809235047249       -0.67795590814176        0.58091058940390
C            4.62472440160288       -2.00294821733796        1.00848880863369
C            0.75168508077066        1.09659892974558        1.63541761647628
C            1.95976757885181        1.64929611688018        2.02799589086211
C            3.16422691312254        1.03437728522300        1.71427084586881
O            4.38987806422626        1.48799941215101        2.07977718209900
C            4.47630653799049        2.70186490863068        2.78321986815463
H           -3.39600964078733        0.65307490920253       -0.83588222560812
H            0.07336368172559        1.39092754921332       -0.82840236432359
H           -2.46723799771161        2.60406000515485       -1.58155477340244
H           -1.58899390382886        2.14835002106107       -5.01706738925598
H           -3.05279658980860        1.91510294307513       -4.05055232897889
H           -2.13687439140257        3.42264530043688       -3.90910290108837
H           -2.13309436047339        2.73222887228510        0.80257047682022
H           -0.52182604284689        3.36717961367657        0.42635489452118
H           -1.27653423125102        1.07674817565023        2.29046173550232
H           -0.40231675252226        2.56022090404298        2.69345616172000
H           -5.31772585474898       -4.73370385501942       -1.04747792389652
H           -5.02675664803735       -3.15040337535313       -1.81618054840280
H           -5.78482339650731       -3.22296779904751       -0.21198519283009
H           -1.59490703505909       -3.95230224450639        0.57627336409288
H            0.11567301638102       -2.53709455580698        1.24012598107366
H            3.16863327276284       -1.10686592496394       -1.73321378002154
H            2.15861773624419       -2.53010737225092       -2.10777182882508
H            1.41856016966312       -0.90910133657281       -2.02874733996749
H            3.87400188489277       -2.70511799236659        0.63851564336969
H            4.66060041271223       -2.05543042410647        2.10206224622009
H            5.60126912389477       -2.25862568982902        0.60142810915289
H            1.94770511181440        2.56790563888119        2.59326658448338
H            4.06400415199029        3.53382002768761        2.20325069141371
H            3.96718628173333        2.64505007667805        3.75133527032339
H            5.53953200603135        2.87018637723036        2.94647771190601
