----- Optimization -----
      -----------------------------------------------------------      
     |                   =====================                   |     
     |                           x T B                           |     
     |                   =====================                   |     
     |                         S. Grimme                         |     
     |          Mulliken Center for Theoretical Chemistry        |     
     |                    University of Bonn                     |     
      -----------------------------------------------------------      

   * xtb version 6.7.1 (edcfbbe) compiled by 'conda@3ef47c1a292c' on 2024-11-25

   xtb is free software: you can redistribute it and/or modify it under
   the terms of the GNU Lesser General Public License as published by
   the Free Software Foundation, either version 3 of the License, or
   (at your option) any later version.
   
   xtb is distributed in the hope that it will be useful,
   but WITHOUT ANY WARRANTY; without even the implied warranty of
   MERCHANTABILITY or FITNESS FOR A PARTICULAR PURPOSE.  See the
   GNU Lesser General Public License for more details.
   
   Cite this work as:
   * C. Bannwarth, E. Caldeweyher, S. Ehlert, A. Hansen, P. Pracht,
     J. Seibert, S. Spicher, S. Grimme, WIREs Comput. Mol. Sci., 2020, 11,
     e01493. DOI: 10.1002/wcms.1493
   
   for GFN2-xTB:
   * C. Bannwarth, S. Ehlert and S. Grimme., J. Chem. Theory Comput., 2019,
     15, 1652-1671. DOI: 10.1021/acs.jctc.8b01176
   for GFN1-xTB:
   * S. Grimme, C. Bannwarth, P. Shushkov, J. Chem. Theory Comput., 2017,
     13, 1989-2009. DOI: 10.1021/acs.jctc.7b00118
   for GFN0-xTB:
   * P. Pracht, E. Caldeweyher, S. Ehlert, S. Grimme, ChemRxiv, 2019, preprint.
     DOI: 10.26434/chemrxiv.8326202.v1
   for GFN-FF:
   * S. Spicher and S. Grimme, Angew. Chem. Int. Ed., 2020, 59, 15665-15673.
     DOI: 10.1002/anie.202004239
   
   for ALPB and GBSA implicit solvation:
   * S. Ehlert, M. Stahn, S. Spicher, S. Grimme, J. Chem. Theory Comput.,
     2021, 17, 4250-4261. DOI: 10.1021/acs.jctc.1c00471
   
   for ddCOSMO and CPCM-X implicit solvation:
   * M. Stahn, S. Ehlert, S. Grimme, J. Phys. Chem. A,
     2023, XX, XXXX-XXXX. DOI: 10.1021/acs.jpca.3c04382
   
   for DFT-D4:
   * E. Caldeweyher, C. Bannwarth and S. Grimme, J. Chem. Phys., 2017,
     147, 034112. DOI: 10.1063/1.4993215
   * E. Caldeweyher, S. Ehlert, A. Hansen, H. Neugebauer, S. Spicher,
     C. Bannwarth and S. Grimme, J. Chem. Phys., 2019, 150, 154122.
     DOI: 10.1063/1.5090222
   * E. Caldeweyher, J.-M. Mewes, S. Ehlert and S. Grimme, Phys. Chem. Chem. Phys.
     2020, 22, 8499-8512. DOI: 10.1039/D0CP00502A
   
   for sTDA-xTB:
   * S. Grimme and C. Bannwarth, J. Chem. Phys., 2016, 145, 054103.
     DOI: 10.1063/1.4959605
   
   in the mass-spec context:
   * V. Asgeirsson, C. Bauer and S. Grimme, Chem. Sci., 2017, 8, 4879.
     DOI: 10.1039/c7sc00601b
   * J. Koopman and S. Grimme, ACS Omega 2019, 4, 12, 15120-15133.
     DOI: 10.1021/acsomega.9b02011
   
   for metadynamics refer to:
   * S. Grimme, J. Chem. Theory Comput., 2019, 155, 2847-2862
     DOI: 10.1021/acs.jctc.9b00143
   
   for SPH calculations refer to:
   * S. Spicher and S. Grimme, J. Chem. Theory Comput., 2021, 17, 1701-1714
     DOI: 10.1021/acs.jctc.0c01306
   
   for ONIOM refer to:
   * C. Plett, A. Katbashev, S. Ehlert, S. Grimme, M. Bursch,
     Phys. Chem. Chem. Phys., 2023, 25, 17860-17868. DOI: 10.1039/D3CP02178E
   
   for DIPRO refer to:
   * J. Kohn, N. Gildemeister, S. Grimme, D. Fazzi, A. Hansen,
     J. Chem. Phys., 2023, just accepted.
   
   for PTB refer to:
   * S. Grimme, M. Mueller, A. Hansen, J. Chem. Phys., 2023, 158, 124111.
     DOI: 10.1063/5.0137838
   
   with help from (in alphabetical order)
   P. Atkinson, C. Bannwarth, F. Bohle, G. Brandenburg, E. Caldeweyher
   M. Checinski, S. Dohm, S. Ehlert, S. Ehrlich, I. Gerasimov, C. Hölzer
   A. Katbashev, J. Kohn, J. Koopman, C. Lavigne, S. Lehtola, F. März, M. Müller,
   F. Musil, H. Neugebauer, J. Pisarek, C. Plett, P. Pracht, F. Pultar,
   J. Seibert, P. Shushkov, S. Spicher, M. Stahn, M. Steiner, T. Strunk,
   J. Stückrath, T. Rose, and J. Unsleber
   
 * started run on 2025/05/15 at 16:04:42.747     
   ID    Z sym.   atoms
    1    6 C      1, 2, 4-6, 8-12, 14-17, 19-22
    2    7 N      3, 7, 18
    3   17 Cl     13
    4    8 O      23
    5    1 H      24-49

           -------------------------------------------------
          |                Calculation Setup                |
           -------------------------------------------------

          program call               : xtb /rds/general/user/hgt20/home/callum/QDESCP/Hydroxychloroquine_rdkit_conf_6/Hydroxychloroquine_rdkit_conf_6.xyz --opt normal --acc 1 --gfn 2 --chrg 0 --uhf 0 -P 1
          hostname                   : login-c
          coordinate file            : /rds/general/user/hgt20/home/callum/QDESCP/Hydroxychloroquine_rdkit_conf_6/Hydroxychloroquine_rdkit_conf_6.xyz
          omp threads                :                     1


           -------------------------------------------------
          |                 G F N 2 - x T B                 |
           -------------------------------------------------

        Reference                      10.1021/acs.jctc.8b01176
      * Hamiltonian:
        H0-scaling (s, p, d)           1.850000    2.230000    2.230000
        zeta-weighting                 0.500000
      * Dispersion:
        s8                             2.700000
        a1                             0.520000
        a2                             5.000000
        s9                             5.000000
      * Repulsion:
        kExp                           1.500000    1.000000
        rExp                           1.000000
      * Coulomb:
        alpha                          2.000000
        third order                    shell-resolved
        anisotropic                    true
        a3                             3.000000
        a5                             4.000000
        cn-shift                       1.200000
        cn-exp                         4.000000
        max-rad                        5.000000


          ...................................................
          :                      SETUP                      :
          :.................................................:
          :  # basis functions                 124          :
          :  # atomic orbitals                 123          :
          :  # shells                           73          :
          :  # electrons                       126          :
          :  max. iterations                   250          :
          :  Hamiltonian                  GFN2-xTB          :
          :  restarted?                      false          :
          :  GBSA solvation                  false          :
          :  PC potential                    false          :
          :  electronic temp.          300.0000000     K    :
          :  accuracy                    1.0000000          :
          :  -> integral cutoff          0.2500000E+02      :
          :  -> integral neglect         0.1000000E-07      :
          :  -> SCF convergence          0.1000000E-05 Eh   :
          :  -> wf. convergence          0.1000000E-03 e    :
          :  Broyden damping             0.4000000          :
          :  net charge                          0          :
          :  unpaired electrons                  0          :
          ...................................................

 iter      E             dE          RMSdq      gap      omega  full diag
   1    -70.0030032 -0.700030E+02  0.354E+00    2.41       0.0  T
   2    -70.0831368 -0.801336E-01  0.220E+00    2.33       1.0  T
   3    -70.0689350  0.142018E-01  0.118E+00    2.72       1.0  T
   4    -70.0975905 -0.286555E-01  0.397E-01    2.30       1.0  T
   5    -70.1022645 -0.467400E-02  0.122E-01    2.37       1.0  T
   6    -70.1027536 -0.489143E-03  0.560E-02    2.36       1.0  T
   7    -70.1028119 -0.583280E-04  0.279E-02    2.37       1.0  T
   8    -70.1028206 -0.868734E-05  0.124E-02    2.36       1.2  T
   9    -70.1028232 -0.253721E-05  0.734E-03    2.37       1.9  T
  10    -70.1028237 -0.531952E-06  0.535E-03    2.37       2.7  T
  11    -70.1028242 -0.453068E-06  0.304E-03    2.37       4.7  T
  12    -70.1028243 -0.170940E-06  0.165E-03    2.37       8.6  T
  13    -70.1028244 -0.512467E-07  0.807E-04    2.37      17.7  T
  14    -70.1028244 -0.118727E-07  0.431E-04    2.37      33.1  T

   *** convergence criteria satisfied after 14 iterations ***

         #    Occupation            Energy/Eh            Energy/eV
      -------------------------------------------------------------
         1        2.0000           -1.0527924             -28.6479
       ...           ...                  ...                  ...
        57        2.0000           -0.4147042             -11.2847
        58        2.0000           -0.4129516             -11.2370
        59        2.0000           -0.4058425             -11.0435
        60        2.0000           -0.3960889             -10.7781
        61        2.0000           -0.3736549             -10.1677
        62        2.0000           -0.3725873             -10.1386
        63        2.0000           -0.3630584              -9.8793 (HOMO)
        64                         -0.2760769              -7.5124 (LUMO)
        65                         -0.2375792              -6.4649
        66                         -0.2051726              -5.5830
        67                         -0.1609693              -4.3802
        68                         -0.1321771              -3.5967
       ...                                ...                  ...
       123                          0.6610245              17.9874
      -------------------------------------------------------------
                  HL-Gap            0.0869815 Eh            2.3669 eV
             Fermi-level           -0.3195677 Eh           -8.6959 eV

 SCC (total)                   0 d,  0 h,  0 min,  0.077 sec
 SCC setup                      ...        0 min,  0.000 sec (  0.565%)
 Dispersion                     ...        0 min,  0.001 sec (  0.789%)
 classical contributions        ...        0 min,  0.000 sec (  0.246%)
 integral evaluation            ...        0 min,  0.008 sec ( 10.984%)
 iterations                     ...        0 min,  0.037 sec ( 48.104%)
 molecular gradient             ...        0 min,  0.030 sec ( 39.010%)
 printout                       ...        0 min,  0.000 sec (  0.292%)

         :::::::::::::::::::::::::::::::::::::::::::::::::::::
         ::                     SUMMARY                     ::
         :::::::::::::::::::::::::::::::::::::::::::::::::::::
         :: total energy             -69.198805551083 Eh    ::
         :: gradient norm              0.091221447808 Eh/a0 ::
         :: HOMO-LUMO gap              2.366887200260 eV    ::
         ::.................................................::
         :: SCC energy               -70.102791113150 Eh    ::
         :: -> isotropic ES            0.053917615655 Eh    ::
         :: -> anisotropic ES          0.009937777329 Eh    ::
         :: -> anisotropic XC          0.039730382280 Eh    ::
         :: -> dispersion             -0.048388410339 Eh    ::
         :: repulsion energy           0.903985562067 Eh    ::
         :: add. restraining           0.000000000000 Eh    ::
         :: total charge              -0.000000000000 e     ::
         :::::::::::::::::::::::::::::::::::::::::::::::::::::

      ----------------------------------------------------------- 
     |                   =====================                   |
     |                        A N C O P T                        |
     |                   =====================                   |
     |               Approximate Normal Coordinate               |
     |                Rational Function Optimizer                |
      ----------------------------------------------------------- 
      ----------------------------------------------------------- 
     |                   =====================                   |
     |                        A N C O P T                        |
     |                   =====================                   |
     |               Approximate Normal Coordinate               |
     |                Rational Function Optimizer                |
      ----------------------------------------------------------- 

          ...................................................
          :                      SETUP                      :
          :.................................................:
          :   optimization level            normal          :
          :   max. optcycles                   200          :
          :   ANC micro-cycles                  20          :
          :   degrees of freedom               141          :
          :.................................................:
          :   RF solver                   davidson          :
          :   write xtbopt.log                true          :
          :   linear?                        false          :
          :   energy convergence         0.5000000E-05 Eh   :
          :   grad. convergence          0.1000000E-02 Eh/α :
          :   maxmium RF displ.          1.0000000          :
          :   Hlow (freq-cutoff)         0.1000000E-01      :
          :   Hmax (freq-cutoff)         5.0000000          :
          :   S6 in model hess.         20.0000000          :
          ...................................................

generating ANC from exact Hessian ...
Using Lindh-Hessian (1995)
 Shifting diagonal of input Hessian by    9.8539276520817169E-003
 Lowest  eigenvalues of input Hessian
    0.000000    0.000000    0.000000    0.000000    0.000000    0.000000
    0.010000    0.010056    0.010155    0.010787    0.011044    0.011451
    0.011867    0.011990    0.012302    0.013382    0.014222    0.015103
 Highest eigenvalues
    1.824169    1.832630    1.882690    1.980574    2.086880    2.160907


........................................................................
.............................. CYCLE    1 ..............................
........................................................................

 iter      E             dE          RMSdq      gap      omega  full diag
   1    -70.1028244 -0.701028E+02  0.285E-04    2.37       0.0  T
   2    -70.1028244 -0.664343E-09  0.233E-04    2.37      61.2  T
   3    -70.1028244 -0.313790E-09  0.198E-04    2.37      72.3  T
     SCC iter.                  ...        0 min,  0.008 sec
     gradient                   ...        0 min,  0.080 sec
 * total energy  :   -69.1988056 Eh     change       -0.2901686E-08 Eh
   gradient norm :     0.0912217 Eh/α   predicted     0.0000000E+00 (-100.00%)
   displ. norm   :     0.2539362 α      lambda       -0.1053580E-01
   maximum displ.:     0.0817389 α      in ANC's #45, #53, #28, ...

........................................................................
.............................. CYCLE    2 ..............................
........................................................................

 iter      E             dE          RMSdq      gap      omega  full diag
   1    -70.1334617 -0.701335E+02  0.148E-01    2.48       0.0  T
   2    -70.1335702 -0.108407E-03  0.926E-02    2.48       1.0  T
   3    -70.1335672  0.294278E-05  0.511E-02    2.50       1.0  T
   4    -70.1336057 -0.384423E-04  0.125E-02    2.48       1.1  T
   5    -70.1336119 -0.629798E-05  0.409E-03    2.49       3.5  T
   6    -70.1336124 -0.483956E-06  0.165E-03    2.49       8.7  T
   7    -70.1336125 -0.263900E-07  0.559E-04    2.49      25.6  T
   8    -70.1336125 -0.373174E-08  0.298E-04    2.49      47.9  T
     SCC iter.                  ...        0 min,  0.022 sec
     gradient                   ...        0 min,  0.075 sec
 * total energy  :   -69.2059956 Eh     change       -0.7190030E-02 Eh
   gradient norm :     0.0376243 Eh/α   predicted    -0.5609604E-02 ( -21.98%)
   displ. norm   :     0.2395172 α      lambda       -0.3114915E-02
   maximum displ.:     0.1031510 α      in ANC's #9, #11, #15, ...

........................................................................
.............................. CYCLE    3 ..............................
........................................................................

 iter      E             dE          RMSdq      gap      omega  full diag
   1    -70.1500222 -0.701500E+02  0.958E-02    2.57       0.0  T
   2    -70.1501034 -0.811605E-04  0.601E-02    2.56       1.0  T
   3    -70.1501267 -0.233078E-04  0.350E-02    2.58       1.0  T
   4    -70.1501360 -0.932518E-05  0.976E-03    2.57       1.5  T
   5    -70.1501396 -0.363563E-05  0.332E-03    2.57       4.3  T
   6    -70.1501399 -0.316865E-06  0.132E-03    2.57      10.8  T
   7    -70.1501400 -0.149295E-07  0.429E-04    2.57      33.3  T
   8    -70.1501400 -0.292195E-08  0.208E-04    2.57      68.8  T
     SCC iter.                  ...        0 min,  0.021 sec
     gradient                   ...        0 min,  0.080 sec
 * total energy  :   -69.2078204 Eh     change       -0.1824862E-02 Eh
   gradient norm :     0.0108562 Eh/α   predicted    -0.1647566E-02 (  -9.72%)
   displ. norm   :     0.1832490 α      lambda       -0.6205793E-03
   maximum displ.:     0.1093882 α      in ANC's #9, #11, #26, ...

........................................................................
.............................. CYCLE    4 ..............................
........................................................................

 iter      E             dE          RMSdq      gap      omega  full diag
   1    -70.1516397 -0.701516E+02  0.446E-02    2.59       0.0  T
   2    -70.1516540 -0.143669E-04  0.269E-02    2.58       1.0  T
   3    -70.1516568 -0.277941E-05  0.159E-02    2.59       1.0  T
   4    -70.1516608 -0.401673E-05  0.418E-03    2.58       3.4  T
   5    -70.1516615 -0.639521E-06  0.154E-03    2.58       9.3  T
   6    -70.1516615 -0.408288E-07  0.787E-04    2.58      18.2  T
   7    -70.1516615 -0.646310E-08  0.314E-04    2.58      45.5  T
     SCC iter.                  ...        0 min,  0.070 sec
     gradient                   ...        0 min,  0.030 sec
 * total energy  :   -69.2083077 Eh     change       -0.4872240E-03 Eh
   gradient norm :     0.0107915 Eh/α   predicted    -0.3207190E-03 ( -34.17%)
   displ. norm   :     0.3167893 α      lambda       -0.7535464E-03
   maximum displ.:     0.2174468 α      in ANC's #9, #11, #26, ...

........................................................................
.............................. CYCLE    5 ..............................
........................................................................

 iter      E             dE          RMSdq      gap      omega  full diag
   1    -70.1512430 -0.701512E+02  0.677E-02    2.60       0.0  T
   2    -70.1512693 -0.263147E-04  0.407E-02    2.58       1.0  T
   3    -70.1512690  0.268957E-06  0.239E-02    2.59       1.0  T
   4    -70.1512813 -0.122633E-04  0.597E-03    2.59       2.4  T
   5    -70.1512826 -0.135542E-05  0.223E-03    2.59       6.4  T
   6    -70.1512827 -0.642237E-07  0.118E-03    2.59      12.1  T
   7    -70.1512827 -0.172250E-07  0.426E-04    2.59      33.6  T
   8    -70.1512827 -0.176746E-08  0.317E-04    2.59      45.1  T
     SCC iter.                  ...        0 min,  0.071 sec
     gradient                   ...        0 min,  0.082 sec
 * total energy  :   -69.2088087 Eh     change       -0.5010219E-03 Eh
   gradient norm :     0.0102358 Eh/α   predicted    -0.4145905E-03 ( -17.25%)
   displ. norm   :     0.2155674 α      lambda       -0.3039050E-03
   maximum displ.:     0.1684843 α      in ANC's #9, #11, #5, ...

........................................................................
.............................. CYCLE    6 ..............................
........................................................................

 iter      E             dE          RMSdq      gap      omega  full diag
   1    -70.1515625 -0.701516E+02  0.406E-02    2.59       0.0  T
   2    -70.1515676 -0.509933E-05  0.243E-02    2.58       1.0  T
   3    -70.1515642  0.344809E-05  0.130E-02    2.59       1.1  T
   4    -70.1515697 -0.552967E-05  0.293E-03    2.58       4.9  T
   5    -70.1515700 -0.323872E-06  0.117E-03    2.58      12.3  T
   6    -70.1515700 -0.120784E-07  0.589E-04    2.58      24.2  T
   7    -70.1515700 -0.576884E-08  0.154E-04    2.58      92.8  T
     SCC iter.                  ...        0 min,  0.018 sec
     gradient                   ...        0 min,  0.082 sec
 * total energy  :   -69.2090376 Eh     change       -0.2289485E-03 Eh
   gradient norm :     0.0069848 Eh/α   predicted    -0.1590618E-03 ( -30.53%)
   displ. norm   :     0.2264510 α      lambda       -0.2521788E-03
   maximum displ.:     0.1732310 α      in ANC's #9, #5, #4, ...

........................................................................
.............................. CYCLE    7 ..............................
........................................................................

 iter      E             dE          RMSdq      gap      omega  full diag
   1    -70.1524467 -0.701524E+02  0.419E-02    2.59       0.0  T
   2    -70.1524494 -0.272641E-05  0.247E-02    2.58       1.0  T
   3    -70.1524458  0.363986E-05  0.107E-02    2.59       1.3  T
   4    -70.1524504 -0.463955E-05  0.240E-03    2.58       6.0  T
   5    -70.1524506 -0.179615E-06  0.106E-03    2.58      13.5  T
   6    -70.1524506 -0.858962E-08  0.480E-04    2.58      29.8  T
   7    -70.1524506 -0.442056E-08  0.174E-04    2.58      82.0  T
     SCC iter.                  ...        0 min,  0.018 sec
     gradient                   ...        0 min,  0.075 sec
 * total energy  :   -69.2092335 Eh     change       -0.1958273E-03 Eh
   gradient norm :     0.0043844 Eh/α   predicted    -0.1325564E-03 ( -32.31%)
   displ. norm   :     0.2687592 α      lambda       -0.2192466E-03
   maximum displ.:     0.1942587 α      in ANC's #9, #5, #4, ...

........................................................................
.............................. CYCLE    8 ..............................
........................................................................

 iter      E             dE          RMSdq      gap      omega  full diag
   1    -70.1532262 -0.701532E+02  0.474E-02    2.58       0.0  T
   2    -70.1532285 -0.233584E-05  0.279E-02    2.58       1.0  T
   3    -70.1532250  0.358001E-05  0.104E-02    2.58       1.4  T
   4    -70.1532294 -0.442686E-05  0.235E-03    2.58       6.1  T
   5    -70.1532295 -0.144305E-06  0.111E-03    2.58      12.9  T
   6    -70.1532295 -0.104826E-07  0.515E-04    2.58      27.8  T
   7    -70.1532295 -0.439985E-08  0.284E-04    2.58      50.3  T
     SCC iter.                  ...        0 min,  0.018 sec
     gradient                   ...        0 min,  0.081 sec
 * total energy  :   -69.2093934 Eh     change       -0.1599387E-03 Eh
   gradient norm :     0.0030713 Eh/α   predicted    -0.1175472E-03 ( -26.50%)
   displ. norm   :     0.2414474 α      lambda       -0.1284897E-03
   maximum displ.:     0.1621225 α      in ANC's #9, #5, #4, ...

........................................................................
.............................. CYCLE    9 ..............................
........................................................................

 iter      E             dE          RMSdq      gap      omega  full diag
   1    -70.1538376 -0.701538E+02  0.395E-02    2.58       0.0  T
   2    -70.1538386 -0.101657E-05  0.233E-02    2.58       1.0  T
   3    -70.1538370  0.158050E-05  0.695E-03    2.58       2.1  T
   4    -70.1538389 -0.194464E-05  0.163E-03    2.58       8.7  T
   5    -70.1538390 -0.562346E-07  0.815E-04    2.58      17.5  T
   6    -70.1538390 -0.650918E-08  0.399E-04    2.58      35.8  T
     SCC iter.                  ...        0 min,  0.016 sec
     gradient                   ...        0 min,  0.082 sec
 * total energy  :   -69.2094849 Eh     change       -0.9151980E-04 Eh
   gradient norm :     0.0031103 Eh/α   predicted    -0.6799096E-04 ( -25.71%)
   displ. norm   :     0.2142440 α      lambda       -0.7801935E-04
   maximum displ.:     0.1304109 α      in ANC's #9, #5, #4, ...

........................................................................
.............................. CYCLE   10 ..............................
........................................................................

 iter      E             dE          RMSdq      gap      omega  full diag
   1    -70.1539134 -0.701539E+02  0.332E-02    2.58       0.0  T
   2    -70.1539140 -0.605083E-06  0.195E-02    2.58       1.0  T
   3    -70.1539132  0.807086E-06  0.510E-03    2.58       2.8  T
   4    -70.1539142 -0.100695E-05  0.124E-03    2.58      11.5  T
   5    -70.1539142 -0.323437E-07  0.624E-04    2.58      22.9  T
   6    -70.1539142 -0.399226E-08  0.294E-04    2.58      48.6  T
     SCC iter.                  ...        0 min,  0.065 sec
     gradient                   ...        0 min,  0.030 sec
 * total energy  :   -69.2095410 Eh     change       -0.5605019E-04 Eh
   gradient norm :     0.0026918 Eh/α   predicted    -0.4080114E-04 ( -27.21%)
   displ. norm   :     0.1934787 α      lambda       -0.7285231E-04
   maximum displ.:     0.0958811 α      in ANC's #9, #5, #4, ...

........................................................................
.............................. CYCLE   11 ..............................
........................................................................

 iter      E             dE          RMSdq      gap      omega  full diag
   1    -70.1548353 -0.701548E+02  0.279E-02    2.58       0.0  T
   2    -70.1548357 -0.412591E-06  0.165E-02    2.58       1.0  T
   3    -70.1548354  0.381459E-06  0.296E-03    2.58       4.8  T
   4    -70.1548358 -0.471534E-06  0.896E-04    2.58      15.9  T
   5    -70.1548359 -0.271054E-07  0.447E-04    2.58      32.0  T
     SCC iter.                  ...        0 min,  0.065 sec
     gradient                   ...        0 min,  0.030 sec
 * total energy  :   -69.2095831 Eh     change       -0.4210663E-04 Eh
   gradient norm :     0.0050582 Eh/α   predicted    -0.3779204E-04 ( -10.25%)
   displ. norm   :     0.1894694 α      lambda       -0.6655166E-04
   maximum displ.:     0.0914397 α      in ANC's #9, #5, #3, ...

........................................................................
.............................. CYCLE   12 ..............................
........................................................................

 iter      E             dE          RMSdq      gap      omega  full diag
   1    -70.1540406 -0.701540E+02  0.285E-02    2.58       0.0  T
   2    -70.1540409 -0.348409E-06  0.167E-02    2.58       1.0  T
   3    -70.1540407  0.243469E-06  0.299E-03    2.58       4.8  T
   4    -70.1540410 -0.334814E-06  0.781E-04    2.58      18.3  T
   5    -70.1540410 -0.123900E-07  0.418E-04    2.58      34.2  T
     SCC iter.                  ...        0 min,  0.014 sec
     gradient                   ...        0 min,  0.029 sec
 * total energy  :   -69.2096256 Eh     change       -0.4247171E-04 Eh
   gradient norm :     0.0024518 Eh/α   predicted    -0.3447071E-04 ( -18.84%)
   displ. norm   :     0.1079136 α      lambda       -0.4561371E-04
   maximum displ.:     0.0552968 α      in ANC's #3, #5, #6, ...

........................................................................
.............................. CYCLE   13 ..............................
........................................................................

 iter      E             dE          RMSdq      gap      omega  full diag
   1    -70.1541359 -0.701541E+02  0.165E-02    2.58       0.0  T
   2    -70.1541362 -0.214978E-06  0.980E-03    2.58       1.5  T
   3    -70.1541357  0.475374E-06  0.365E-03    2.58       3.9  T
   4    -70.1541363 -0.570183E-06  0.702E-04    2.58      20.4  T
   5    -70.1541363 -0.116892E-07  0.354E-04    2.58      40.4  T
     SCC iter.                  ...        0 min,  0.014 sec
     gradient                   ...        0 min,  0.030 sec
 * total energy  :   -69.2096626 Eh     change       -0.3708198E-04 Eh
   gradient norm :     0.0022394 Eh/α   predicted    -0.2307648E-04 ( -37.77%)
   displ. norm   :     0.1857936 α      lambda       -0.7137359E-04
   maximum displ.:     0.1010918 α      in ANC's #3, #5, #7, ...

........................................................................
.............................. CYCLE   14 ..............................
........................................................................

 iter      E             dE          RMSdq      gap      omega  full diag
   1    -70.1535543 -0.701536E+02  0.293E-02    2.58       0.0  T
   2    -70.1535551 -0.778799E-06  0.174E-02    2.59       1.0  T
   3    -70.1535535  0.154749E-05  0.683E-03    2.58       2.1  T
   4    -70.1535554 -0.189260E-05  0.136E-03    2.59      10.5  T
   5    -70.1535555 -0.423893E-07  0.705E-04    2.59      20.3  T
   6    -70.1535555 -0.418343E-08  0.368E-04    2.59      38.8  T
     SCC iter.                  ...        0 min,  0.016 sec
     gradient                   ...        0 min,  0.029 sec
 * total energy  :   -69.2097113 Eh     change       -0.4866346E-04 Eh
   gradient norm :     0.0025916 Eh/α   predicted    -0.3692484E-04 ( -24.12%)
   displ. norm   :     0.1153746 α      lambda       -0.3432511E-04
   maximum displ.:     0.0690818 α      in ANC's #3, #5, #18, ...

........................................................................
.............................. CYCLE   15 ..............................
........................................................................

 iter      E             dE          RMSdq      gap      omega  full diag
   1    -70.1536028 -0.701536E+02  0.191E-02    2.58       0.0  T
   2    -70.1536032 -0.451513E-06  0.113E-02    2.59       1.3  T
   3    -70.1536025  0.719878E-06  0.480E-03    2.58       3.0  T
   4    -70.1536034 -0.911852E-06  0.993E-04    2.59      14.4  T
   5    -70.1536035 -0.239026E-07  0.514E-04    2.58      27.8  T
     SCC iter.                  ...        0 min,  0.014 sec
     gradient                   ...        0 min,  0.081 sec
 * total energy  :   -69.2097362 Eh     change       -0.2485251E-04 Eh
   gradient norm :     0.0022354 Eh/α   predicted    -0.1739361E-04 ( -30.01%)
   displ. norm   :     0.1186211 α      lambda       -0.2826651E-04
   maximum displ.:     0.0697902 α      in ANC's #3, #5, #9, ...

........................................................................
.............................. CYCLE   16 ..............................
........................................................................

 iter      E             dE          RMSdq      gap      omega  full diag
   1    -70.1534761 -0.701535E+02  0.190E-02    2.58       0.0  T
   2    -70.1534764 -0.350784E-06  0.112E-02    2.58       1.3  T
   3    -70.1534759  0.555655E-06  0.408E-03    2.58       3.5  T
   4    -70.1534766 -0.697410E-06  0.790E-04    2.58      18.1  T
   5    -70.1534766 -0.147942E-07  0.428E-04    2.58      33.4  T
     SCC iter.                  ...        0 min,  0.014 sec
     gradient                   ...        0 min,  0.081 sec
 * total energy  :   -69.2097565 Eh     change       -0.2032175E-04 Eh
   gradient norm :     0.0016070 Eh/α   predicted    -0.1433319E-04 ( -29.47%)
   displ. norm   :     0.1319779 α      lambda       -0.2153172E-04
   maximum displ.:     0.0780284 α      in ANC's #3, #8, #5, ...

........................................................................
.............................. CYCLE   17 ..............................
........................................................................

 iter      E             dE          RMSdq      gap      omega  full diag
   1    -70.1543589 -0.701544E+02  0.220E-02    2.58       0.0  T
   2    -70.1543594 -0.507303E-06  0.128E-02    2.58       1.1  T
   3    -70.1543588  0.659215E-06  0.457E-03    2.58       3.1  T
   4    -70.1543596 -0.856159E-06  0.839E-04    2.58      17.0  T
   5    -70.1543596 -0.127059E-07  0.504E-04    2.58      28.3  T
     SCC iter.                  ...        0 min,  0.014 sec
     gradient                   ...        0 min,  0.080 sec
 * total energy  :   -69.2097723 Eh     change       -0.1585888E-04 Eh
   gradient norm :     0.0016818 Eh/α   predicted    -0.1084983E-04 ( -31.59%)
   displ. norm   :     0.1108690 α      lambda       -0.1114143E-04
   maximum displ.:     0.0643730 α      in ANC's #9, #3, #5, ...

........................................................................
.............................. CYCLE   18 ..............................
........................................................................

 iter      E             dE          RMSdq      gap      omega  full diag
   1    -70.1535092 -0.701535E+02  0.175E-02    2.58       0.0  T
   2    -70.1535094 -0.140001E-06  0.103E-02    2.58       1.4  T
   3    -70.1535093  0.598188E-07  0.172E-03    2.58       8.3  T
   4    -70.1535094 -0.849304E-07  0.618E-04    2.58      23.1  T
   5    -70.1535094 -0.787895E-08  0.296E-04    2.58      48.3  T
     SCC iter.                  ...        0 min,  0.013 sec
     gradient                   ...        0 min,  0.077 sec
 * total energy  :   -69.2097794 Eh     change       -0.7084203E-05 Eh
   gradient norm :     0.0019720 Eh/α   predicted    -0.5603901E-05 ( -20.90%)
   displ. norm   :     0.0504719 α      lambda       -0.1253294E-04
   maximum displ.:     0.0268484 α      in ANC's #8, #18, #5, ...

........................................................................
.............................. CYCLE   19 ..............................
........................................................................

 iter      E             dE          RMSdq      gap      omega  full diag
   1    -70.1543251 -0.701543E+02  0.116E-02    2.58       0.0  T
   2    -70.1543252 -0.170852E-06  0.682E-03    2.58       2.1  T
   3    -70.1543251  0.147896E-06  0.238E-03    2.58       6.0  T
   4    -70.1543253 -0.188326E-06  0.559E-04    2.58      25.5  T
   5    -70.1543253 -0.975430E-08  0.262E-04    2.58      54.5  T
     SCC iter.                  ...        0 min,  0.013 sec
     gradient                   ...        0 min,  0.081 sec
 * total energy  :   -69.2097901 Eh     change       -0.1071640E-04 Eh
   gradient norm :     0.0010333 Eh/α   predicted    -0.6277308E-05 ( -41.42%)
   displ. norm   :     0.0609900 α      lambda       -0.5360184E-05
   maximum displ.:     0.0389425 α      in ANC's #3, #8, #7, ...

........................................................................
.............................. CYCLE   20 ..............................
........................................................................

 iter      E             dE          RMSdq      gap      omega  full diag
   1    -70.1544021 -0.701544E+02  0.113E-02    2.58       0.0  T
   2    -70.1544022 -0.377877E-07  0.664E-03    2.58       2.1  T
   3    -70.1544021  0.687582E-07  0.141E-03    2.58      10.1  T
   4    -70.1544022 -0.842466E-07  0.285E-04    2.58      50.2  T
   5    -70.1544022 -0.138182E-08  0.145E-04    2.58      98.4  T
     SCC iter.                  ...        0 min,  0.013 sec
     gradient                   ...        0 min,  0.082 sec
 * total energy  :   -69.2097965 Eh     change       -0.6399800E-05 Eh
   gradient norm :     0.0008123 Eh/α   predicted    -0.2684827E-05 ( -58.05%)
   displ. norm   :     0.1100171 α      lambda       -0.7508364E-05
   maximum displ.:     0.0668479 α      in ANC's #3, #8, #7, ...
 * RMSD in coord.:     0.3705652 α      energy gain  -0.1099098E-01 Eh

generating ANC from exact Hessian ...
Using Lindh-Hessian (1995)
 Shifting diagonal of input Hessian by    9.8401904652288732E-003
 Lowest  eigenvalues of input Hessian
    0.000000    0.000000    0.000000    0.000000    0.000000    0.000000
    0.010000    0.010058    0.010161    0.010859    0.011167    0.011522
    0.011890    0.012029    0.012718    0.013381    0.014244    0.015603
 Highest eigenvalues
    1.848913    1.910091    1.956920    2.028929    2.149612    2.196572


........................................................................
.............................. CYCLE   21 ..............................
........................................................................

 iter      E             dE          RMSdq      gap      omega  full diag
   1    -70.1543004 -0.701543E+02  0.216E-02    2.58       0.0  T
   2    -70.1543005 -0.100056E-06  0.126E-02    2.58       1.1  T
   3    -70.1543005  0.254176E-07  0.125E-03    2.58      11.4  T
   4    -70.1543005 -0.509853E-07  0.462E-04    2.58      30.9  T
   5    -70.1543005 -0.406258E-08  0.232E-04    2.58      61.6  T
     SCC iter.                  ...        0 min,  0.014 sec
     gradient                   ...        0 min,  0.031 sec
 * total energy  :   -69.2098042 Eh     change       -0.7619161E-05 Eh
   gradient norm :     0.0006720 Eh/α   predicted     0.0000000E+00 (-100.00%)
   displ. norm   :     0.0164630 α      lambda       -0.2288070E-05
   maximum displ.:     0.0114018 α      in ANC's #7, #3, #6, ...

........................................................................
.............................. CYCLE   22 ..............................
........................................................................

 iter      E             dE          RMSdq      gap      omega  full diag
   1    -70.1543168 -0.701543E+02  0.416E-03    2.58       0.0  T
   2    -70.1543168 -0.110203E-07  0.245E-03    2.58       5.8  T
   3    -70.1543167  0.180717E-07  0.731E-04    2.58      19.5  T
   4    -70.1543168 -0.216588E-07  0.166E-04    2.58      85.8  T
     SCC iter.                  ...        0 min,  0.011 sec
     gradient                   ...        0 min,  0.029 sec
 * total energy  :   -69.2098068 Eh     change       -0.2680099E-05 Eh
   gradient norm :     0.0002810 Eh/α   predicted    -0.1152895E-05 ( -56.98%)
   displ. norm   :     0.0392780 α      lambda       -0.3317969E-05
   maximum displ.:     0.0256125 α      in ANC's #7, #3, #6, ...

   *** GEOMETRY OPTIMIZATION CONVERGED AFTER 22 ITERATIONS ***

------------------------------------------------------------------------
 total energy gain   :        -0.0110013 Eh       -6.9034 kcal/mol
 total RMSD          :         0.3705282 a0        0.1961 Å
 total power (kW/mol):        -1.3129029 (step)  -11.5713 (real)
------------------------------------------------------------------------

 ANCopt (total)                0 d,  0 h,  0 min,  2.496 sec
 optimizer setup                ...        0 min,  0.000 sec (  0.003%)
 model hessian                  ...        0 min,  0.086 sec (  3.447%)
 ANC generation                 ...        0 min,  0.004 sec (  0.169%)
 coordinate transformation      ...        0 min,  0.000 sec (  0.018%)
 single point calculation       ...        0 min,  2.351 sec ( 94.193%)
 optimization log               ...        0 min,  0.049 sec (  1.978%)
 hessian update                 ...        0 min,  0.001 sec (  0.021%)
 rational function              ...        0 min,  0.002 sec (  0.088%)

================
 final structure:
================
49
 xtb: 6.7.1 (edcfbbe)
C           -0.80242012350476        0.66243600833614       -1.91765239647556
C           -0.69444448232472        0.37119831003262       -0.41798053381963
N           -1.94923743674016        0.64548236127212        0.25010196181622
C           -3.04715619074937       -0.15541331511450        0.23492961151451
C           -3.02275584657594       -1.46080816135481       -0.23779527495791
C           -4.17701145513263       -2.23902555383698       -0.18009633454914
N           -5.32767909615605       -1.83273433565981        0.28768425854082
C           -5.39950930740607       -0.57249071309969        0.75652177266343
C           -4.29184271066455        0.32166674482277        0.76501089745783
C           -4.48651814231255        1.61379422075274        1.28875299250939
C           -5.70199861763628        2.01529487698391        1.77243245235422
C           -6.78373204678069        1.12468755560526        1.75183222417972
Cl          -8.30884587410541        1.65861744471508        2.36743771041448
C           -6.64530799668352       -0.14168214285220        1.25906747073672
C            0.38650012826042        1.21540336972289        0.26764902016664
C            1.80507739546753        0.98740362148266       -0.25302011599068
C            2.29433882266023       -0.45035168118553       -0.06190887693401
N            3.72003852820255       -0.55085277523667       -0.33143769382315
C            4.03686073934475       -0.67021592791032       -1.74750912533004
C            5.36847451296195        0.00010260952258       -2.07112153141315
C            4.39291135278794       -1.54023325956507        0.49844847068264
C            4.79665007554247       -0.88263860597317        1.82294294298844
O            5.55837510879643        0.27055083156198        1.58319267876557
H           -0.92492084733817        1.73010484900636       -2.08845649029082
H            0.08503395569775        0.32309707106413       -2.44330768849732
H           -1.66488504409901        0.14547957668648       -2.33273673071717
H           -0.46363389008441       -0.68680623042880       -0.26686635706602
H           -2.11041946687481        1.62088829448471        0.44406654767497
H           -2.12629209777106       -1.88886228018554       -0.65489817505002
H           -4.15487206163027       -3.25712637614695       -0.54899685482442
H           -3.66924280289654        2.32012596335424        1.32614884294540
H           -5.83789862498297        3.00845437939607        2.17047743892922
H           -7.46571586321607       -0.84006726219054        1.23927111503209
H            0.13706786844892        2.27248378925141        0.13885143547153
H            0.35933043679801        0.99470366664310        1.33749306351891
H            2.48194456473214        1.64479160164985        0.29609564945812
H            1.86283700822804        1.26805937827825       -1.30478566941132
H            1.72168462288004       -1.14176418507318       -0.70043144046426
H            2.12061889973645       -0.73622530248581        0.97773020607814
H            3.25003950208868       -0.17261555612997       -2.31743963845458
H            4.06009444737651       -1.72516695644248       -2.06646804970140
H            6.18112152295215       -0.44463343404338       -1.50299686560581
H            5.32092508665725        1.05867599002279       -1.82830863162017
H            5.58976479375044       -0.10601962189079       -3.13014942592205
H            5.30145484792322       -1.86422537443010       -0.01138684355772
H            3.77036978254536       -2.42774479306604        0.68726139254153
H            3.89822151298462       -0.62659568287051        2.40552448438194
H            5.41126519378952       -1.56145730696694        2.41838426547078
H            5.14523931505098        0.70195431949467        0.82004183818619

 Bond Distances (Angstroems)
 ---------------------------
C1-C2=1.5315         C1-H24=1.0882        C1-H25=1.0858        C1-H26=1.0878        C2-C1=1.5315         C2-N3=1.4478         
C2-C15=1.5334        C2-H27=1.0934        N3-C2=1.4478         N3-C4=1.3591         N3-H28=1.0075        C4-N3=1.3591         
C4-C5=1.3886         C4-C9=1.4345         C5-C4=1.3886         C5-C6=1.3933         C5-H29=1.0774        C6-C5=1.3933         
C6-N7=1.3069         C6-H30=1.0831        N7-C6=1.3069         N7-C8=1.3465         C8-N7=1.3465         C8-C9=1.4236         
C8-C14=1.4107        C9-C4=1.4345         C9-C8=1.4236         C9-C10=1.4078        C10-C9=1.4078        C10-C11=1.3684       
C10-H31=1.0809       C11-C10=1.3684       C11-C12=1.4013       C11-H32=1.0786       C12-C11=1.4013       C12-Cl13=1.7292      
C12-C14=1.3659       Cl13-C12=1.7292      C14-C8=1.4107        C14-C12=1.3659       C14-H33=1.0776       C15-C2=1.5334        
C15-C16=1.5282       C15-H34=1.0937       C15-H35=1.0927       C16-C15=1.5282       C16-C17=1.5307       C16-H36=1.0917       
C16-H37=1.0901       C17-C16=1.5307       C17-N18=1.4544       C17-H38=1.1017       C17-H39=1.0921       N18-C17=1.4544       
N18-C19=1.4560       N18-C21=1.4561       C19-N18=1.4560       C19-C20=1.5255       C19-H40=1.0916       C19-H41=1.1024       
C20-C19=1.5255       C20-H42=1.0867       C20-H43=1.0871       C20-H44=1.0871       C21-N18=1.4561       C21-C22=1.5329       
C21-H45=1.0910       C21-H46=1.1004       C22-C21=1.5329       C22-O23=1.4027       C22-H47=1.1010       C22-H48=1.0923       
O23-C22=1.4027       O23-H49=0.9691       H24-C1=1.0882        H25-C1=1.0858        H26-C1=1.0878        H27-C2=1.0934        
H28-N3=1.0075        H29-C5=1.0774        H30-C6=1.0831        H31-C10=1.0809       H32-C11=1.0786       H33-C14=1.0776       
H34-C15=1.0937       H35-C15=1.0927       H36-C16=1.0917       H37-C16=1.0901       H38-C17=1.1017       H39-C17=1.0921       
H40-C19=1.0916       H41-C19=1.1024       H42-C20=1.0867       H43-C20=1.0871       H44-C20=1.0871       H45-C21=1.0910       
H46-C21=1.1004       H47-C22=1.1010       H48-C22=1.0923       H49-O23=0.9691       
 C  H  Rav=1.0898 sigma=0.0070  Rmin=1.0774  Rmax=1.1024    24
 C  C  Rav=1.4518 sigma=0.0664  Rmin=1.3659  Rmax=1.5334    15
 N  H  Rav=1.0075 sigma=0.0000  Rmin=1.0075  Rmax=1.0075     1
 N  C  Rav=1.4038 sigma=0.0593  Rmin=1.3069  Rmax=1.4561     7
 O  H  Rav=0.9691 sigma=0.0000  Rmin=0.9691  Rmax=0.9691     1
 O  C  Rav=1.4027 sigma=0.0000  Rmin=1.4027  Rmax=1.4027     1
 Cl C  Rav=1.7292 sigma=0.0000  Rmin=1.7292  Rmax=1.7292     1

 selected bond angles (degree)
 --------------------
H24-C1-C2=110.38               H25-C1-C2=110.92               H25-C1-H24=108.82              H26-C1-C2=109.83               
H26-C1-H24=108.49              H26-C1-H25=108.35              N3-C2-C1=110.78                C15-C2-C1=112.51               
C15-C2-N3=107.48               H27-C2-C1=109.53               H27-C2-N3=107.61               H27-C2-C15=108.79              
C4-N3-C2=125.69                H28-N3-C2=114.26               H28-N3-C4=116.32               C5-C4-N3=122.93                
C9-C4-N3=120.06                C9-C4-C5=116.98                C6-C5-C4=119.76                H29-C5-C4=121.33               
H29-C5-C6=118.91               N7-C6-C5=124.79                H30-C6-C5=119.60               H30-C6-N7=115.60               
C8-N7-C6=117.55                C9-C8-N7=123.26                C14-C8-N7=117.19               C14-C8-C9=119.55               
C8-C9-C4=117.65                C10-C9-C4=124.24               C10-C9-C8=118.11               C11-C10-C9=121.58              
H31-C10-C9=120.54              H31-C10-C11=117.88             

 selected dihedral angles (degree)
 ---------------------------------
N3-C2-C1-H24= 67.56           N3-C2-C1-H25=188.25           N3-C2-C1-H26=307.99           C15-C2-C1-H24=307.23          
C15-C2-C1-H25= 67.92          C15-C2-C1-H26=187.66          H27-C2-C1-H24=186.10          H27-C2-C1-H25=306.80          
H27-C2-C1-H26= 66.53          C4-N3-C2-C1= 77.62            C4-N3-C2-C15=200.91           C4-N3-C2-H27=317.92           
H28-N3-C2-C1=280.32           H28-N3-C2-C15= 43.60          H28-N3-C2-H27=160.62          C5-C4-N3-C2= 11.71            
C5-C4-N3-H28=168.60           C9-C4-N3-C2=189.50            C9-C4-N3-H28=346.40           C6-C5-C4-N3=177.79            
C6-C5-C4-C9=359.93            H29-C5-C4-N3=357.56           H29-C5-C4-C9=179.71           N7-C6-C5-C4=  0.55            
N7-C6-C5-H29=180.77           H30-C6-C5-C4=180.04           H30-C6-C5-H29=  0.26          C8-N7-C6-C5=359.52            
C8-N7-C6-H30=180.01           C9-C8-N7-C6=359.95            C14-C8-N7-C6=179.97           C8-C9-C4-N3=181.67            
C8-C9-C4-C5=359.60            C10-C9-C4-N3=  1.79           C10-C9-C4-C5=179.71           C4-C9-C8-N7=  0.49            
C4-C9-C8-C14=180.47           C10-C9-C8-N7=180.39           C10-C9-C8-C14=  0.36          C11-C10-C9-C4=179.52          
C11-C10-C9-C8=359.64          H31-C10-C9-C4=359.09          H31-C10-C9-C8=179.20          
           -------------------------------------------------
          |                Final Singlepoint                |
           -------------------------------------------------

          ...................................................
          :                      SETUP                      :
          :.................................................:
          :  # basis functions                 124          :
          :  # atomic orbitals                 123          :
          :  # shells                           73          :
          :  # electrons                       126          :
          :  max. iterations                   250          :
          :  Hamiltonian                  GFN2-xTB          :
          :  restarted?                      false          :
          :  GBSA solvation                  false          :
          :  PC potential                    false          :
          :  electronic temp.          300.0000000     K    :
          :  accuracy                    1.0000000          :
          :  -> integral cutoff          0.2500000E+02      :
          :  -> integral neglect         0.1000000E-07      :
          :  -> SCF convergence          0.1000000E-05 Eh   :
          :  -> wf. convergence          0.1000000E-03 e    :
          :  Broyden damping             0.4000000          :
          :  net charge                          0          :
          :  unpaired electrons                  0          :
          ...................................................

 iter      E             dE          RMSdq      gap      omega  full diag
   1    -70.1543168 -0.701543E+02  0.802E-05    2.58       0.0  T
   2    -70.1543168 -0.252243E-10  0.520E-05    2.58     274.9  T
   3    -70.1543168  0.201794E-11  0.382E-05    2.58     373.7  T

   *** convergence criteria satisfied after 3 iterations ***

         #    Occupation            Energy/Eh            Energy/eV
      -------------------------------------------------------------
         1        2.0000           -1.0508515             -28.5951
       ...           ...                  ...                  ...
        57        2.0000           -0.4131477             -11.2423
        58        2.0000           -0.4118209             -11.2062
        59        2.0000           -0.4077366             -11.0951
        60        2.0000           -0.3952775             -10.7560
        61        2.0000           -0.3706800             -10.0867
        62        2.0000           -0.3635006              -9.8914
        63        2.0000           -0.3607217              -9.8157 (HOMO)
        64                         -0.2659079              -7.2357 (LUMO)
        65                         -0.2374784              -6.4621
        66                         -0.1993697              -5.4251
        67                         -0.1541789              -4.1954
        68                         -0.1328262              -3.6144
       ...                                ...                  ...
       123                          0.6817788              18.5521
      -------------------------------------------------------------
                  HL-Gap            0.0948138 Eh            2.5800 eV
             Fermi-level           -0.3133148 Eh           -8.5257 eV

 SCC (total)                   0 d,  0 h,  0 min,  0.049 sec
 SCC setup                      ...        0 min,  0.000 sec (  0.766%)
 Dispersion                     ...        0 min,  0.000 sec (  0.884%)
 classical contributions        ...        0 min,  0.000 sec (  0.376%)
 integral evaluation            ...        0 min,  0.008 sec ( 16.933%)
 iterations                     ...        0 min,  0.008 sec ( 16.868%)
 molecular gradient             ...        0 min,  0.031 sec ( 63.741%)
 printout                       ...        0 min,  0.000 sec (  0.416%)

         :::::::::::::::::::::::::::::::::::::::::::::::::::::
         ::                     SUMMARY                     ::
         :::::::::::::::::::::::::::::::::::::::::::::::::::::
         :: total energy             -69.209806834236 Eh    ::
         :: gradient norm              0.000282035784 Eh/a0 ::
         :: HOMO-LUMO gap              2.580013478197 eV    ::
         ::.................................................::
         :: SCC energy               -70.154294178853 Eh    ::
         :: -> isotropic ES            0.053138696707 Eh    ::
         :: -> anisotropic ES          0.009260868474 Eh    ::
         :: -> anisotropic XC          0.037713594496 Eh    ::
         :: -> dispersion             -0.048976903713 Eh    ::
         :: repulsion energy           0.944487344617 Eh    ::
         :: add. restraining           0.000000000000 Eh    ::
         :: total charge               0.000000000000 e     ::
         :::::::::::::::::::::::::::::::::::::::::::::::::::::

           -------------------------------------------------
          |                Property Printout                |
           -------------------------------------------------

    * Orbital Energies and Occupations

         #    Occupation            Energy/Eh            Energy/eV
      -------------------------------------------------------------
         1        2.0000           -1.0508515             -28.5951
       ...           ...                  ...                  ...
        51        2.0000           -0.4525081             -12.3134
        52        2.0000           -0.4474883             -12.1768
        53        2.0000           -0.4435250             -12.0689
        54        2.0000           -0.4388451             -11.9416
        55        2.0000           -0.4370770             -11.8935
        56        2.0000           -0.4318749             -11.7519
        57        2.0000           -0.4131477             -11.2423
        58        2.0000           -0.4118209             -11.2062
        59        2.0000           -0.4077366             -11.0951
        60        2.0000           -0.3952775             -10.7560
        61        2.0000           -0.3706800             -10.0867
        62        2.0000           -0.3635006              -9.8914
        63        2.0000           -0.3607217              -9.8157 (HOMO)
        64                         -0.2659079              -7.2357 (LUMO)
        65                         -0.2374784              -6.4621
        66                         -0.1993697              -5.4251
        67                         -0.1541789              -4.1954
        68                         -0.1328262              -3.6144
        69                         -0.0692269              -1.8838
        70                         -0.0217119              -0.5908
        71                         -0.0019674              -0.0535
        72                          0.0205527               0.5593
        73                          0.0255352               0.6948
        74                          0.0256332               0.6975
       ...                                ...                  ...
       123                          0.6817788              18.5521
      -------------------------------------------------------------
                  HL-Gap            0.0948138 Eh            2.5800 eV
             Fermi-level           -0.3133148 Eh           -8.5257 eV

     #   Z          covCN         q      C6AA      α(0)
     1   6 C        3.753    -0.114    22.735     6.799
     2   6 C        3.786     0.044    19.843     6.345
     3   7 N        2.696    -0.174    24.769     7.392
     4   6 C        2.901     0.084    26.138     8.383
     5   6 C        2.913    -0.082    30.061     8.991
     6   6 C        2.906     0.063    26.578     8.453
     7   7 N        1.843    -0.255    27.492     7.771
     8   6 C        2.981     0.093    25.927     8.352
     9   6 C        2.983    -0.028    28.684     8.785
    10   6 C        2.919    -0.036    28.897     8.815
    11   6 C        2.951    -0.045    29.123     8.851
    12   6 C        2.885     0.098    25.824     8.331
    13  17 Cl       0.969    -0.180   104.823    15.663
    14   6 C        2.962    -0.052    29.290     8.877
    15   6 C        3.807    -0.069    21.816     6.649
    16   6 C        3.802    -0.066    21.771     6.643
    17   6 C        3.752     0.008    20.497     6.456
    18   7 N        2.730    -0.189    25.101     7.441
    19   6 C        3.750     0.014    20.407     6.443
    20   6 C        3.752    -0.113    22.719     6.797
    21   6 C        3.751    -0.004    20.705     6.489
    22   6 C        3.676     0.076    19.528     6.331
    23   8 O        1.655    -0.446    21.769     6.298
    24   1 H        0.925     0.040     2.445     2.445
    25   1 H        0.925     0.044     2.391     2.418
    26   1 H        0.925     0.045     2.384     2.415
    27   1 H        0.924     0.048     2.346     2.395
    28   1 H        0.860     0.163     1.317     1.798
    29   1 H        0.926     0.026     2.640     2.541
    30   1 H        0.925     0.034     2.535     2.490
    31   1 H        0.926     0.032     2.559     2.502
    32   1 H        0.926     0.053     2.285     2.364
    33   1 H        0.926     0.073     2.051     2.240
    34   1 H        0.924     0.037     2.485     2.465
    35   1 H        0.924     0.043     2.408     2.427
    36   1 H        0.924     0.049     2.331     2.388
    37   1 H        0.925     0.041     2.439     2.442
    38   1 H        0.923     0.009     2.910     2.668
    39   1 H        0.924     0.038     2.480     2.463
    40   1 H        0.924     0.032     2.556     2.500
    41   1 H        0.923     0.011     2.881     2.654
    42   1 H        0.925     0.047     2.354     2.400
    43   1 H        0.925     0.043     2.404     2.424
    44   1 H        0.925     0.040     2.450     2.448
    45   1 H        0.924     0.048     2.351     2.398
    46   1 H        0.923     0.012     2.858     2.644
    47   1 H        0.923     0.019     2.755     2.596
    48   1 H        0.924     0.043     2.413     2.429
    49   1 H        0.805     0.305     0.707     1.320

 Mol. C6AA /au·bohr⁶  :      25120.937801
 Mol. C8AA /au·bohr⁸  :     598196.998314
 Mol. α(0) /au        :        243.629619


Wiberg/Mayer (AO) data.
largest (>0.10) Wiberg bond orders for each atom

 ---------------------------------------------------------------------------
     #   Z sym  total        # sym  WBO       # sym  WBO       # sym  WBO
 ---------------------------------------------------------------------------
     1   6 C    3.991 --     2 C    0.995    24 H    0.986    26 H    0.984
                            25 H    0.982
     2   6 C    3.973 --     1 C    0.995    15 C    0.992     3 N    0.988
                            27 H    0.956
     3   7 N    3.404 --     4 C    1.218     2 C    0.988    28 H    0.931
     4   6 C    3.970 --     5 C    1.393     3 N    1.218     9 C    1.189
     5   6 C    3.978 --     4 C    1.393     6 C    1.368    29 H    0.964
     6   6 C    3.982 --     7 N    1.504     5 C    1.368    30 H    0.963
     7   7 N    3.048 --     6 C    1.504     8 C    1.283
     8   6 C    3.983 --     7 N    1.283    14 C    1.270     9 C    1.246
     9   6 C    3.986 --    10 C    1.305     8 C    1.246     4 C    1.189
    10   6 C    3.992 --    11 C    1.538     9 C    1.305    31 H    0.958
                            14 C    0.111
    11   6 C    3.987 --    10 C    1.538    12 C    1.302    32 H    0.968
    12   6 C    3.916 --    14 C    1.512    11 C    1.302    13 Cl   0.970
    13  17 Cl   1.101 --    12 C    0.970
    14   6 C    3.986 --    12 C    1.512     8 C    1.270    33 H    0.963
                            10 C    0.111
    15   6 C    3.994 --    16 C    1.006     2 C    0.992    35 H    0.975
                            34 H    0.974
    16   6 C    3.995 --    15 C    1.006    17 C    1.001    36 H    0.975
                            37 H    0.972
    17   6 C    3.987 --    18 N    1.002    16 C    1.001    39 H    0.970
                            38 H    0.966
    18   7 N    3.138 --    21 C    1.003    17 C    1.002    19 C    0.999
    19   6 C    3.987 --    20 C    1.015    18 N    0.999    40 H    0.972
                            41 H    0.969
    20   6 C    3.995 --    19 C    1.015    43 H    0.987    44 H    0.985
                            42 H    0.983
    21   6 C    3.986 --    18 N    1.003    22 C    0.991    45 H    0.970
                            46 H    0.967
    22   6 C    3.965 --    23 O    1.011    21 C    0.991    48 H    0.973
                            47 H    0.966
    23   8 O    1.953 --    22 C    1.011    49 H    0.878
    24   1 H    0.998 --     1 C    0.986
    25   1 H    0.997 --     1 C    0.982
    26   1 H    0.998 --     1 C    0.984
    27   1 H    0.997 --     2 C    0.956
    28   1 H    0.973 --     3 N    0.931
    29   1 H    0.999 --     5 C    0.964
    30   1 H    0.998 --     6 C    0.963
    31   1 H    0.999 --    10 C    0.958
    32   1 H    0.997 --    11 C    0.968
    33   1 H    0.994 --    14 C    0.963
    34   1 H    0.998 --    15 C    0.974
    35   1 H    0.998 --    15 C    0.975
    36   1 H    0.997 --    16 C    0.975
    37   1 H    0.998 --    16 C    0.972
    38   1 H    1.000 --    17 C    0.966
    39   1 H    0.998 --    17 C    0.970
    40   1 H    0.999 --    19 C    0.972
    41   1 H    1.000 --    19 C    0.969
    42   1 H    0.998 --    20 C    0.983
    43   1 H    0.998 --    20 C    0.987
    44   1 H    0.998 --    20 C    0.985
    45   1 H    0.997 --    21 C    0.970
    46   1 H    1.000 --    21 C    0.967
    47   1 H    1.000 --    22 C    0.966
    48   1 H    0.998 --    22 C    0.973
    49   1 H    0.907 --    23 O    0.878
 ---------------------------------------------------------------------------

Topologies differ in total number of bonds
Writing topology from bond orders to xtbtopo.mol

molecular dipole:
                 x           y           z       tot (Debye)
 q only:        1.747       0.377      -0.991
   full:        1.566       0.426      -1.201       5.131
molecular quadrupole (traceless):
                xx          xy          yy          xz          yz          zz
 q only:      -39.775      -1.972      22.805       2.528      -2.746      16.970
  q+dip:      -47.365     -12.471      29.541      -3.040       0.132      17.824
   full:      -47.748     -13.192      27.313      -2.402      -1.804      20.435

           -------------------------------------------------
          |                Geometry Summary                 |
           -------------------------------------------------

      molecular mass/u    :      335.8721578
   center of mass at/Å    :       -1.4614408       0.1214286       0.4393518
  moments of inertia/u·Å² :        0.8263432E+03   0.7670718E+04   0.7873599E+04
rotational constants/cm⁻¹ :        0.2040028E-01   0.2197660E-02   0.2141033E-02

 * 50 selected distances

     #   Z          #   Z                                           value/Å
     1   6 C        2   6 C                                       1.5315007
     2   6 C        3   7 N                                       1.4477817
     3   7 N        4   6 C                                       1.3590769
     4   6 C        5   6 C                                       1.3885677
     5   6 C        6   6 C                                       1.3932903
     6   6 C        7   7 N                                       1.3068770
     7   7 N        8   6 C                                       1.3465447
     4   6 C        9   6 C                                       1.4345161
     8   6 C        9   6 C                                       1.4235573
     9   6 C       10   6 C                                       1.4077635
    10   6 C       11   6 C                                       1.3684085
    11   6 C       12   6 C                                       1.4013398
    12   6 C       13  17 Cl                                      1.7291686 (max)
     8   6 C       14   6 C                                       1.4107314
    12   6 C       14   6 C                                       1.3658956
     2   6 C       15   6 C                                       1.5333662
    15   6 C       16   6 C                                       1.5282153
    16   6 C       17   6 C                                       1.5306995
    17   6 C       18   7 N                                       1.4544299
    18   7 N       19   6 C                                       1.4559817
    19   6 C       20   6 C                                       1.5255319
    18   7 N       21   6 C                                       1.4561398
    21   6 C       22   6 C                                       1.5328802
    22   6 C       23   8 O                                       1.4026944
     1   6 C       24   1 H                                       1.0881624
     1   6 C       25   1 H                                       1.0858358
     1   6 C       26   1 H                                       1.0878350
     2   6 C       27   1 H                                       1.0933814
     3   7 N       28   1 H                                       1.0074814
     5   6 C       29   1 H                                       1.0774287
     6   6 C       30   1 H                                       1.0831008
    10   6 C       31   1 H                                       1.0808525
    11   6 C       32   1 H                                       1.0785521
    14   6 C       33   1 H                                       1.0775913
    15   6 C       34   1 H                                       1.0937205
    15   6 C       35   1 H                                       1.0927090
    16   6 C       36   1 H                                       1.0917126
    16   6 C       37   1 H                                       1.0900985
    17   6 C       38   1 H                                       1.1016784
    17   6 C       39   1 H                                       1.0921319
    19   6 C       40   1 H                                       1.0915653
    19   6 C       41   1 H                                       1.1023595
    20   6 C       42   1 H                                       1.0867158
    20   6 C       43   1 H                                       1.0871048
    20   6 C       44   1 H                                       1.0870932
    21   6 C       45   1 H                                       1.0910337
    21   6 C       46   1 H                                       1.1004023
    22   6 C       47   1 H                                       1.1009693
    22   6 C       48   1 H                                       1.0922899
    23   8 O       49   1 H                                       0.9691179 (min)

 * 7 distinct bonds (by element types)

   Z      Z             #   av. dist./Å        max./Å        min./Å
   1 H    6 C          24     1.0897635     1.1023595     1.0774287
   6 C    6 C          15     1.4517509     1.5333662     1.3658956
   1 H    7 N           1     1.0074814     1.0074814     1.0074814
   6 C    7 N           7     1.4038331     1.4561398     1.3068770
   1 H    8 O           1     0.9691179     0.9691179     0.9691179
   6 C    8 O           1     1.4026944     1.4026944     1.4026944
   6 C   17 Cl          1     1.7291686     1.7291686     1.7291686


optimized geometry written to: xtbopt.xyz


           -------------------------------------------------
          | TOTAL ENERGY              -69.209806834236 Eh   |
          | GRADIENT NORM               0.000282035784 Eh/α |
          | HOMO-LUMO GAP               2.580013478197 eV   |
           -------------------------------------------------

------------------------------------------------------------------------
 * finished run on 2025/05/15 at 16:04:45.488     
------------------------------------------------------------------------
 total:
 * wall-time:     0 d,  0 h,  0 min,  2.741 sec
 *  cpu-time:     0 d,  0 h,  0 min,  1.401 sec
 * ratio c/w:     0.511 speedup
 SCF:
 * wall-time:     0 d,  0 h,  0 min,  0.077 sec
 *  cpu-time:     0 d,  0 h,  0 min,  0.077 sec
 * ratio c/w:     0.994 speedup
 ANC optimizer:
 * wall-time:     0 d,  0 h,  0 min,  2.599 sec
 *  cpu-time:     0 d,  0 h,  0 min,  1.310 sec
 * ratio c/w:     0.504 speedup



----- Single-point -----
      -----------------------------------------------------------      
     |                   =====================                   |     
     |                           x T B                           |     
     |                   =====================                   |     
     |                         S. Grimme                         |     
     |          Mulliken Center for Theoretical Chemistry        |     
     |                    University of Bonn                     |     
      -----------------------------------------------------------      

   * xtb version 6.7.1 (edcfbbe) compiled by 'conda@3ef47c1a292c' on 2024-11-25

   xtb is free software: you can redistribute it and/or modify it under
   the terms of the GNU Lesser General Public License as published by
   the Free Software Foundation, either version 3 of the License, or
   (at your option) any later version.
   
   xtb is distributed in the hope that it will be useful,
   but WITHOUT ANY WARRANTY; without even the implied warranty of
   MERCHANTABILITY or FITNESS FOR A PARTICULAR PURPOSE.  See the
   GNU Lesser General Public License for more details.
   
   Cite this work as:
   * C. Bannwarth, E. Caldeweyher, S. Ehlert, A. Hansen, P. Pracht,
     J. Seibert, S. Spicher, S. Grimme, WIREs Comput. Mol. Sci., 2020, 11,
     e01493. DOI: 10.1002/wcms.1493
   
   for GFN2-xTB:
   * C. Bannwarth, S. Ehlert and S. Grimme., J. Chem. Theory Comput., 2019,
     15, 1652-1671. DOI: 10.1021/acs.jctc.8b01176
   for GFN1-xTB:
   * S. Grimme, C. Bannwarth, P. Shushkov, J. Chem. Theory Comput., 2017,
     13, 1989-2009. DOI: 10.1021/acs.jctc.7b00118
   for GFN0-xTB:
   * P. Pracht, E. Caldeweyher, S. Ehlert, S. Grimme, ChemRxiv, 2019, preprint.
     DOI: 10.26434/chemrxiv.8326202.v1
   for GFN-FF:
   * S. Spicher and S. Grimme, Angew. Chem. Int. Ed., 2020, 59, 15665-15673.
     DOI: 10.1002/anie.202004239
   
   for ALPB and GBSA implicit solvation:
   * S. Ehlert, M. Stahn, S. Spicher, S. Grimme, J. Chem. Theory Comput.,
     2021, 17, 4250-4261. DOI: 10.1021/acs.jctc.1c00471
   
   for ddCOSMO and CPCM-X implicit solvation:
   * M. Stahn, S. Ehlert, S. Grimme, J. Phys. Chem. A,
     2023, XX, XXXX-XXXX. DOI: 10.1021/acs.jpca.3c04382
   
   for DFT-D4:
   * E. Caldeweyher, C. Bannwarth and S. Grimme, J. Chem. Phys., 2017,
     147, 034112. DOI: 10.1063/1.4993215
   * E. Caldeweyher, S. Ehlert, A. Hansen, H. Neugebauer, S. Spicher,
     C. Bannwarth and S. Grimme, J. Chem. Phys., 2019, 150, 154122.
     DOI: 10.1063/1.5090222
   * E. Caldeweyher, J.-M. Mewes, S. Ehlert and S. Grimme, Phys. Chem. Chem. Phys.
     2020, 22, 8499-8512. DOI: 10.1039/D0CP00502A
   
   for sTDA-xTB:
   * S. Grimme and C. Bannwarth, J. Chem. Phys., 2016, 145, 054103.
     DOI: 10.1063/1.4959605
   
   in the mass-spec context:
   * V. Asgeirsson, C. Bauer and S. Grimme, Chem. Sci., 2017, 8, 4879.
     DOI: 10.1039/c7sc00601b
   * J. Koopman and S. Grimme, ACS Omega 2019, 4, 12, 15120-15133.
     DOI: 10.1021/acsomega.9b02011
   
   for metadynamics refer to:
   * S. Grimme, J. Chem. Theory Comput., 2019, 155, 2847-2862
     DOI: 10.1021/acs.jctc.9b00143
   
   for SPH calculations refer to:
   * S. Spicher and S. Grimme, J. Chem. Theory Comput., 2021, 17, 1701-1714
     DOI: 10.1021/acs.jctc.0c01306
   
   for ONIOM refer to:
   * C. Plett, A. Katbashev, S. Ehlert, S. Grimme, M. Bursch,
     Phys. Chem. Chem. Phys., 2023, 25, 17860-17868. DOI: 10.1039/D3CP02178E
   
   for DIPRO refer to:
   * J. Kohn, N. Gildemeister, S. Grimme, D. Fazzi, A. Hansen,
     J. Chem. Phys., 2023, just accepted.
   
   for PTB refer to:
   * S. Grimme, M. Mueller, A. Hansen, J. Chem. Phys., 2023, 158, 124111.
     DOI: 10.1063/5.0137838
   
   with help from (in alphabetical order)
   P. Atkinson, C. Bannwarth, F. Bohle, G. Brandenburg, E. Caldeweyher
   M. Checinski, S. Dohm, S. Ehlert, S. Ehrlich, I. Gerasimov, C. Hölzer
   A. Katbashev, J. Kohn, J. Koopman, C. Lavigne, S. Lehtola, F. März, M. Müller,
   F. Musil, H. Neugebauer, J. Pisarek, C. Plett, P. Pracht, F. Pultar,
   J. Seibert, P. Shushkov, S. Spicher, M. Stahn, M. Steiner, T. Strunk,
   J. Stückrath, T. Rose, and J. Unsleber
   
 * started run on 2025/05/15 at 16:04:45.505     
   ID    Z sym.   atoms
    1    6 C      1, 2, 4-6, 8-12, 14-17, 19-22
    2    7 N      3, 7, 18
    3   17 Cl     13
    4    8 O      23
    5    1 H      24-49

           -------------------------------------------------
          |                Calculation Setup                |
           -------------------------------------------------

          program call               : xtb /rds/general/user/hgt20/home/callum/QDESCP/Hydroxychloroquine_rdkit_conf_6/Hydroxychloroquine_rdkit_conf_6.xyz --acc 1 --gfn 2 --chrg 0 --uhf 0 --etemp 300 --input /rds/general/user/hgt20/home/callum/QDESCP/Hydroxychloroquine_rdkit_conf_6/Hydroxychloroquine_rdkit_conf_6_xtb.inp -P 1
          hostname                   : login-c
          coordinate file            : /rds/general/user/hgt20/home/callum/QDESCP/Hydroxychloroquine_rdkit_conf_6/Hydroxychloroquine_rdkit_conf_6.xyz
          omp threads                :                     1


           -------------------------------------------------
          |                 G F N 2 - x T B                 |
           -------------------------------------------------

        Reference                      10.1021/acs.jctc.8b01176
      * Hamiltonian:
        H0-scaling (s, p, d)           1.850000    2.230000    2.230000
        zeta-weighting                 0.500000
      * Dispersion:
        s8                             2.700000
        a1                             0.520000
        a2                             5.000000
        s9                             5.000000
      * Repulsion:
        kExp                           1.500000    1.000000
        rExp                           1.000000
      * Coulomb:
        alpha                          2.000000
        third order                    shell-resolved
        anisotropic                    true
        a3                             3.000000
        a5                             4.000000
        cn-shift                       1.200000
        cn-exp                         4.000000
        max-rad                        5.000000

q/qsh data taken from xtbrestart
CAMM data taken from xtbrestart

          ...................................................
          :                      SETUP                      :
          :.................................................:
          :  # basis functions                 124          :
          :  # atomic orbitals                 123          :
          :  # shells                           73          :
          :  # electrons                       126          :
          :  max. iterations                   250          :
          :  Hamiltonian                  GFN2-xTB          :
          :  restarted?                       true          :
          :  GBSA solvation                  false          :
          :  PC potential                    false          :
          :  electronic temp.          300.0000000     K    :
          :  accuracy                    1.0000000          :
          :  -> integral cutoff          0.2500000E+02      :
          :  -> integral neglect         0.1000000E-07      :
          :  -> SCF convergence          0.1000000E-05 Eh   :
          :  -> wf. convergence          0.1000000E-03 e    :
          :  Broyden damping             0.4000000          :
          :  net charge                          0          :
          :  unpaired electrons                  0          :
          ...................................................

 iter      E             dE          RMSdq      gap      omega  full diag
   1    -70.1543168 -0.701543E+02  0.183E-05    2.58       0.0  T
   2    -70.1543168 -0.250111E-11  0.154E-05    2.58     927.8  T
   3    -70.1543168 -0.132161E-11  0.129E-05    2.58    1103.5  T

   *** convergence criteria satisfied after 3 iterations ***

         #    Occupation            Energy/Eh            Energy/eV
      -------------------------------------------------------------
         1        2.0000           -1.0508515             -28.5951
       ...           ...                  ...                  ...
        57        2.0000           -0.4131476             -11.2423
        58        2.0000           -0.4118206             -11.2062
        59        2.0000           -0.4077365             -11.0951
        60        2.0000           -0.3952775             -10.7560
        61        2.0000           -0.3706799             -10.0867
        62        2.0000           -0.3635005              -9.8914
        63        2.0000           -0.3607213              -9.8157 (HOMO)
        64                         -0.2659078              -7.2357 (LUMO)
        65                         -0.2374783              -6.4621
        66                         -0.1993696              -5.4251
        67                         -0.1541787              -4.1954
        68                         -0.1328257              -3.6144
       ...                                ...                  ...
       123                          0.6817789              18.5521
      -------------------------------------------------------------
                  HL-Gap            0.0948135 Eh            2.5800 eV
             Fermi-level           -0.3133146 Eh           -8.5257 eV

 SCC (total)                   0 d,  0 h,  0 min,  0.098 sec
 SCC setup                      ...        0 min,  0.000 sec (  0.453%)
 Dispersion                     ...        0 min,  0.001 sec (  0.621%)
 classical contributions        ...        0 min,  0.000 sec (  0.195%)
 integral evaluation            ...        0 min,  0.009 sec (  8.871%)
 iterations                     ...        0 min,  0.059 sec ( 60.772%)
 molecular gradient             ...        0 min,  0.028 sec ( 28.825%)
 printout                       ...        0 min,  0.000 sec (  0.255%)

         :::::::::::::::::::::::::::::::::::::::::::::::::::::
         ::                     SUMMARY                     ::
         :::::::::::::::::::::::::::::::::::::::::::::::::::::
         :: total energy             -69.209806834273 Eh    ::
         :: gradient norm              0.000282056235 Eh/a0 ::
         :: HOMO-LUMO gap              2.580006826607 eV    ::
         ::.................................................::
         :: SCC energy               -70.154294178890 Eh    ::
         :: -> isotropic ES            0.053138411869 Eh    ::
         :: -> anisotropic ES          0.009260812941 Eh    ::
         :: -> anisotropic XC          0.037713606730 Eh    ::
         :: -> dispersion             -0.048976903740 Eh    ::
         :: repulsion energy           0.944487344617 Eh    ::
[...]
     DOI: 10.1021/acsomega.9b02011
   
   for metadynamics refer to:
   * S. Grimme, J. Chem. Theory Comput., 2019, 155, 2847-2862
     DOI: 10.1021/acs.jctc.9b00143
   
   for SPH calculations refer to:
   * S. Spicher and S. Grimme, J. Chem. Theory Comput., 2021, 17, 1701-1714
     DOI: 10.1021/acs.jctc.0c01306
   
   for ONIOM refer to:
   * C. Plett, A. Katbashev, S. Ehlert, S. Grimme, M. Bursch,
     Phys. Chem. Chem. Phys., 2023, 25, 17860-17868. DOI: 10.1039/D3CP02178E
   
   for DIPRO refer to:
   * J. Kohn, N. Gildemeister, S. Grimme, D. Fazzi, A. Hansen,
     J. Chem. Phys., 2023, just accepted.
   
   for PTB refer to:
   * S. Grimme, M. Mueller, A. Hansen, J. Chem. Phys., 2023, 158, 124111.
     DOI: 10.1063/5.0137838
   
   with help from (in alphabetical order)
   P. Atkinson, C. Bannwarth, F. Bohle, G. Brandenburg, E. Caldeweyher
   M. Checinski, S. Dohm, S. Ehlert, S. Ehrlich, I. Gerasimov, C. Hölzer
   A. Katbashev, J. Kohn, J. Koopman, C. Lavigne, S. Lehtola, F. März, M. Müller,
   F. Musil, H. Neugebauer, J. Pisarek, C. Plett, P. Pracht, F. Pultar,
   J. Seibert, P. Shushkov, S. Spicher, M. Stahn, M. Steiner, T. Strunk,
   J. Stückrath, T. Rose, and J. Unsleber
   
 * started run on 2025/05/15 at 16:04:48.597     
   ID    Z sym.   atoms
    1    6 C      1, 2, 4-6, 8-12, 14-17, 19-22
    2    7 N      3, 7, 18
    3   17 Cl     13
    4    8 O      23
    5    1 H      24-49

           -------------------------------------------------
          |                Calculation Setup                |
           -------------------------------------------------

          program call               : xtb /rds/general/user/hgt20/home/callum/QDESCP/Hydroxychloroquine_rdkit_conf_6/Hydroxychloroquine_rdkit_conf_6.xyz --acc 1 --gfn 2 --chrg 0 --uhf 2 --etemp 300 --input /rds/general/user/hgt20/home/callum/QDESCP/Hydroxychloroquine_rdkit_conf_6/Hydroxychloroquine_rdkit_conf_6_xtb.inp -P 1
          hostname                   : login-c
          coordinate file            : /rds/general/user/hgt20/home/callum/QDESCP/Hydroxychloroquine_rdkit_conf_6/Hydroxychloroquine_rdkit_conf_6.xyz
          omp threads                :                     1


           -------------------------------------------------
          |                 G F N 2 - x T B                 |
           -------------------------------------------------

        Reference                      10.1021/acs.jctc.8b01176
      * Hamiltonian:
        H0-scaling (s, p, d)           1.850000    2.230000    2.230000
        zeta-weighting                 0.500000
      * Dispersion:
        s8                             2.700000
        a1                             0.520000
        a2                             5.000000
        s9                             5.000000
      * Repulsion:
        kExp                           1.500000    1.000000
        rExp                           1.000000
      * Coulomb:
        alpha                          2.000000
        third order                    shell-resolved
        anisotropic                    true
        a3                             3.000000
        a5                             4.000000
        cn-shift                       1.200000
        cn-exp                         4.000000
        max-rad                        5.000000


          ...................................................
          :                      SETUP                      :
          :.................................................:
          :  # basis functions                 124          :
          :  # atomic orbitals                 123          :
          :  # shells                           73          :
          :  # electrons                       126          :
          :  max. iterations                   250          :
          :  Hamiltonian                  GFN2-xTB          :
          :  restarted?                      false          :
          :  GBSA solvation                  false          :
          :  PC potential                    false          :
          :  electronic temp.          300.0000000     K    :
          :  accuracy                    1.0000000          :
          :  -> integral cutoff          0.2500000E+02      :
          :  -> integral neglect         0.1000000E-07      :
          :  -> SCF convergence          0.1000000E-05 Eh   :
          :  -> wf. convergence          0.1000000E-03 e    :
          :  Broyden damping             0.4000000          :
          :  net charge                          0          :
          :  unpaired electrons                  2          :
          ...................................................

 iter      E             dE          RMSdq      gap      omega  full diag
   1    -69.8653838 -0.698654E+02  0.346E+00    0.48       0.0  T
   2    -69.9158176 -0.504338E-01  0.243E+00    0.88       1.0  T
   3    -69.9401950 -0.243773E-01  0.182E+00    0.67       1.0  T
   4    -70.0132938 -0.730988E-01  0.893E-01    0.75       1.0  T
   5    -69.9829558  0.303379E-01  0.780E-01    0.71       1.0  T
   6    -70.0349130 -0.519571E-01  0.558E-01    0.69       1.0  T
   7    -70.0420820 -0.716904E-02  0.255E-01    0.70       1.0  T
   8    -70.0399697  0.211229E-02  0.392E-01    0.70       1.0  T
   9    -70.0431323 -0.316260E-02  0.279E-01    0.70       1.0  T
  10    -70.0445570 -0.142470E-02  0.205E-01    0.70       1.0  T
  11    -70.0455240 -0.967002E-03  0.135E-01    0.70       1.0  T
  12    -69.9468900  0.986340E-01  0.926E-01    0.70       1.0  T
  13    -70.0374843 -0.905943E-01  0.297E-01    0.70       1.0  T
  14    -70.0461651 -0.868083E-02  0.554E-02    0.70       1.0  T
  15    -70.0462691 -0.103933E-03  0.342E-02    0.70       1.0  T
  16    -70.0462872 -0.180881E-04  0.314E-02    0.70       1.0  T
  17    -70.0463419 -0.547082E-04  0.246E-02    0.70       1.0  T
  18    -70.0463713 -0.294785E-04  0.166E-02    0.70       1.0  T
  19    -70.0463918 -0.204748E-04  0.688E-03    0.70       2.1  T
  20    -70.0463952 -0.333846E-05  0.275E-03    0.70       5.2  T
  21    -70.0463954 -0.217462E-06  0.232E-03    0.70       6.1  T
  22    -70.0463958 -0.477354E-06  0.760E-04    0.70      18.8  T
  23    -70.0463957  0.142722E-06  0.127E-03    0.70      11.2  T
  24    -70.0463959 -0.165557E-06  0.279E-04    0.70      51.3  T

   *** convergence criteria satisfied after 24 iterations ***

         #    Occupation            Energy/Eh            Energy/eV
      -------------------------------------------------------------
         1        2.0000           -1.0407055             -28.3190
       ...           ...                  ...                  ...
        58        2.0000           -0.4049356             -11.0189
        59        2.0000           -0.4024929             -10.9524
        60        2.0000           -0.3848930             -10.4735
        61        1.9669           -0.3738358             -10.1726
        62        1.7667           -0.3717596             -10.1161
        63        1.2664           -0.3696666             -10.0591
        64        1.0000           -0.2556575              -6.9568 (HOMO)
        65        0.0000           -0.2298667              -6.2550 (LUMO)
        66                         -0.1908655              -5.1937
        67                         -0.1453439              -3.9550
        68                         -0.1211224              -3.2959
        69                         -0.0613431              -1.6692
       ...                                ...                  ...
       123                          0.6907291              18.7957
      -------------------------------------------------------------
                  HL-Gap            0.0257908 Eh            0.7018 eV
             Fermi-level           -0.3066956 Eh           -8.3456 eV

 transition dipole moment (au) for excitation:          63          64
     X       Y       Z   
   1.4347   0.9370  -0.0555  total (au/Debye):    1.714   4.358
 dE (eV)             :    3.102
 oscillator strength :  0.31595E+00

 SCC (total)                   0 d,  0 h,  0 min,  0.200 sec
 SCC setup                      ...        0 min,  0.000 sec (  0.224%)
 Dispersion                     ...        0 min,  0.001 sec (  0.276%)
 classical contributions        ...        0 min,  0.000 sec (  0.096%)
 integral evaluation            ...        0 min,  0.009 sec (  4.252%)
 iterations                     ...        0 min,  0.111 sec ( 55.485%)
 molecular gradient             ...        0 min,  0.072 sec ( 35.960%)
 printout                       ...        0 min,  0.007 sec (  3.702%)

         :::::::::::::::::::::::::::::::::::::::::::::::::::::
         ::                     SUMMARY                     ::
         :::::::::::::::::::::::::::::::::::::::::::::::::::::
         :: total energy             -69.101885934281 Eh    ::
         :: gradient norm              0.108827312829 Eh/a0 ::
         :: HOMO-LUMO gap              0.701803028448 eV    ::
         ::.................................................::
         :: SCC energy               -70.046373278898 Eh    ::
         :: -> isotropic ES            0.049840494059 Eh    ::
         :: -> anisotropic ES          0.009487752778 Eh    ::
         :: -> anisotropic XC          0.033596777195 Eh    ::
         :: -> dispersion             -0.048910934352 Eh    ::
         :: repulsion energy           0.944487344617 Eh    ::
         :: add. restraining           0.000000000000 Eh    ::
         :: total charge              -0.000000000095 e     ::
         :::::::::::::::::::::::::::::::::::::::::::::::::::::

           -------------------------------------------------
          |                Property Printout                |
           -------------------------------------------------

    * Orbital Energies and Occupations

         #    Occupation            Energy/Eh            Energy/eV
      -------------------------------------------------------------
         1        2.0000           -1.0407055             -28.3190
       ...           ...                  ...                  ...
        52        2.0000           -0.4503484             -12.2546
        53        2.0000           -0.4440002             -12.0819
        54        2.0000           -0.4364200             -11.8756
        55        2.0000           -0.4285104             -11.6604
        56        2.0000           -0.4255141             -11.5788
        57        2.0000           -0.4136744             -11.2567
        58        2.0000           -0.4049356             -11.0189
        59        2.0000           -0.4024929             -10.9524
        60        2.0000           -0.3848930             -10.4735
        61        1.9669           -0.3738358             -10.1726
        62        1.7667           -0.3717596             -10.1161
        63        1.2664           -0.3696666             -10.0591
        64        1.0000           -0.2556575              -6.9568 (HOMO)
        65        0.0000           -0.2298667              -6.2550 (LUMO)
        66                         -0.1908655              -5.1937
        67                         -0.1453439              -3.9550
        68                         -0.1211224              -3.2959
        69                         -0.0613431              -1.6692
        70                         -0.0257775              -0.7014
        71                         -0.0075041              -0.2042
        72                          0.0313346               0.8527
        73                          0.0361540               0.9838
        74                          0.0362626               0.9868
        75                          0.0433007               1.1783
       ...                                ...                  ...
       123                          0.6907291              18.7957
      -------------------------------------------------------------
                  HL-Gap            0.0257908 Eh            0.7018 eV
             Fermi-level           -0.3066956 Eh           -8.3456 eV

     #   Z          covCN         q      C6AA      α(0)
     1   6 C        3.753    -0.113    22.724     6.797
     2   6 C        3.786     0.044    19.858     6.347
     3   7 N        2.696    -0.152    24.298     7.321
     4   6 C        2.901     0.045    26.993     8.519
     5   6 C        2.913    -0.058    29.446     8.898
     6   6 C        2.906     0.035    27.223     8.555
     7   7 N        1.843    -0.204    26.267     7.596
     8   6 C        2.981     0.091    25.978     8.361
     9   6 C        2.983    -0.022    28.546     8.764
    10   6 C        2.919    -0.062    29.531     8.911
    11   6 C        2.951    -0.046    29.148     8.855
    12   6 C        2.885     0.085    26.099     8.375
    13  17 Cl       0.969    -0.189   105.101    15.684
    14   6 C        2.962    -0.065    29.606     8.925
    15   6 C        3.807    -0.070    21.832     6.652
    16   6 C        3.802    -0.066    21.774     6.643
    17   6 C        3.752     0.006    20.534     6.462
    18   7 N        2.730    -0.177    24.823     7.400
    19   6 C        3.750     0.012    20.441     6.448
    20   6 C        3.752    -0.114    22.732     6.799
    21   6 C        3.751    -0.006    20.741     6.495
    22   6 C        3.676     0.076    19.533     6.332
    23   8 O        1.655    -0.445    21.737     6.294
    24   1 H        0.925     0.043     2.407     2.426
    25   1 H        0.925     0.046     2.375     2.410
    26   1 H        0.925     0.048     2.341     2.393
    27   1 H        0.924     0.051     2.312     2.378
    28   1 H        0.860     0.168     1.283     1.775
    29   1 H        0.926     0.030     2.581     2.512
    30   1 H        0.925     0.033     2.549     2.497
    31   1 H        0.926     0.019     2.743     2.590
    32   1 H        0.926     0.043     2.406     2.426
    33   1 H        0.926     0.061     2.192     2.315
    34   1 H        0.924     0.040     2.445     2.445
    35   1 H        0.924     0.045     2.381     2.413
    36   1 H        0.924     0.050     2.315     2.379
    37   1 H        0.925     0.042     2.422     2.434
    38   1 H        0.923     0.013     2.842     2.637
    39   1 H        0.924     0.041     2.442     2.444
    40   1 H        0.924     0.035     2.519     2.482
    41   1 H        0.923     0.015     2.809     2.621
    42   1 H        0.925     0.049     2.338     2.391
    43   1 H        0.925     0.045     2.386     2.416
    44   1 H        0.925     0.042     2.420     2.433
    45   1 H        0.924     0.050     2.317     2.380
    46   1 H        0.923     0.017     2.786     2.610
    47   1 H        0.923     0.020     2.727     2.583
    48   1 H        0.924     0.045     2.382     2.413
    49   1 H        0.805     0.305     0.707     1.321

 Mol. C6AA /au·bohr⁶  :      25100.535014
 Mol. C8AA /au·bohr⁸  :     598171.979176
 Mol. α(0) /au        :        243.557118


Wiberg/Mayer (AO) data.
largest (>0.10) Wiberg bond orders for each atom

 ---------------------------------------------------------------------------
     #   Z sym  total        # sym  WBO       # sym  WBO       # sym  WBO
 ---------------------------------------------------------------------------
     1   6 C    3.982 --     2 C    0.987    24 H    0.986    26 H    0.984
                            25 H    0.981
     2   6 C    3.970 --     3 N    0.995    15 C    0.990     1 C    0.987
                            27 H    0.953
     3   7 N    3.340 --     4 C    1.202     2 C    0.995    28 H    0.928
     4   6 C    3.874 --     5 C    1.234     3 N    1.202     9 C    1.185
     5   6 C    3.863 --     6 C    1.452     4 C    1.234    29 H    0.962
     6   6 C    3.947 --     5 C    1.452     7 N    1.334    30 H    0.957
     7   7 N    2.878 --     6 C    1.334     8 C    1.280
     8   6 C    3.959 --     7 N    1.280    14 C    1.266     9 C    1.228
     9   6 C    3.953 --    10 C    1.311     8 C    1.228     4 C    1.185
    10   6 C    3.899 --    11 C    1.343     9 C    1.311    31 H    0.956
    11   6 C    3.947 --    12 C    1.417    10 C    1.343    32 H    0.969
    12   6 C    3.887 --    11 C    1.417    14 C    1.330    13 Cl   0.961
    13  17 Cl   1.084 --    12 C    0.961
    14   6 C    3.853 --    12 C    1.330     8 C    1.266    33 H    0.964
    15   6 C    3.992 --    16 C    1.006     2 C    0.990    35 H    0.975
                            34 H    0.974
    16   6 C    3.993 --    15 C    1.006    17 C    1.001    36 H    0.974
                            37 H    0.972
    17   6 C    3.984 --    18 N    1.002    16 C    1.001    39 H    0.970
                            38 H    0.964
    18   7 N    3.127 --    21 C    1.003    17 C    1.002    19 C    0.999
    19   6 C    3.984 --    20 C    1.014    18 N    0.999    40 H    0.972
                            41 H    0.967
    20   6 C    3.993 --    19 C    1.014    43 H    0.987    44 H    0.985
                            42 H    0.983
    21   6 C    3.983 --    18 N    1.003    22 C    0.990    45 H    0.970
                            46 H    0.966
    22   6 C    3.963 --    23 O    1.011    21 C    0.990    48 H    0.972
                            47 H    0.965
    23   8 O    1.953 --    22 C    1.011    49 H    0.878
    24   1 H    0.998 --     1 C    0.986
    25   1 H    0.996 --     1 C    0.981
    26   1 H    0.998 --     1 C    0.984
    27   1 H    0.995 --     2 C    0.953
    28   1 H    0.971 --     3 N    0.928
    29   1 H    0.995 --     5 C    0.962
    30   1 H    0.989 --     6 C    0.957
    31   1 H    0.995 --    10 C    0.956
    32   1 H    0.997 --    11 C    0.969
    33   1 H    0.994 --    14 C    0.964
    34   1 H    0.998 --    15 C    0.974
    35   1 H    0.998 --    15 C    0.975
    36   1 H    0.997 --    16 C    0.974
    37   1 H    0.998 --    16 C    0.972
    38   1 H    0.996 --    17 C    0.964
    39   1 H    0.998 --    17 C    0.970
    40   1 H    0.999 --    19 C    0.972
    41   1 H    0.996 --    19 C    0.967
    42   1 H    0.998 --    20 C    0.983
    43   1 H    0.998 --    20 C    0.987
    44   1 H    0.998 --    20 C    0.985
    45   1 H    0.997 --    21 C    0.970
    46   1 H    0.996 --    21 C    0.966
    47   1 H    0.999 --    22 C    0.965
    48   1 H    0.998 --    22 C    0.972
    49   1 H    0.907 --    23 O    0.878
 ---------------------------------------------------------------------------

Topologies differ in total number of bonds
Writing topology from bond orders to xtbtopo.mol

molecular dipole:
                 x           y           z       tot (Debye)
 q only:        2.738       0.045      -1.298
   full:        2.540       0.016      -1.532       7.540
molecular quadrupole (traceless):
                xx          xy          yy          xz          yz          zz
 q only:      -46.170       1.907      26.060       6.688      -3.965      20.111
  q+dip:      -53.797      -6.310      33.149       2.134      -1.403      20.648
   full:      -54.068      -7.121      31.091       2.598      -3.082      22.977


           -------------------------------------------------
          | TOTAL ENERGY              -69.101885934281 Eh   |
          | GRADIENT NORM               0.108827312829 Eh/α |
          | HOMO-LUMO GAP               0.701803028448 eV   |
           -------------------------------------------------

------------------------------------------------------------------------
 * finished run on 2025/05/15 at 16:04:48.812     
------------------------------------------------------------------------
 total:
 * wall-time:     0 d,  0 h,  0 min,  0.215 sec
 *  cpu-time:     0 d,  0 h,  0 min,  0.121 sec
 * ratio c/w:     0.565 speedup
 SCF:
 * wall-time:     0 d,  0 h,  0 min,  0.200 sec
 *  cpu-time:     0 d,  0 h,  0 min,  0.109 sec
 * ratio c/w:     0.543 speedup


