49
 energy: -69.209806834236 gnorm: 0.000282035784 xtb: 6.7.1 (edcfbbe)
C           -0.80242012350476        0.66243600833614       -1.91765239647556
C           -0.69444448232472        0.37119831003262       -0.41798053381963
N           -1.94923743674016        0.64548236127212        0.25010196181622
C           -3.04715619074937       -0.15541331511450        0.23492961151451
C           -3.02275584657594       -1.46080816135481       -0.23779527495791
C           -4.17701145513263       -2.23902555383698       -0.18009633454914
N           -5.32767909615605       -1.83273433565981        0.28768425854082
C           -5.39950930740607       -0.57249071309969        0.75652177266343
C           -4.29184271066455        0.32166674482277        0.76501089745783
C           -4.48651814231255        1.61379422075274        1.28875299250939
C           -5.70199861763628        2.01529487698391        1.77243245235422
C           -6.78373204678069        1.12468755560526        1.75183222417972
Cl          -8.30884587410541        1.65861744471508        2.36743771041448
C           -6.64530799668352       -0.14168214285220        1.25906747073672
C            0.38650012826042        1.21540336972289        0.26764902016664
C            1.80507739546753        0.98740362148266       -0.25302011599068
C            2.29433882266023       -0.45035168118553       -0.06190887693401
N            3.72003852820255       -0.55085277523667       -0.33143769382315
C            4.03686073934475       -0.67021592791032       -1.74750912533004
C            5.36847451296195        0.00010260952258       -2.07112153141315
C            4.39291135278794       -1.54023325956507        0.49844847068264
C            4.79665007554247       -0.88263860597317        1.82294294298844
O            5.55837510879643        0.27055083156198        1.58319267876557
H           -0.92492084733817        1.73010484900636       -2.08845649029082
H            0.08503395569775        0.32309707106413       -2.44330768849732
H           -1.66488504409901        0.14547957668648       -2.33273673071717
H           -0.46363389008441       -0.68680623042880       -0.26686635706602
H           -2.11041946687481        1.62088829448471        0.44406654767497
H           -2.12629209777106       -1.88886228018554       -0.65489817505002
H           -4.15487206163027       -3.25712637614695       -0.54899685482442
H           -3.66924280289654        2.32012596335424        1.32614884294540
H           -5.83789862498297        3.00845437939607        2.17047743892922
H           -7.46571586321607       -0.84006726219054        1.23927111503209
H            0.13706786844892        2.27248378925141        0.13885143547153
H            0.35933043679801        0.99470366664310        1.33749306351891
H            2.48194456473214        1.64479160164985        0.29609564945812
H            1.86283700822804        1.26805937827825       -1.30478566941132
H            1.72168462288004       -1.14176418507318       -0.70043144046426
H            2.12061889973645       -0.73622530248581        0.97773020607814
H            3.25003950208868       -0.17261555612997       -2.31743963845458
H            4.06009444737651       -1.72516695644248       -2.06646804970140
H            6.18112152295215       -0.44463343404338       -1.50299686560581
H            5.32092508665725        1.05867599002279       -1.82830863162017
H            5.58976479375044       -0.10601962189079       -3.13014942592205
H            5.30145484792322       -1.86422537443010       -0.01138684355772
H            3.77036978254536       -2.42774479306604        0.68726139254153
H            3.89822151298462       -0.62659568287051        2.40552448438194
H            5.41126519378952       -1.56145730696694        2.41838426547078
H            5.14523931505098        0.70195431949467        0.82004183818619
