98
 energy: -148.198622234940 gnorm: 0.000581674301 xtb: 6.7.1 (edcfbbe)
O           -3.88344433601105        2.09654309519419       -0.61622699472133
C           -3.39069230110352        1.26366028097712        0.11364785405720
N           -2.44768886176792        0.36312567188427       -0.21538560585099
C           -2.09418928562355       -0.06092167434683       -1.56596351816341
C           -3.24752117241732       -0.84265278089939       -2.23176940234740
C           -3.97766633557681       -1.68865361296944       -1.22846151036329
C           -5.24222110023600       -1.31915727772150       -0.78888217218982
C           -5.90099307113941       -2.06120434472608        0.17594362963778
C           -5.29729311366279       -3.18429954191089        0.71480339811689
C           -4.03839828159275       -3.56446870956954        0.28034097950370
C           -3.38216855042230       -2.82036321091379       -0.68374228626314
C           -1.64374442594256        1.11849402722746       -2.47252549298910
C           -0.76128430486827        2.12737385557390       -1.71781013597773
C            0.37974437622270        1.52442827617314       -0.90656225242034
N            1.34859992818073        0.86939406779408       -1.75950422412678
C            1.87159277766695       -0.33228804407475       -1.44158072744586
C            2.87860215804089       -0.88443875704450       -2.44339101659933
N            4.00706904399680       -1.44480084422447       -1.73064012993282
C            5.26479937347485       -1.01090613471414       -2.04937680242359
N            6.28501963082640       -1.60129774741336       -1.34787963894585
C            7.62152311069393       -1.07645666820211       -1.48735341831628
C            6.08124844950549       -2.60666845594596       -0.32685248217447
C            5.68802197054804       -1.98676922332360        0.98225876388568
C            6.47046062290469       -1.81222560955880        2.08000667470121
S            5.61423979798542       -0.96385728507457        3.30945415642473
C            4.23322172416553       -0.88926239324282        2.22916053288065
C            2.97025852532964       -0.20218327051137        2.60852349225970
C            3.25866874638099        1.26364397352169        2.94116660364161
C            2.31399962715700       -0.90695672006713        3.79694104592209
N            4.43952679474245       -1.45823820218080        1.09920386358955
O            5.48312687707866       -0.20956524234232       -2.94344138026842
C            2.23968997212773       -1.96087577164963       -3.35697993442929
C            1.06842153859852       -1.38297803183893       -4.14516826142103
C            1.80568587021019       -3.18519990534299       -2.55700916243806
O            1.55036784999607       -0.93030321614814       -0.42960219740485
C            1.03549273695658        2.60098207629154       -0.01966541499703
C            0.07380472031810        3.02261431797199        1.05505553173776
C           -0.29405904313846        2.12137015997955        2.04856572985336
C           -1.21281110254621        2.47533054834657        3.01872065077358
C           -1.78086507462942        3.73844614761110        3.00863275387524
C           -1.42313617863954        4.64233301704022        2.02396454265865
C           -0.50248339925870        4.28535550004552        1.05350104846816
O           -2.71420050658732        1.78099166515781       -3.07924244569715
O           -3.68435072769569        1.15882821810975        1.42988554416188
C           -4.67638676494802        2.06511793222550        1.91328913519586
C           -6.04544167410788        1.62545767693304        1.52211490654698
C           -6.89913259367947        0.81164957747850        2.20840798257618
N           -8.06712029981580        0.53876668644978        1.58840024444881
C           -8.13420765385846        1.11549074573353        0.44282624649286
S           -6.74916913159851        2.05695578693966        0.00257180566679
H           -2.22529707884511       -0.28932221072209        0.52134821413764
H           -1.23736003553280       -0.72782068885958       -1.43579182086029
H           -2.82581291158401       -1.46112285253404       -3.02613381156452
H           -3.93722678327302       -0.13017242112858       -2.68621052244127
H           -5.71468786933931       -0.44389038288969       -1.21236879639743
H           -6.88424565759903       -1.76280661505458        0.50902795583353
H           -5.80874448254621       -3.76396330481909        1.46875610587557
H           -3.56595146903195       -4.44325622746451        0.69453284719552
H           -2.39956969543513       -3.12065522022071       -1.01993034411890
H           -1.07754919485761        0.68037053037849       -3.30346461464483
H           -1.40201883551949        2.69317355874628       -1.03939817063488
H           -0.36037347430796        2.83083688296280       -2.45180115612119
H            0.00124753350257        0.74348090177016       -0.24215614430038
H            1.67410947863130        1.36343084537457       -2.57485550748114
H            3.26273061647313       -0.07695263513113       -3.07956312987280
H            3.81095893943085       -1.70448424772006       -0.76833428751613
H            7.59906112021735       -0.31872479546594       -2.26784688308111
H            8.31444089457364       -1.87062917316587       -1.77562672065276
H            7.96406944185236       -0.62458740859874       -0.55128689056100
H            5.29837231996280       -3.29713948348445       -0.65379119507615
H            7.01436686838209       -3.16260265537770       -0.20772688877757
H            7.48003981150811       -2.13055240034959        2.24306901172662
H            2.31161330198862       -0.27191715642112        1.73597918439458
H            2.33360896927556        1.79378008281416        3.15472597872503
H            3.90530074984395        1.32894486564516        3.81467381852464
H            3.75768906442837        1.75561301536524        2.10834196012951
H            2.97742671792627       -0.89133851768431        4.66003565546823
H            2.08800001275099       -1.94101415358439        3.54760220914618
H            1.38823565755452       -0.40280380357257        4.06289348535215
H            3.02247480746820       -2.26279654574499       -4.06115953984682
H            0.70658380635797       -2.11346497813448       -4.86507158198942
H            1.36812548501270       -0.49028593066325       -4.68992228337049
H            0.24786180726936       -1.12815728828671       -3.47773991646047
H            1.10469224921425       -2.90380390249854       -1.77545557864234
H            2.66624079804990       -3.65535642374072       -2.08910933695085
H            1.32861522901024       -3.91073960212163       -3.21232574559728
H            1.32981796748307        3.45765694963485       -0.62838119173897
H            1.93164481537204        2.17032386389427        0.43115575558616
H            0.14267827608853        1.13328484092005        2.05764920141914
H           -1.48939762839558        1.76383293168480        3.78311230881139
H           -2.49856785988218        4.01780742931176        3.76619178452862
H           -1.86389841823744        5.62842148227512        2.00878912993256
H           -0.23071449956838        4.99620014115950        0.28622082640229
H           -3.28461686621996        2.12532906084455       -2.36498747360994
H           -4.56523784322765        2.05165615088517        2.99878542329241
H           -4.46603021841202        3.06645606690986        1.52224098144316
H           -6.71025513230854        0.39215870439037        3.17973655736648
H           -8.97466771787985        1.02764209261686       -0.21659937304227
