----- Optimization -----
      -----------------------------------------------------------      
     |                   =====================                   |     
     |                           x T B                           |     
     |                   =====================                   |     
     |                         S. Grimme                         |     
     |          Mulliken Center for Theoretical Chemistry        |     
     |                    University of Bonn                     |     
      -----------------------------------------------------------      

   * xtb version 6.7.1 (edcfbbe) compiled by 'conda@3ef47c1a292c' on 2024-11-25

   xtb is free software: you can redistribute it and/or modify it under
   the terms of the GNU Lesser General Public License as published by
   the Free Software Foundation, either version 3 of the License, or
   (at your option) any later version.
   
   xtb is distributed in the hope that it will be useful,
   but WITHOUT ANY WARRANTY; without even the implied warranty of
   MERCHANTABILITY or FITNESS FOR A PARTICULAR PURPOSE.  See the
   GNU Lesser General Public License for more details.
   
   Cite this work as:
   * C. Bannwarth, E. Caldeweyher, S. Ehlert, A. Hansen, P. Pracht,
     J. Seibert, S. Spicher, S. Grimme, WIREs Comput. Mol. Sci., 2020, 11,
     e01493. DOI: 10.1002/wcms.1493
   
   for GFN2-xTB:
   * C. Bannwarth, S. Ehlert and S. Grimme., J. Chem. Theory Comput., 2019,
     15, 1652-1671. DOI: 10.1021/acs.jctc.8b01176
   for GFN1-xTB:
   * S. Grimme, C. Bannwarth, P. Shushkov, J. Chem. Theory Comput., 2017,
     13, 1989-2009. DOI: 10.1021/acs.jctc.7b00118
   for GFN0-xTB:
   * P. Pracht, E. Caldeweyher, S. Ehlert, S. Grimme, ChemRxiv, 2019, preprint.
     DOI: 10.26434/chemrxiv.8326202.v1
   for GFN-FF:
   * S. Spicher and S. Grimme, Angew. Chem. Int. Ed., 2020, 59, 15665-15673.
     DOI: 10.1002/anie.202004239
   
   for ALPB and GBSA implicit solvation:
   * S. Ehlert, M. Stahn, S. Spicher, S. Grimme, J. Chem. Theory Comput.,
     2021, 17, 4250-4261. DOI: 10.1021/acs.jctc.1c00471
   
   for ddCOSMO and CPCM-X implicit solvation:
   * M. Stahn, S. Ehlert, S. Grimme, J. Phys. Chem. A,
     2023, XX, XXXX-XXXX. DOI: 10.1021/acs.jpca.3c04382
   
   for DFT-D4:
   * E. Caldeweyher, C. Bannwarth and S. Grimme, J. Chem. Phys., 2017,
     147, 034112. DOI: 10.1063/1.4993215
   * E. Caldeweyher, S. Ehlert, A. Hansen, H. Neugebauer, S. Spicher,
     C. Bannwarth and S. Grimme, J. Chem. Phys., 2019, 150, 154122.
     DOI: 10.1063/1.5090222
   * E. Caldeweyher, J.-M. Mewes, S. Ehlert and S. Grimme, Phys. Chem. Chem. Phys.
     2020, 22, 8499-8512. DOI: 10.1039/D0CP00502A
   
   for sTDA-xTB:
   * S. Grimme and C. Bannwarth, J. Chem. Phys., 2016, 145, 054103.
     DOI: 10.1063/1.4959605
   
   in the mass-spec context:
   * V. Asgeirsson, C. Bauer and S. Grimme, Chem. Sci., 2017, 8, 4879.
     DOI: 10.1039/c7sc00601b
   * J. Koopman and S. Grimme, ACS Omega 2019, 4, 12, 15120-15133.
     DOI: 10.1021/acsomega.9b02011
   
   for metadynamics refer to:
   * S. Grimme, J. Chem. Theory Comput., 2019, 155, 2847-2862
     DOI: 10.1021/acs.jctc.9b00143
   
   for SPH calculations refer to:
   * S. Spicher and S. Grimme, J. Chem. Theory Comput., 2021, 17, 1701-1714
     DOI: 10.1021/acs.jctc.0c01306
   
   for ONIOM refer to:
   * C. Plett, A. Katbashev, S. Ehlert, S. Grimme, M. Bursch,
     Phys. Chem. Chem. Phys., 2023, 25, 17860-17868. DOI: 10.1039/D3CP02178E
   
   for DIPRO refer to:
   * J. Kohn, N. Gildemeister, S. Grimme, D. Fazzi, A. Hansen,
     J. Chem. Phys., 2023, just accepted.
   
   for PTB refer to:
   * S. Grimme, M. Mueller, A. Hansen, J. Chem. Phys., 2023, 158, 124111.
     DOI: 10.1063/5.0137838
   
   with help from (in alphabetical order)
   P. Atkinson, C. Bannwarth, F. Bohle, G. Brandenburg, E. Caldeweyher
   M. Checinski, S. Dohm, S. Ehlert, S. Ehrlich, I. Gerasimov, C. Hölzer
   A. Katbashev, J. Kohn, J. Koopman, C. Lavigne, S. Lehtola, F. März, M. Müller,
   F. Musil, H. Neugebauer, J. Pisarek, C. Plett, P. Pracht, F. Pultar,
   J. Seibert, P. Shushkov, S. Spicher, M. Stahn, M. Steiner, T. Strunk,
   J. Stückrath, T. Rose, and J. Unsleber
   
 * started run on 2025/05/15 at 16:04:53.992     
   ID    Z sym.   atoms
    1    8 O      1, 31, 35, 43, 44
    2    6 C      2, 4-14, 16, 17, 19, 21-24, 26-29, 32-34, 36-42, 45-47, 49
    3    7 N      3, 15, 18, 20, 30, 48
    4   16 S      25, 50
    5    1 H      51-98

           -------------------------------------------------
          |                Calculation Setup                |
           -------------------------------------------------

          program call               : xtb /rds/general/user/hgt20/home/callum/QDESCP/Ritonavir_rdkit_conf_16/Ritonavir_rdkit_conf_16.xyz --opt normal --acc 1 --gfn 2 --chrg 0 --uhf 0 -P 1
          hostname                   : login-c
          coordinate file            : /rds/general/user/hgt20/home/callum/QDESCP/Ritonavir_rdkit_conf_16/Ritonavir_rdkit_conf_16.xyz
          omp threads                :                     1


           -------------------------------------------------
          |                 G F N 2 - x T B                 |
           -------------------------------------------------

        Reference                      10.1021/acs.jctc.8b01176
      * Hamiltonian:
        H0-scaling (s, p, d)           1.850000    2.230000    2.230000
        zeta-weighting                 0.500000
      * Dispersion:
        s8                             2.700000
        a1                             0.520000
        a2                             5.000000
        s9                             5.000000
      * Repulsion:
        kExp                           1.500000    1.000000
        rExp                           1.000000
      * Coulomb:
        alpha                          2.000000
        third order                    shell-resolved
        anisotropic                    true
        a3                             3.000000
        a5                             4.000000
        cn-shift                       1.200000
        cn-exp                         4.000000
        max-rad                        5.000000


          ...................................................
          :                      SETUP                      :
          :.................................................:
          :  # basis functions                 260          :
          :  # atomic orbitals                 258          :
          :  # shells                          150          :
          :  # electrons                       268          :
          :  max. iterations                   250          :
          :  Hamiltonian                  GFN2-xTB          :
          :  restarted?                      false          :
          :  GBSA solvation                  false          :
          :  PC potential                    false          :
          :  electronic temp.          300.0000000     K    :
          :  accuracy                    1.0000000          :
          :  -> integral cutoff          0.2500000E+02      :
          :  -> integral neglect         0.1000000E-07      :
          :  -> SCF convergence          0.1000000E-05 Eh   :
          :  -> wf. convergence          0.1000000E-03 e    :
          :  Broyden damping             0.4000000          :
          :  net charge                          0          :
          :  unpaired electrons                  0          :
          ...................................................

 iter      E             dE          RMSdq      gap      omega  full diag
   1   -149.8231076 -0.149823E+03  0.380E+00    2.83       0.0  T
   2   -150.0348566 -0.211749E+00  0.213E+00    3.27       1.0  T
   3   -150.0340860  0.770622E-03  0.970E-01    2.74       1.0  T
   4   -150.0357346 -0.164866E-02  0.418E-01    2.51       1.0  T
   5   -150.0490810 -0.133464E-01  0.125E-01    2.51       1.0  T
   6   -150.0497445 -0.663467E-03  0.557E-02    2.54       1.0  T
   7   -150.0498169 -0.724469E-04  0.253E-02    2.54       1.0  T
   8   -150.0498355 -0.185272E-04  0.109E-02    2.54       1.0  T
   9   -150.0498386 -0.314938E-05  0.431E-03    2.54       2.3  T
  10   -150.0498389 -0.309337E-06  0.158E-03    2.54       6.4  T
  11   -150.0498390 -0.456032E-07  0.718E-04    2.54      14.1  T
  12   -150.0498390 -0.758340E-08  0.345E-04    2.54      29.3  T

   *** convergence criteria satisfied after 12 iterations ***

         #    Occupation            Energy/Eh            Energy/eV
      -------------------------------------------------------------
         1        2.0000           -0.7584185             -20.6376
       ...           ...                  ...                  ...
       128        2.0000           -0.4007809             -10.9058
       129        2.0000           -0.3975052             -10.8167
       130        2.0000           -0.3956608             -10.7665
       131        2.0000           -0.3916750             -10.6580
       132        2.0000           -0.3834677             -10.4347
       133        2.0000           -0.3764841             -10.2447
       134        2.0000           -0.3677204             -10.0062 (HOMO)
       135                         -0.2742431              -7.4625 (LUMO)
       136                         -0.2645365              -7.1984
       137                         -0.2324617              -6.3256
       138                         -0.2301661              -6.2631
       139                         -0.2282246              -6.2103
       ...                                ...                  ...
       258                          0.6300046              17.1433
      -------------------------------------------------------------
                  HL-Gap            0.0934773 Eh            2.5436 eV
             Fermi-level           -0.3209818 Eh           -8.7344 eV

 SCC (total)                   0 d,  0 h,  0 min,  0.500 sec
 SCC setup                      ...        0 min,  0.002 sec (  0.303%)
 Dispersion                     ...        0 min,  0.002 sec (  0.477%)
 classical contributions        ...        0 min,  0.001 sec (  0.151%)
 integral evaluation            ...        0 min,  0.030 sec (  5.949%)
 iterations                     ...        0 min,  0.261 sec ( 52.187%)
 molecular gradient             ...        0 min,  0.203 sec ( 40.669%)
 printout                       ...        0 min,  0.001 sec (  0.261%)

         :::::::::::::::::::::::::::::::::::::::::::::::::::::
         ::                     SUMMARY                     ::
         :::::::::::::::::::::::::::::::::::::::::::::::::::::
         :: total energy            -148.170560158690 Eh    ::
         :: gradient norm              0.113497751627 Eh/a0 ::
         :: HOMO-LUMO gap              2.543646524978 eV    ::
         ::.................................................::
         :: SCC energy              -150.045351655513 Eh    ::
         :: -> isotropic ES            0.192708198127 Eh    ::
         :: -> anisotropic ES          0.011882949987 Eh    ::
         :: -> anisotropic XC          0.065505332011 Eh    ::
         :: -> dispersion             -0.119541941409 Eh    ::
         :: repulsion energy           1.874791496823 Eh    ::
         :: add. restraining           0.000000000000 Eh    ::
         :: total charge              -0.000000000000 e     ::
         :::::::::::::::::::::::::::::::::::::::::::::::::::::

      ----------------------------------------------------------- 
     |                   =====================                   |
     |                        A N C O P T                        |
     |                   =====================                   |
     |               Approximate Normal Coordinate               |
     |                Rational Function Optimizer                |
      ----------------------------------------------------------- 
      ----------------------------------------------------------- 
     |                   =====================                   |
     |                        A N C O P T                        |
     |                   =====================                   |
     |               Approximate Normal Coordinate               |
     |                Rational Function Optimizer                |
      ----------------------------------------------------------- 

          ...................................................
          :                      SETUP                      :
          :.................................................:
          :   optimization level            normal          :
          :   max. optcycles                   294          :
          :   ANC micro-cycles                  20          :
          :   degrees of freedom               288          :
          :.................................................:
          :   RF solver                   davidson          :
          :   write xtbopt.log                true          :
          :   linear?                        false          :
          :   energy convergence         0.5000000E-05 Eh   :
          :   grad. convergence          0.1000000E-02 Eh/α :
          :   maxmium RF displ.          1.0000000          :
          :   Hlow (freq-cutoff)         0.1000000E-01      :
          :   Hmax (freq-cutoff)         5.0000000          :
          :   S6 in model hess.         20.0000000          :
          ...................................................

generating ANC from exact Hessian ...
Using Lindh-Hessian (1995)
 Shifting diagonal of input Hessian by    9.9893881827572799E-003
 Lowest  eigenvalues of input Hessian
    0.000000    0.000000    0.000000    0.000000    0.000000    0.000000
    0.010000    0.010037    0.010071    0.010097    0.010237    0.010290
    0.010366    0.010509    0.010575    0.010605    0.010637    0.010784
 Highest eigenvalues
    1.946359    2.056515    2.085818    2.182930    2.372511    2.473327


........................................................................
.............................. CYCLE    1 ..............................
........................................................................

 iter      E             dE          RMSdq      gap      omega  full diag
   1   -150.0498390 -0.150050E+03  0.148E-04    2.54       0.0  T
   2   -150.0498390 -0.229051E-09  0.115E-04    2.54      88.0  T
   3   -150.0498390 -0.983164E-09  0.521E-05    2.54     193.7  T
     SCC iter.                  ...        0 min,  0.038 sec
     gradient                   ...        0 min,  0.205 sec
 * total energy  :  -148.1705602 Eh     change       -0.4251973E-08 Eh
   gradient norm :     0.1135023 Eh/α   predicted     0.0000000E+00 (-100.00%)
   displ. norm   :     0.3728063 α      lambda       -0.2274140E-01
   maximum displ.:     0.0956605 α      in ANC's #30, #67, #102, ...

........................................................................
.............................. CYCLE    2 ..............................
........................................................................

 iter      E             dE          RMSdq      gap      omega  full diag
   1   -150.1433829 -0.150143E+03  0.164E-01    2.58       0.0  T
   2   -150.1436028 -0.219837E-03  0.102E-01    2.59       1.0  T
   3   -150.1435103  0.924958E-04  0.617E-02    2.59       1.0  T
   4   -150.1437012 -0.190874E-03  0.211E-02    2.60       1.0  T
   5   -150.1437276 -0.264289E-04  0.524E-03    2.60       1.9  T
   6   -150.1437280 -0.425328E-06  0.262E-03    2.60       3.9  T
   7   -150.1437282 -0.164375E-06  0.118E-03    2.60       8.6  T
   8   -150.1437282 -0.213574E-07  0.594E-04    2.60      17.0  T
   9   -150.1437282 -0.831434E-08  0.202E-04    2.60      50.1  T
     SCC iter.                  ...        0 min,  0.140 sec
     gradient                   ...        0 min,  0.194 sec
 * total energy  :  -148.1861255 Eh     change       -0.1556538E-01 Eh
   gradient norm :     0.0464145 Eh/α   predicted    -0.1296046E-01 ( -16.74%)
   displ. norm   :     0.3697315 α      lambda       -0.6900195E-02
   maximum displ.:     0.1511641 α      in ANC's #30, #54, #44, ...

........................................................................
.............................. CYCLE    3 ..............................
........................................................................

 iter      E             dE          RMSdq      gap      omega  full diag
   1   -150.1903704 -0.150190E+03  0.105E-01    2.59       0.0  T
   2   -150.1905290 -0.158648E-03  0.656E-02    2.61       1.0  T
   3   -150.1905321 -0.310620E-05  0.383E-02    2.61       1.0  T
   4   -150.1905740 -0.418390E-04  0.178E-02    2.61       1.0  T
   5   -150.1905925 -0.185358E-04  0.343E-03    2.62       2.9  T
   6   -150.1905927 -0.192384E-06  0.174E-03    2.61       5.8  T
   7   -150.1905928 -0.105234E-06  0.709E-04    2.61      14.2  T
   8   -150.1905928 -0.765374E-08  0.345E-04    2.61      29.3  T
     SCC iter.                  ...        0 min,  0.117 sec
     gradient                   ...        0 min,  0.154 sec
 * total energy  :  -148.1904081 Eh     change       -0.4282536E-02 Eh
   gradient norm :     0.0168735 Eh/α   predicted    -0.3925640E-02 (  -8.33%)
   displ. norm   :     0.3012628 α      lambda       -0.1691496E-02
   maximum displ.:     0.1457567 α      in ANC's #30, #23, #29, ...

........................................................................
.............................. CYCLE    4 ..............................
........................................................................

 iter      E             dE          RMSdq      gap      omega  full diag
   1   -150.1973875 -0.150197E+03  0.488E-02    2.59       0.0  T
   2   -150.1974274 -0.398700E-04  0.287E-02    2.60       1.0  T
   3   -150.1974266  0.856612E-06  0.155E-02    2.60       1.0  T
   4   -150.1974296 -0.308732E-05  0.830E-03    2.61       1.2  T
   5   -150.1974348 -0.511350E-05  0.160E-03    2.61       6.3  T
   6   -150.1974348 -0.313529E-07  0.837E-04    2.61      12.1  T
   7   -150.1974348 -0.241251E-07  0.339E-04    2.61      29.8  T
     SCC iter.                  ...        0 min,  0.110 sec
     gradient                   ...        0 min,  0.177 sec
 * total energy  :  -148.1916433 Eh     change       -0.1235193E-02 Eh
   gradient norm :     0.0105100 Eh/α   predicted    -0.9225382E-03 ( -25.31%)
   displ. norm   :     0.3653793 α      lambda       -0.1192087E-02
   maximum displ.:     0.1662985 α      in ANC's #30, #8, #23, ...

........................................................................
.............................. CYCLE    5 ..............................
........................................................................

 iter      E             dE          RMSdq      gap      omega  full diag
   1   -150.1974442 -0.150197E+03  0.494E-02    2.58       0.0  T
   2   -150.1974749 -0.306619E-04  0.283E-02    2.60       1.0  T
   3   -150.1974739  0.980612E-06  0.128E-02    2.60       1.0  T
   4   -150.1974751 -0.116768E-05  0.615E-03    2.60       1.6  T
   5   -150.1974782 -0.317964E-05  0.147E-03    2.60       6.9  T
   6   -150.1974783 -0.239058E-07  0.793E-04    2.60      12.7  T
   7   -150.1974783 -0.242679E-07  0.312E-04    2.60      32.4  T
     SCC iter.                  ...        0 min,  0.103 sec
     gradient                   ...        0 min,  0.181 sec
 * total energy  :  -148.1924701 Eh     change       -0.8268197E-03 Eh
   gradient norm :     0.0076373 Eh/α   predicted    -0.6756194E-03 ( -18.29%)
   displ. norm   :     0.3248117 α      lambda       -0.6138651E-03
   maximum displ.:     0.1339186 α      in ANC's #8, #30, #18, ...

........................................................................
.............................. CYCLE    6 ..............................
........................................................................

 iter      E             dE          RMSdq      gap      omega  full diag
   1   -150.1962965 -0.150196E+03  0.424E-02    2.59       0.0  T
   2   -150.1963062 -0.965899E-05  0.244E-02    2.60       1.0  T
   3   -150.1963041  0.204017E-05  0.840E-03    2.60       1.2  T
   4   -150.1963064 -0.224523E-05  0.366E-03    2.60       2.8  T
   5   -150.1963075 -0.110502E-05  0.104E-03    2.60       9.7  T
   6   -150.1963075 -0.148825E-07  0.525E-04    2.60      19.2  T
   7   -150.1963075 -0.126872E-07  0.195E-04    2.60      51.7  T
     SCC iter.                  ...        0 min,  0.111 sec
     gradient                   ...        0 min,  0.160 sec
 * total energy  :  -148.1929211 Eh     change       -0.4510274E-03 Eh
   gradient norm :     0.0075021 Eh/α   predicted    -0.3393254E-03 ( -24.77%)
   displ. norm   :     0.3545294 α      lambda       -0.5013904E-03
   maximum displ.:     0.1678079 α      in ANC's #8, #18, #5, ...

........................................................................
.............................. CYCLE    7 ..............................
........................................................................

 iter      E             dE          RMSdq      gap      omega  full diag
   1   -150.1960391 -0.150196E+03  0.462E-02    2.60       0.0  T
   2   -150.1960430 -0.388194E-05  0.267E-02    2.61       1.0  T
   3   -150.1960400  0.299509E-05  0.718E-03    2.60       1.4  T
   4   -150.1960435 -0.345860E-05  0.262E-03    2.60       3.9  T
   5   -150.1960440 -0.487885E-06  0.932E-04    2.61      10.8  T
   6   -150.1960440 -0.120580E-07  0.419E-04    2.61      24.1  T
     SCC iter.                  ...        0 min,  0.103 sec
     gradient                   ...        0 min,  0.141 sec
 * total energy  :  -148.1933049 Eh     change       -0.3837921E-03 Eh
   gradient norm :     0.0067158 Eh/α   predicted    -0.2822058E-03 ( -26.47%)
   displ. norm   :     0.3996991 α      lambda       -0.4732315E-03
   maximum displ.:     0.2017968 α      in ANC's #8, #9, #5, ...

........................................................................
.............................. CYCLE    8 ..............................
........................................................................

 iter      E             dE          RMSdq      gap      omega  full diag
   1   -150.1966285 -0.150197E+03  0.535E-02    2.62       0.0  T
   2   -150.1966316 -0.309547E-05  0.311E-02    2.62       1.0  T
   3   -150.1966294  0.216355E-05  0.602E-03    2.61       1.7  T
   4   -150.1966322 -0.274787E-05  0.223E-03    2.61       4.5  T
   5   -150.1966325 -0.285416E-06  0.995E-04    2.61      10.2  T
   6   -150.1966325 -0.194446E-07  0.422E-04    2.61      23.9  T
     SCC iter.                  ...        0 min,  0.080 sec
     gradient                   ...        0 min,  0.133 sec
 * total energy  :  -148.1936764 Eh     change       -0.3715047E-03 Eh
   gradient norm :     0.0059945 Eh/α   predicted    -0.2744182E-03 ( -26.13%)
   displ. norm   :     0.4396623 α      lambda       -0.4525481E-03
   maximum displ.:     0.2283345 α      in ANC's #8, #9, #5, ...

........................................................................
.............................. CYCLE    9 ..............................
........................................................................

 iter      E             dE          RMSdq      gap      omega  full diag
   1   -150.1979190 -0.150198E+03  0.574E-02    2.63       0.0  T
   2   -150.1979229 -0.395704E-05  0.335E-02    2.63       1.0  T
   3   -150.1979218  0.117329E-05  0.520E-03    2.62       1.9  T
   4   -150.1979235 -0.172416E-05  0.216E-03    2.62       4.7  T
   5   -150.1979238 -0.269089E-06  0.103E-03    2.62       9.8  T
   6   -150.1979238 -0.257436E-07  0.454E-04    2.62      22.3  T
   7   -150.1979238 -0.890208E-08  0.190E-04    2.62      53.3  T
     SCC iter.                  ...        0 min,  0.095 sec
     gradient                   ...        0 min,  0.135 sec
 * total energy  :  -148.1940376 Eh     change       -0.3612210E-03 Eh
   gradient norm :     0.0060041 Eh/α   predicted    -0.2700147E-03 ( -25.25%)
   displ. norm   :     0.4684183 α      lambda       -0.4289558E-03
   maximum displ.:     0.2465167 α      in ANC's #8, #9, #5, ...

........................................................................
.............................. CYCLE   10 ..............................
........................................................................

 iter      E             dE          RMSdq      gap      omega  full diag
   1   -150.1991993 -0.150199E+03  0.590E-02    2.63       0.0  T
   2   -150.1992040 -0.471057E-05  0.343E-02    2.63       1.0  T
   3   -150.1992025  0.157209E-05  0.597E-03    2.63       1.7  T
   4   -150.1992045 -0.203243E-05  0.265E-03    2.63       3.8  T
   5   -150.1992050 -0.467620E-06  0.112E-03    2.63       9.0  T
   6   -150.1992050 -0.269196E-07  0.459E-04    2.63      22.0  T
   7   -150.1992050 -0.964349E-08  0.190E-04    2.63      53.2  T
     SCC iter.                  ...        0 min,  0.086 sec
     gradient                   ...        0 min,  0.133 sec
 * total energy  :  -148.1943823 Eh     change       -0.3446551E-03 Eh
   gradient norm :     0.0059908 Eh/α   predicted    -0.2615381E-03 ( -24.12%)
   displ. norm   :     0.4803556 α      lambda       -0.3972043E-03
   maximum displ.:     0.2537828 α      in ANC's #8, #9, #5, ...

........................................................................
.............................. CYCLE   11 ..............................
........................................................................

 iter      E             dE          RMSdq      gap      omega  full diag
   1   -150.2001872 -0.150200E+03  0.555E-02    2.64       0.0  T
   2   -150.2001913 -0.408898E-05  0.322E-02    2.63       1.0  T
   3   -150.2001894  0.185345E-05  0.622E-03    2.64       1.6  T
   4   -150.2001918 -0.231798E-05  0.268E-03    2.63       3.8  T
   5   -150.2001922 -0.446709E-06  0.111E-03    2.63       9.1  T
   6   -150.2001922 -0.253556E-07  0.426E-04    2.63      23.7  T
   7   -150.2001922 -0.967253E-08  0.185E-04    2.63      54.7  T
     SCC iter.                  ...        0 min,  0.086 sec
     gradient                   ...        0 min,  0.138 sec
 * total energy  :  -148.1946996 Eh     change       -0.3173132E-03 Eh
   gradient norm :     0.0054187 Eh/α   predicted    -0.2444326E-03 ( -22.97%)
   displ. norm   :     0.4746065 α      lambda       -0.3505496E-03
   maximum displ.:     0.2482304 α      in ANC's #8, #5, #9, ...

........................................................................
.............................. CYCLE   12 ..............................
........................................................................

 iter      E             dE          RMSdq      gap      omega  full diag
   1   -150.2005622 -0.150201E+03  0.512E-02    2.64       0.0  T
   2   -150.2005656 -0.342124E-05  0.296E-02    2.64       1.0  T
   3   -150.2005643  0.133477E-05  0.550E-03    2.64       1.8  T
   4   -150.2005661 -0.181276E-05  0.247E-03    2.64       4.1  T
   5   -150.2005664 -0.345026E-06  0.106E-03    2.64       9.5  T
   6   -150.2005665 -0.214647E-07  0.414E-04    2.64      24.4  T
   7   -150.2005665 -0.104105E-07  0.176E-04    2.64      57.4  T
     SCC iter.                  ...        0 min,  0.086 sec
     gradient                   ...        0 min,  0.134 sec
 * total energy  :  -148.1949743 Eh     change       -0.2746848E-03 Eh
   gradient norm :     0.0049160 Eh/α   predicted    -0.2147564E-03 ( -21.82%)
   displ. norm   :     0.4438274 α      lambda       -0.2841475E-03
   maximum displ.:     0.2256007 α      in ANC's #8, #5, #9, ...

........................................................................
.............................. CYCLE   13 ..............................
........................................................................

 iter      E             dE          RMSdq      gap      omega  full diag
   1   -150.2005576 -0.150201E+03  0.437E-02    2.65       0.0  T
   2   -150.2005601 -0.249873E-05  0.252E-02    2.65       1.0  T
   3   -150.2005595  0.582370E-06  0.433E-03    2.65       2.3  T
   4   -150.2005604 -0.930689E-06  0.206E-03    2.65       4.9  T
   5   -150.2005606 -0.224256E-06  0.919E-04    2.65      11.0  T
   6   -150.2005607 -0.233812E-07  0.366E-04    2.65      27.6  T
     SCC iter.                  ...        0 min,  0.074 sec
     gradient                   ...        0 min,  0.140 sec
 * total energy  :  -148.1951896 Eh     change       -0.2152657E-03 Eh
   gradient norm :     0.0043616 Eh/α   predicted    -0.1700605E-03 ( -21.00%)
   displ. norm   :     0.3787856 α      lambda       -0.2044678E-03
   maximum displ.:     0.1816412 α      in ANC's #8, #5, #9, ...

........................................................................
.............................. CYCLE   14 ..............................
........................................................................

 iter      E             dE          RMSdq      gap      omega  full diag
   1   -150.2005556 -0.150201E+03  0.352E-02    2.66       0.0  T
   2   -150.2005572 -0.163819E-05  0.204E-02    2.66       1.0  T
   3   -150.2005562  0.977947E-06  0.437E-03    2.66       2.3  T
   4   -150.2005575 -0.121591E-05  0.185E-03    2.66       5.4  T
   5   -150.2005577 -0.204020E-06  0.734E-04    2.66      13.8  T
   6   -150.2005577 -0.108728E-07  0.312E-04    2.66      32.4  T
     SCC iter.                  ...        0 min,  0.073 sec
     gradient                   ...        0 min,  0.135 sec
 * total energy  :  -148.1953411 Eh     change       -0.1515500E-03 Eh
   gradient norm :     0.0036929 Eh/α   predicted    -0.1169051E-03 ( -22.86%)
   displ. norm   :     0.3126753 α      lambda       -0.1486879E-03
   maximum displ.:     0.1350223 α      in ANC's #5, #8, #9, ...

........................................................................
.............................. CYCLE   15 ..............................
........................................................................

 iter      E             dE          RMSdq      gap      omega  full diag
   1   -150.2007472 -0.150201E+03  0.278E-02    2.67       0.0  T
   2   -150.2007483 -0.105738E-05  0.161E-02    2.67       1.0  T
   3   -150.2007476  0.723306E-06  0.371E-03    2.67       2.7  T
   4   -150.2007484 -0.886901E-06  0.139E-03    2.67       7.3  T
   5   -150.2007486 -0.113400E-06  0.590E-04    2.67      17.1  T
   6   -150.2007486 -0.878075E-08  0.268E-04    2.67      37.7  T
     SCC iter.                  ...        0 min,  0.074 sec
     gradient                   ...        0 min,  0.134 sec
 * total energy  :  -148.1954536 Eh     change       -0.1124512E-03 Eh
   gradient norm :     0.0030374 Eh/α   predicted    -0.8162161E-04 ( -27.42%)
   displ. norm   :     0.3014021 α      lambda       -0.1369330E-03
   maximum displ.:     0.1333500 α      in ANC's #5, #8, #9, ...

........................................................................
.............................. CYCLE   16 ..............................
........................................................................

 iter      E             dE          RMSdq      gap      omega  full diag
   1   -150.2011911 -0.150201E+03  0.296E-02    2.68       0.0  T
   2   -150.2011921 -0.955386E-06  0.173E-02    2.68       1.0  T
   3   -150.2011912  0.894769E-06  0.374E-03    2.68       2.7  T
   4   -150.2011923 -0.107561E-05  0.124E-03    2.68       8.2  T
   5   -150.2011924 -0.924298E-07  0.536E-04    2.68      18.8  T
   6   -150.2011924 -0.464101E-08  0.261E-04    2.68      38.8  T
     SCC iter.                  ...        0 min,  0.074 sec
     gradient                   ...        0 min,  0.136 sec
 * total energy  :  -148.1955602 Eh     change       -0.1066537E-03 Eh
   gradient norm :     0.0033059 Eh/α   predicted    -0.7468662E-04 ( -29.97%)
   displ. norm   :     0.3495386 α      lambda       -0.1501243E-03
   maximum displ.:     0.1555570 α      in ANC's #5, #15, #1, ...

........................................................................
.............................. CYCLE   17 ..............................
........................................................................

 iter      E             dE          RMSdq      gap      omega  full diag
   1   -150.2008200 -0.150201E+03  0.377E-02    2.69       0.0  T
   2   -150.2008211 -0.103019E-05  0.221E-02    2.69       1.0  T
   3   -150.2008206  0.496549E-06  0.312E-03    2.69       3.2  T
   4   -150.2008213 -0.718599E-06  0.111E-03    2.69       9.1  T
   5   -150.2008213 -0.582235E-07  0.540E-04    2.69      18.7  T
   6   -150.2008214 -0.545657E-08  0.225E-04    2.69      44.9  T
     SCC iter.                  ...        0 min,  0.077 sec
     gradient                   ...        0 min,  0.147 sec
 * total energy  :  -148.1956805 Eh     change       -0.1203227E-03 Eh
   gradient norm :     0.0044139 Eh/α   predicted    -0.8423488E-04 ( -29.99%)
   displ. norm   :     0.4183182 α      lambda       -0.1811598E-03
   maximum displ.:     0.1845716 α      in ANC's #5, #15, #1, ...

........................................................................
.............................. CYCLE   18 ..............................
........................................................................

 iter      E             dE          RMSdq      gap      omega  full diag
   1   -150.2014636 -0.150201E+03  0.512E-02    2.69       0.0  T
   2   -150.2014650 -0.140927E-05  0.299E-02    2.69       1.0  T
   3   -150.2014647  0.347694E-06  0.313E-03    2.69       3.2  T
   4   -150.2014653 -0.645491E-06  0.128E-03    2.69       7.9  T
   5   -150.2014654 -0.777852E-07  0.619E-04    2.69      16.3  T
   6   -150.2014654 -0.977917E-08  0.205E-04    2.69      49.2  T
     SCC iter.                  ...        0 min,  0.080 sec
     gradient                   ...        0 min,  0.137 sec
 * total energy  :  -148.1958255 Eh     change       -0.1450023E-03 Eh
   gradient norm :     0.0050018 Eh/α   predicted    -0.1064333E-03 ( -26.60%)
   displ. norm   :     0.4954130 α      lambda       -0.2083895E-03
   maximum displ.:     0.2241670 α      in ANC's #5, #1, #15, ...

........................................................................
.............................. CYCLE   19 ..............................
........................................................................

 iter      E             dE          RMSdq      gap      omega  full diag
   1   -150.1995808 -0.150200E+03  0.615E-02    2.69       0.0  T
   2   -150.1995829 -0.212738E-05  0.358E-02    2.69       1.0  T
   3   -150.1995822  0.744918E-06  0.417E-03    2.69       2.4  T
   4   -150.1995833 -0.109655E-05  0.184E-03    2.69       5.5  T
   5   -150.1995835 -0.192841E-06  0.852E-04    2.69      11.9  T
   6   -150.1995835 -0.187327E-07  0.353E-04    2.69      28.6  T
     SCC iter.                  ...        0 min,  0.073 sec
     gradient                   ...        0 min,  0.135 sec
 * total energy  :  -148.1959858 Eh     change       -0.1602838E-03 Eh
   gradient norm :     0.0047965 Eh/α   predicted    -0.1297701E-03 ( -19.04%)
   displ. norm   :     0.4894366 α      lambda       -0.2108360E-03
   maximum displ.:     0.2202806 α      in ANC's #5, #1, #15, ...

........................................................................
.............................. CYCLE   20 ..............................
........................................................................

 iter      E             dE          RMSdq      gap      omega  full diag
   1   -150.2011238 -0.150201E+03  0.656E-02    2.69       0.0  T
   2   -150.2011267 -0.290823E-05  0.381E-02    2.69       1.0  T
   3   -150.2011257  0.103812E-05  0.508E-03    2.69       2.0  T
   4   -150.2011272 -0.150386E-05  0.214E-03    2.69       4.7  T
   5   -150.2011274 -0.217082E-06  0.102E-03    2.69       9.9  T
   6   -150.2011274 -0.396421E-07  0.384E-04    2.69      26.3  T
   7   -150.2011274 -0.857250E-08  0.163E-04    2.69      62.1  T
     SCC iter.                  ...        0 min,  0.086 sec
     gradient                   ...        0 min,  0.136 sec
 * total energy  :  -148.1961406 Eh     change       -0.1547478E-03 Eh
   gradient norm :     0.0036949 Eh/α   predicted    -0.1306750E-03 ( -15.56%)
   displ. norm   :     0.4842511 α      lambda       -0.1732836E-03
   maximum displ.:     0.2292103 α      in ANC's #5, #1, #9, ...
 * RMSD in coord.:     0.6121091 α      energy gain  -0.2558041E-01 Eh

generating ANC from exact Hessian ...
Using Lindh-Hessian (1995)
 Shifting diagonal of input Hessian by    1.0039723798672590E-002
 Lowest  eigenvalues of input Hessian
    0.010000    0.000000    0.000000    0.000000    0.000000    0.000000
    0.000000    0.010069    0.010142    0.010186    0.010351    0.010426
    0.010472    0.010684    0.010742    0.010763    0.010857    0.010942
 Highest eigenvalues
    2.055694    2.109574    2.149747    2.312285    2.434250    2.528185


........................................................................
.............................. CYCLE   21 ..............................
........................................................................

 iter      E             dE          RMSdq      gap      omega  full diag
   1   -150.2003522 -0.150200E+03  0.577E-02    2.69       0.0  T
   2   -150.2003547 -0.248399E-05  0.334E-02    2.69       1.0  T
   3   -150.2003537  0.941350E-06  0.471E-03    2.69       2.1  T
   4   -150.2003551 -0.134583E-05  0.196E-03    2.69       5.2  T
   5   -150.2003553 -0.178234E-06  0.931E-04    2.69      10.8  T
   6   -150.2003553 -0.288225E-07  0.365E-04    2.69      27.6  T
     SCC iter.                  ...        0 min,  0.075 sec
     gradient                   ...        0 min,  0.156 sec
 * total energy  :  -148.1962781 Eh     change       -0.1374818E-03 Eh
   gradient norm :     0.0036133 Eh/α   predicted     0.0000000E+00 (-100.00%)
   displ. norm   :     0.0539067 α      lambda       -0.5249058E-04
   maximum displ.:     0.0227070 α      in ANC's #20, #11, #43, ...

........................................................................
.............................. CYCLE   22 ..............................
........................................................................

 iter      E             dE          RMSdq      gap      omega  full diag
   1   -150.2018047 -0.150202E+03  0.910E-03    2.70       0.0  T
   2   -150.2018048 -0.157650E-06  0.530E-03    2.69       1.9  T
   3   -150.2018046  0.256806E-06  0.202E-03    2.69       5.0  T
   4   -150.2018049 -0.298179E-06  0.532E-04    2.69      19.0  T
   5   -150.2018049 -0.180268E-07  0.232E-04    2.69      43.6  T
     SCC iter.                  ...        0 min,  0.061 sec
     gradient                   ...        0 min,  0.135 sec
 * total energy  :  -148.1963286 Eh     change       -0.5059311E-04 Eh
   gradient norm :     0.0019122 Eh/α   predicted    -0.2958819E-04 ( -41.52%)
   displ. norm   :     0.2923196 α      lambda       -0.1446109E-03
   maximum displ.:     0.1211934 α      in ANC's #20, #11, #7, ...

........................................................................
.............................. CYCLE   23 ..............................
........................................................................

 iter      E             dE          RMSdq      gap      omega  full diag
   1   -150.2041482 -0.150204E+03  0.445E-02    2.71       0.0  T
   2   -150.2041507 -0.244372E-05  0.259E-02    2.71       1.0  T
   3   -150.2041448  0.586832E-05  0.905E-03    2.71       1.1  T
   4   -150.2041516 -0.677649E-05  0.210E-03    2.71       4.8  T
   5   -150.2041518 -0.232915E-06  0.973E-04    2.71      10.4  T
   6   -150.2041518 -0.239921E-07  0.418E-04    2.71      24.2  T
     SCC iter.                  ...        0 min,  0.083 sec
     gradient                   ...        0 min,  0.143 sec
 * total energy  :  -148.1964205 Eh     change       -0.9183270E-04 Eh
   gradient norm :     0.0042920 Eh/α   predicted    -0.7505319E-04 ( -18.27%)
   displ. norm   :     0.0362790 α      lambda       -0.3129243E-04
   maximum displ.:     0.0142918 α      in ANC's #7, #11, #4, ...

........................................................................
.............................. CYCLE   24 ..............................
........................................................................

 iter      E             dE          RMSdq      gap      omega  full diag
   1   -150.2034332 -0.150203E+03  0.581E-03    2.71       0.0  T
   2   -150.2034333 -0.991926E-07  0.334E-03    2.71       3.0  T
   3   -150.2034333  0.649538E-07  0.116E-03    2.71       8.7  T
   4   -150.2034333 -0.711767E-07  0.418E-04    2.71      24.2  T
   5   -150.2034333 -0.135731E-07  0.137E-04    2.71      73.8  T
     SCC iter.                  ...        0 min,  0.062 sec
     gradient                   ...        0 min,  0.135 sec
 * total energy  :  -148.1964482 Eh     change       -0.2774267E-04 Eh
   gradient norm :     0.0028902 Eh/α   predicted    -0.1566739E-04 ( -43.53%)
   displ. norm   :     0.1883328 α      lambda       -0.1022652E-03
   maximum displ.:     0.0753931 α      in ANC's #7, #11, #4, ...

........................................................................
.............................. CYCLE   25 ..............................
........................................................................

 iter      E             dE          RMSdq      gap      omega  full diag
   1   -150.2013013 -0.150201E+03  0.270E-02    2.70       0.0  T
   2   -150.2013026 -0.129943E-05  0.156E-02    2.70       1.0  T
   3   -150.2013018  0.796195E-06  0.393E-03    2.70       2.6  T
   4   -150.2013026 -0.864254E-06  0.152E-03    2.70       6.6  T
   5   -150.2013028 -0.176535E-06  0.547E-04    2.70      18.5  T
   6   -150.2013028 -0.718666E-08  0.222E-04    2.70      45.5  T
     SCC iter.                  ...        0 min,  0.077 sec
     gradient                   ...        0 min,  0.134 sec
 * total energy  :  -148.1965137 Eh     change       -0.6545712E-04 Eh
   gradient norm :     0.0019961 Eh/α   predicted    -0.5296516E-04 ( -19.08%)
   displ. norm   :     0.2256352 α      lambda       -0.3561273E-04
   maximum displ.:     0.0928662 α      in ANC's #7, #11, #4, ...

........................................................................
.............................. CYCLE   26 ..............................
........................................................................

 iter      E             dE          RMSdq      gap      omega  full diag
   1   -150.2005104 -0.150201E+03  0.302E-02    2.70       0.0  T
   2   -150.2005111 -0.754003E-06  0.175E-02    2.70       1.0  T
   3   -150.2005109  0.225841E-06  0.242E-03    2.70       4.2  T
   4   -150.2005112 -0.316384E-06  0.112E-03    2.70       9.0  T
   5   -150.2005113 -0.757616E-07  0.502E-04    2.70      20.1  T
   6   -150.2005113 -0.748295E-08  0.184E-04    2.70      54.8  T
     SCC iter.                  ...        0 min,  0.082 sec
     gradient                   ...        0 min,  0.143 sec
 * total energy  :  -148.1965527 Eh     change       -0.3898234E-04 Eh
   gradient norm :     0.0033568 Eh/α   predicted    -0.1820965E-04 ( -53.29%)
   displ. norm   :     0.1800138 α      lambda       -0.4612112E-04
   maximum displ.:     0.0755311 α      in ANC's #7, #11, #4, ...

........................................................................
.............................. CYCLE   27 ..............................
........................................................................

 iter      E             dE          RMSdq      gap      omega  full diag
   1   -150.2011123 -0.150201E+03  0.232E-02    2.70       0.0  T
   2   -150.2011127 -0.303569E-06  0.134E-02    2.70       1.0  T
   3   -150.2011125  0.106324E-06  0.168E-03    2.70       6.0  T
   4   -150.2011127 -0.185296E-06  0.728E-04    2.70      13.9  T
   5   -150.2011128 -0.197104E-07  0.304E-04    2.70      33.3  T
     SCC iter.                  ...        0 min,  0.065 sec
     gradient                   ...        0 min,  0.137 sec
 * total energy  :  -148.1965932 Eh     change       -0.4057896E-04 Eh
   gradient norm :     0.0025954 Eh/α   predicted    -0.2380817E-04 ( -41.33%)
   displ. norm   :     0.3816668 α      lambda       -0.9434543E-04
   maximum displ.:     0.1621871 α      in ANC's #7, #4, #11, ...

........................................................................
.............................. CYCLE   28 ..............................
........................................................................

 iter      E             dE          RMSdq      gap      omega  full diag
   1   -150.2021186 -0.150202E+03  0.489E-02    2.71       0.0  T
   2   -150.2021200 -0.141713E-05  0.283E-02    2.71       1.0  T
   3   -150.2021196  0.461541E-06  0.361E-03    2.71       2.8  T
   4   -150.2021204 -0.826682E-06  0.157E-03    2.70       6.4  T
   5   -150.2021205 -0.916367E-07  0.625E-04    2.71      16.2  T
   6   -150.2021205 -0.111533E-07  0.256E-04    2.71      39.5  T
     SCC iter.                  ...        0 min,  0.075 sec
     gradient                   ...        0 min,  0.138 sec
 * total energy  :  -148.1966674 Eh     change       -0.7418275E-04 Eh
   gradient norm :     0.0014705 Eh/α   predicted    -0.5404906E-04 ( -27.14%)
   displ. norm   :     0.6132797 α      lambda       -0.8023628E-04
   maximum displ.:     0.2641421 α      in ANC's #7, #4, #11, ...

........................................................................
.............................. CYCLE   29 ..............................
........................................................................

 iter      E             dE          RMSdq      gap      omega  full diag
   1   -150.2022518 -0.150202E+03  0.787E-02    2.70       0.0  T
   2   -150.2022556 -0.380282E-05  0.454E-02    2.71       1.0  T
   3   -150.2022551  0.497661E-06  0.532E-03    2.70       1.9  T
   4   -150.2022565 -0.137340E-05  0.251E-03    2.70       4.0  T
   5   -150.2022567 -0.238836E-06  0.106E-03    2.70       9.5  T
   6   -150.2022568 -0.423969E-07  0.371E-04    2.70      27.2  T
   7   -150.2022568 -0.532160E-08  0.202E-04    2.70      50.0  T
     SCC iter.                  ...        0 min,  0.087 sec
     gradient                   ...        0 min,  0.138 sec
 * total energy  :  -148.1967519 Eh     change       -0.8446670E-04 Eh
   gradient norm :     0.0028535 Eh/α   predicted    -0.4683309E-04 ( -44.55%)
   displ. norm   :     0.2706920 α      lambda       -0.6173272E-04
   maximum displ.:     0.1179589 α      in ANC's #4, #7, #11, ...

........................................................................
.............................. CYCLE   30 ..............................
........................................................................

 iter      E             dE          RMSdq      gap      omega  full diag
   1   -150.2033332 -0.150203E+03  0.351E-02    2.71       0.0  T
   2   -150.2033339 -0.698162E-06  0.203E-02    2.71       1.0  T
   3   -150.2033335  0.313364E-06  0.275E-03    2.71       3.7  T
   4   -150.2033341 -0.518182E-06  0.119E-03    2.71       8.5  T
   5   -150.2033341 -0.413368E-07  0.503E-04    2.71      20.1  T
   6   -150.2033341 -0.934000E-08  0.220E-04    2.71      46.0  T
     SCC iter.                  ...        0 min,  0.073 sec
     gradient                   ...        0 min,  0.135 sec
 * total energy  :  -148.1968060 Eh     change       -0.5413358E-04 Eh
   gradient norm :     0.0024906 Eh/α   predicted    -0.3312842E-04 ( -38.80%)
   displ. norm   :     0.4668621 α      lambda       -0.1168446E-03
   maximum displ.:     0.2057176 α      in ANC's #4, #7, #3, ...

........................................................................
.............................. CYCLE   31 ..............................
........................................................................

 iter      E             dE          RMSdq      gap      omega  full diag
   1   -150.2038143 -0.150204E+03  0.630E-02    2.70       0.0  T
   2   -150.2038168 -0.246904E-05  0.363E-02    2.71       1.0  T
   3   -150.2038164  0.407369E-06  0.451E-03    2.71       2.2  T
   4   -150.2038174 -0.104424E-05  0.215E-03    2.71       4.7  T
   5   -150.2038176 -0.146491E-06  0.101E-03    2.71      10.0  T
   6   -150.2038176 -0.431439E-07  0.376E-04    2.71      26.9  T
   7   -150.2038176 -0.635077E-08  0.194E-04    2.71      52.0  T
     SCC iter.                  ...        0 min,  0.091 sec
     gradient                   ...        0 min,  0.154 sec
 * total energy  :  -148.1969003 Eh     change       -0.9427812E-04 Eh
   gradient norm :     0.0019774 Eh/α   predicted    -0.7116188E-04 ( -24.52%)
   displ. norm   :     0.6803151 α      lambda       -0.1002548E-03
   maximum displ.:     0.3072611 α      in ANC's #4, #7, #6, ...

........................................................................
.............................. CYCLE   32 ..............................
........................................................................

 iter      E             dE          RMSdq      gap      omega  full diag
   1   -150.2021976 -0.150202E+03  0.937E-02    2.70       0.0  T
   2   -150.2022031 -0.543747E-05  0.541E-02    2.70       1.0  T
   3   -150.2022021  0.964238E-06  0.686E-03    2.70       1.5  T
   4   -150.2022045 -0.242493E-05  0.324E-03    2.70       3.1  T
   5   -150.2022048 -0.305813E-06  0.154E-03    2.70       6.6  T
   6   -150.2022049 -0.108436E-06  0.569E-04    2.70      17.8  T
   7   -150.2022049 -0.131892E-07  0.301E-04    2.70      33.6  T
     SCC iter.                  ...        0 min,  0.084 sec
     gradient                   ...        0 min,  0.135 sec
 * total energy  :  -148.1969878 Eh     change       -0.8745216E-04 Eh
   gradient norm :     0.0032178 Eh/α   predicted    -0.6044237E-04 ( -30.89%)
   displ. norm   :     0.0907497 α      lambda       -0.4266170E-04
   maximum displ.:     0.0370596 α      in ANC's #4, #6, #12, ...

........................................................................
.............................. CYCLE   33 ..............................
........................................................................

 iter      E             dE          RMSdq      gap      omega  full diag
   1   -150.2040047 -0.150204E+03  0.123E-02    2.71       0.0  T
   2   -150.2040050 -0.311712E-06  0.707E-03    2.70       1.4  T
   3   -150.2040048  0.183326E-06  0.194E-03    2.71       5.2  T
   4   -150.2040050 -0.254741E-06  0.570E-04    2.70      17.7  T
   5   -150.2040051 -0.122287E-07  0.250E-04    2.70      40.4  T
     SCC iter.                  ...        0 min,  0.060 sec
     gradient                   ...        0 min,  0.134 sec
 * total energy  :  -148.1970190 Eh     change       -0.3126076E-04 Eh
   gradient norm :     0.0021840 Eh/α   predicted    -0.2151719E-04 ( -31.17%)
   displ. norm   :     0.2370192 α      lambda       -0.7244899E-04
   maximum displ.:     0.1173820 α      in ANC's #4, #7, #6, ...

........................................................................
.............................. CYCLE   34 ..............................
........................................................................

 iter      E             dE          RMSdq      gap      omega  full diag
   1   -150.2037685 -0.150204E+03  0.337E-02    2.70       0.0  T
   2   -150.2037698 -0.123421E-05  0.194E-02    2.70       1.0  T
   3   -150.2037690  0.782211E-06  0.403E-03    2.70       2.5  T
   4   -150.2037700 -0.986130E-06  0.164E-03    2.70       6.2  T
   5   -150.2037701 -0.129248E-06  0.751E-04    2.70      13.5  T
   6   -150.2037701 -0.176158E-07  0.238E-04    2.70      42.4  T
     SCC iter.                  ...        0 min,  0.072 sec
     gradient                   ...        0 min,  0.135 sec
 * total energy  :  -148.1970693 Eh     change       -0.5032445E-04 Eh
   gradient norm :     0.0023433 Eh/α   predicted    -0.3825996E-04 ( -23.97%)
   displ. norm   :     0.1955865 α      lambda       -0.4242893E-04
   maximum displ.:     0.1005778 α      in ANC's #4, #6, #3, ...

........................................................................
.............................. CYCLE   35 ..............................
........................................................................

 iter      E             dE          RMSdq      gap      omega  full diag
   1   -150.2031157 -0.150203E+03  0.265E-02    2.70       0.0  T
   2   -150.2031162 -0.491939E-06  0.153E-02    2.70       1.0  T
   3   -150.2031162  0.644189E-07  0.188E-03    2.70       5.4  T
   4   -150.2031163 -0.167817E-06  0.972E-04    2.70      10.4  T
   5   -150.2031164 -0.333989E-07  0.436E-04    2.70      23.2  T
     SCC iter.                  ...        0 min,  0.061 sec
     gradient                   ...        0 min,  0.135 sec
 * total energy  :  -148.1970993 Eh     change       -0.3000971E-04 Eh
   gradient norm :     0.0019101 Eh/α   predicted    -0.2203109E-04 ( -26.59%)
   displ. norm   :     0.2137368 α      lambda       -0.2853716E-04
   maximum displ.:     0.1153634 α      in ANC's #4, #3, #6, ...

........................................................................
.............................. CYCLE   36 ..............................
........................................................................

 iter      E             dE          RMSdq      gap      omega  full diag
   1   -150.2021953 -0.150202E+03  0.301E-02    2.70       0.0  T
   2   -150.2021959 -0.626619E-06  0.174E-02    2.70       1.0  T
   3   -150.2021957  0.240657E-06  0.263E-03    2.70       3.8  T
   4   -150.2021960 -0.356972E-06  0.127E-03    2.70       8.0  T
   5   -150.2021961 -0.762784E-07  0.564E-04    2.70      17.9  T
   6   -150.2021961 -0.106654E-07  0.180E-04    2.70      56.1  T
     SCC iter.                  ...        0 min,  0.072 sec
     gradient                   ...        0 min,  0.135 sec
 * total energy  :  -148.1971275 Eh     change       -0.2813667E-04 Eh
   gradient norm :     0.0017797 Eh/α   predicted    -0.1456279E-04 ( -48.24%)
   displ. norm   :     0.1348020 α      lambda       -0.2550837E-04
   maximum displ.:     0.0719594 α      in ANC's #4, #3, #18, ...

........................................................................
.............................. CYCLE   37 ..............................
........................................................................

 iter      E             dE          RMSdq      gap      omega  full diag
   1   -150.2026545 -0.150203E+03  0.189E-02    2.70       0.0  T
   2   -150.2026548 -0.344603E-06  0.109E-02    2.70       1.0  T
   3   -150.2026542  0.596997E-06  0.297E-03    2.70       3.4  T
   4   -150.2026549 -0.688723E-06  0.103E-03    2.70       9.8  T
   5   -150.2026549 -0.491323E-07  0.375E-04    2.70      26.9  T
   6   -150.2026550 -0.234212E-08  0.138E-04    2.70      73.0  T
     SCC iter.                  ...        0 min,  0.072 sec
     gradient                   ...        0 min,  0.134 sec
 * total energy  :  -148.1971556 Eh     change       -0.2808718E-04 Eh
   gradient norm :     0.0017060 Eh/α   predicted    -0.1285742E-04 ( -54.22%)
   displ. norm   :     0.2276094 α      lambda       -0.3853856E-04
   maximum displ.:     0.1214677 α      in ANC's #4, #3, #18, ...

........................................................................
.............................. CYCLE   38 ..............................
........................................................................

 iter      E             dE          RMSdq      gap      omega  full diag
   1   -150.2027652 -0.150203E+03  0.364E-02    2.70       0.0  T
   2   -150.2027668 -0.158126E-05  0.210E-02    2.71       1.0  T
   3   -150.2027659  0.850772E-06  0.410E-03    2.71       2.5  T
   4   -150.2027669 -0.986054E-06  0.193E-03    2.71       5.2  T
   5   -150.2027672 -0.255388E-06  0.749E-04    2.71      13.5  T
   6   -150.2027672 -0.891876E-08  0.249E-04    2.71      40.6  T
     SCC iter.                  ...        0 min,  0.073 sec
     gradient                   ...        0 min,  0.142 sec
 * total energy  :  -148.1971890 Eh     change       -0.3343247E-04 Eh
   gradient norm :     0.0021948 Eh/α   predicted    -0.1971757E-04 ( -41.02%)
   displ. norm   :     0.1074218 α      lambda       -0.2135830E-04
   maximum displ.:     0.0579642 α      in ANC's #4, #3, #18, ...

........................................................................
.............................. CYCLE   39 ..............................
........................................................................

 iter      E             dE          RMSdq      gap      omega  full diag
   1   -150.2030333 -0.150203E+03  0.159E-02    2.71       0.0  T
   2   -150.2030335 -0.202407E-06  0.913E-03    2.71       1.1  T
   3   -150.2030333  0.147637E-06  0.172E-03    2.71       5.9  T
   4   -150.2030335 -0.180743E-06  0.863E-04    2.71      11.7  T
   5   -150.2030336 -0.358523E-07  0.279E-04    2.71      36.2  T
     SCC iter.                  ...        0 min,  0.080 sec
     gradient                   ...        0 min,  0.183 sec
 * total energy  :  -148.1972064 Eh     change       -0.1735419E-04 Eh
   gradient norm :     0.0014509 Eh/α   predicted    -0.1080437E-04 ( -37.74%)
   displ. norm   :     0.2736980 α      lambda       -0.3232725E-04
   maximum displ.:     0.1422003 α      in ANC's #4, #3, #18, ...

........................................................................
.............................. CYCLE   40 ..............................
........................................................................

 iter      E             dE          RMSdq      gap      omega  full diag
   1   -150.2037213 -0.150204E+03  0.413E-02    2.71       0.0  T
   2   -150.2037226 -0.125007E-05  0.237E-02    2.72       1.0  T
   3   -150.2037223  0.264838E-06  0.332E-03    2.72       3.0  T
   4   -150.2037228 -0.501202E-06  0.177E-03    2.72       5.7  T
   5   -150.2037230 -0.131092E-06  0.724E-04    2.72      13.9  T
   6   -150.2037230 -0.247630E-07  0.237E-04    2.72      42.6  T
     SCC iter.                  ...        0 min,  0.099 sec
     gradient                   ...        0 min,  0.188 sec
 * total energy  :  -148.1972347 Eh     change       -0.2830553E-04 Eh
   gradient norm :     0.0017772 Eh/α   predicted    -0.1670444E-04 ( -40.99%)
   displ. norm   :     0.1331080 α      lambda       -0.1474112E-04
   maximum displ.:     0.0737235 α      in ANC's #4, #3, #21, ...

........................................................................
.............................. CYCLE   41 ..............................
........................................................................

 iter      E             dE          RMSdq      gap      omega  full diag
   1   -150.2034312 -0.150203E+03  0.228E-02    2.71       0.0  T
   2   -150.2034316 -0.455364E-06  0.130E-02    2.72       1.0  T
   3   -150.2034311  0.517282E-06  0.306E-03    2.71       3.3  T
   4   -150.2034317 -0.616921E-06  0.117E-03    2.72       8.6  T
   5   -150.2034318 -0.637243E-07  0.466E-04    2.72      21.7  T
   6   -150.2034318 -0.574178E-08  0.146E-04    2.71      69.2  T
     SCC iter.                  ...        0 min,  0.105 sec
     gradient                   ...        0 min,  0.156 sec
 * total energy  :  -148.1972517 Eh     change       -0.1704638E-04 Eh
   gradient norm :     0.0016914 Eh/α   predicted    -0.7430460E-05 ( -56.41%)
   displ. norm   :     0.2221709 α      lambda       -0.2894403E-04
   maximum displ.:     0.1085904 α      in ANC's #4, #3, #2, ...

........................................................................
.............................. CYCLE   42 ..............................
........................................................................

 iter      E             dE          RMSdq      gap      omega  full diag
   1   -150.2034871 -0.150203E+03  0.347E-02    2.73       0.0  T
   2   -150.2034880 -0.967799E-06  0.202E-02    2.73       1.0  T
   3   -150.2034857  0.231895E-05  0.542E-03    2.73       1.9  T
   4   -150.2034884 -0.270018E-05  0.143E-03    2.72       7.1  T
   5   -150.2034885 -0.718823E-07  0.670E-04    2.72      15.1  T
   6   -150.2034885 -0.130965E-07  0.264E-04    2.72      38.3  T
     SCC iter.                  ...        0 min,  0.099 sec
     gradient                   ...        0 min,  0.199 sec
 * total energy  :  -148.1972755 Eh     change       -0.2377279E-04 Eh
   gradient norm :     0.0017207 Eh/α   predicted    -0.1479136E-04 ( -37.78%)
   displ. norm   :     0.1555868 α      lambda       -0.1546795E-04
   maximum displ.:     0.0854194 α      in ANC's #4, #3, #2, ...
 * RMSD in coord.:     0.4314777 α      energy gain  -0.1134912E-02 Eh

generating ANC from exact Hessian ...
Using Lindh-Hessian (1995)
 Shifting diagonal of input Hessian by    1.0042931089809136E-002
 Lowest  eigenvalues of input Hessian
    0.010000    0.000000    0.000000    0.000000    0.000000    0.000000
    0.000000    0.010072    0.010140    0.010217    0.010348    0.010473
    0.010609    0.010714    0.010739    0.010756    0.010841    0.010936
 Highest eigenvalues
    2.053870    2.108444    2.151908    2.312140    2.434006    2.529311


........................................................................
.............................. CYCLE   43 ..............................
........................................................................

 iter      E             dE          RMSdq      gap      omega  full diag
   1   -150.2025149 -0.150203E+03  0.258E-02    2.72       0.0  T
   2   -150.2025153 -0.443872E-06  0.147E-02    2.72       1.0  T
   3   -150.2025151  0.197566E-06  0.243E-03    2.72       4.2  T
   4   -150.2025154 -0.303248E-06  0.111E-03    2.72       9.1  T
   5   -150.2025155 -0.369744E-07  0.423E-04    2.72      23.9  T
   6   -150.2025155 -0.906010E-08  0.164E-04    2.72      61.7  T
     SCC iter.                  ...        0 min,  0.087 sec
     gradient                   ...        0 min,  0.194 sec
 * total energy  :  -148.1972908 Eh     change       -0.1534943E-04 Eh
   gradient norm :     0.0019698 Eh/α   predicted     0.0000000E+00 (-100.00%)
   displ. norm   :     0.0321577 α      lambda       -0.1120955E-04
   maximum displ.:     0.0140514 α      in ANC's #2, #4, #11, ...

........................................................................
.............................. CYCLE   44 ..............................
........................................................................

 iter      E             dE          RMSdq      gap      omega  full diag
   1   -150.2034996 -0.150203E+03  0.648E-03    2.73       0.0  T
   2   -150.2034998 -0.132023E-06  0.367E-03    2.73       2.8  T
   3   -150.2034996  0.128030E-06  0.175E-03    2.73       5.8  T
   4   -150.2034998 -0.165964E-06  0.554E-04    2.73      18.2  T
   5   -150.2034998 -0.169496E-07  0.196E-04    2.73      51.5  T
     SCC iter.                  ...        0 min,  0.087 sec
     gradient                   ...        0 min,  0.151 sec
 * total energy  :  -148.1973027 Eh     change       -0.1184706E-04 Eh
   gradient norm :     0.0007275 Eh/α   predicted    -0.5769788E-05 ( -51.30%)
   displ. norm   :     0.0711012 α      lambda       -0.1280653E-04
   maximum displ.:     0.0319891 α      in ANC's #2, #4, #11, ...

........................................................................
.............................. CYCLE   45 ..............................
........................................................................

 iter      E             dE          RMSdq      gap      omega  full diag
   1   -150.2041278 -0.150204E+03  0.116E-02    2.73       0.0  T
   2   -150.2041280 -0.179059E-06  0.673E-03    2.73       1.5  T
   3   -150.2041278  0.189362E-06  0.179E-03    2.73       5.6  T
   4   -150.2041281 -0.227257E-06  0.571E-04    2.73      17.7  T
   5   -150.2041281 -0.175355E-07  0.237E-04    2.73      42.6  T
     SCC iter.                  ...        0 min,  0.093 sec
     gradient                   ...        0 min,  0.160 sec
 * total energy  :  -148.1973162 Eh     change       -0.1357057E-04 Eh
   gradient norm :     0.0015697 Eh/α   predicted    -0.6429776E-05 ( -52.62%)
   displ. norm   :     0.1136808 α      lambda       -0.1438508E-04
   maximum displ.:     0.0530952 α      in ANC's #2, #4, #11, ...

........................................................................
.............................. CYCLE   46 ..............................
........................................................................

 iter      E             dE          RMSdq      gap      omega  full diag
   1   -150.2039142 -0.150204E+03  0.166E-02    2.72       0.0  T
   2   -150.2039144 -0.249044E-06  0.957E-03    2.72       1.1  T
   3   -150.2039144  0.813202E-09  0.123E-03    2.72       8.2  T
   4   -150.2039145 -0.372822E-07  0.623E-04    2.72      16.2  T
   5   -150.2039145 -0.118868E-07  0.320E-04    2.72      31.6  T
     SCC iter.                  ...        0 min,  0.082 sec
     gradient                   ...        0 min,  0.150 sec
 * total energy  :  -148.1973313 Eh     change       -0.1507645E-04 Eh
   gradient norm :     0.0014939 Eh/α   predicted    -0.7236080E-05 ( -52.00%)
   displ. norm   :     0.1272966 α      lambda       -0.1278159E-04
   maximum displ.:     0.0619707 α      in ANC's #2, #4, #1, ...

........................................................................
.............................. CYCLE   47 ..............................
........................................................................

 iter      E             dE          RMSdq      gap      omega  full diag
   1   -150.2035684 -0.150204E+03  0.187E-02    2.72       0.0  T
   2   -150.2035687 -0.217492E-06  0.108E-02    2.72       1.0  T
   3   -150.2035687  0.109250E-08  0.126E-03    2.72       8.0  T
   4   -150.2035687 -0.517227E-07  0.642E-04    2.72      15.7  T
   5   -150.2035687 -0.123070E-07  0.301E-04    2.72      33.6  T
     SCC iter.                  ...        0 min,  0.081 sec
     gradient                   ...        0 min,  0.151 sec
 * total energy  :  -148.1973467 Eh     change       -0.1538905E-04 Eh
   gradient norm :     0.0011872 Eh/α   predicted    -0.6438986E-05 ( -58.16%)
   displ. norm   :     0.1826718 α      lambda       -0.1747570E-04
   maximum displ.:     0.0911204 α      in ANC's #2, #4, #3, ...

........................................................................
.............................. CYCLE   48 ..............................
........................................................................

 iter      E             dE          RMSdq      gap      omega  full diag
   1   -150.2030198 -0.150203E+03  0.261E-02    2.71       0.0  T
   2   -150.2030202 -0.439860E-06  0.150E-02    2.71       1.0  T
   3   -150.2030202  0.583035E-07  0.202E-03    2.71       5.0  T
   4   -150.2030203 -0.161946E-06  0.976E-04    2.71      10.4  T
   5   -150.2030204 -0.284770E-07  0.388E-04    2.71      26.0  T
     SCC iter.                  ...        0 min,  0.060 sec
     gradient                   ...        0 min,  0.177 sec
 * total energy  :  -148.1973675 Eh     change       -0.2080254E-04 Eh
   gradient norm :     0.0011757 Eh/α   predicted    -0.8875790E-05 ( -57.33%)
   displ. norm   :     0.2120390 α      lambda       -0.1783831E-04
   maximum displ.:     0.1087473 α      in ANC's #2, #4, #3, ...

........................................................................
.............................. CYCLE   49 ..............................
........................................................................

 iter      E             dE          RMSdq      gap      omega  full diag
   1   -150.2026544 -0.150203E+03  0.300E-02    2.71       0.0  T
   2   -150.2026550 -0.583400E-06  0.172E-02    2.71       1.0  T
   3   -150.2026550  0.160066E-07  0.221E-03    2.71       4.6  T
   4   -150.2026551 -0.123777E-06  0.122E-03    2.71       8.3  T
   5   -150.2026552 -0.587778E-07  0.485E-04    2.71      20.8  T
   6   -150.2026552 -0.131483E-07  0.164E-04    2.71      61.8  T
     SCC iter.                  ...        0 min,  0.087 sec
     gradient                   ...        0 min,  0.170 sec
 * total energy  :  -148.1973880 Eh     change       -0.2049927E-04 Eh
   gradient norm :     0.0015334 Eh/α   predicted    -0.9118574E-05 ( -55.52%)
   displ. norm   :     0.1950019 α      lambda       -0.1478009E-04
   maximum displ.:     0.1031811 α      in ANC's #2, #4, #3, ...

........................................................................
.............................. CYCLE   50 ..............................
........................................................................

 iter      E             dE          RMSdq      gap      omega  full diag
   1   -150.2027295 -0.150203E+03  0.263E-02    2.71       0.0  T
   2   -150.2027299 -0.433435E-06  0.150E-02    2.71       1.0  T
   3   -150.2027299  0.459445E-07  0.203E-03    2.71       5.0  T
   4   -150.2027300 -0.120979E-06  0.114E-03    2.71       8.9  T
   5   -150.2027301 -0.563022E-07  0.411E-04    2.71      24.6  T
   6   -150.2027301 -0.984133E-08  0.142E-04    2.71      71.3  T
     SCC iter.                  ...        0 min,  0.081 sec
     gradient                   ...        0 min,  0.138 sec
 * total energy  :  -148.1974053 Eh     change       -0.1731278E-04 Eh
   gradient norm :     0.0014460 Eh/α   predicted    -0.7515251E-05 ( -56.59%)
   displ. norm   :     0.1984065 α      lambda       -0.1491446E-04
   maximum displ.:     0.1075528 α      in ANC's #2, #4, #3, ...

........................................................................
.............................. CYCLE   51 ..............................
........................................................................

 iter      E             dE          RMSdq      gap      omega  full diag
   1   -150.2030140 -0.150203E+03  0.262E-02    2.71       0.0  T
   2   -150.2030145 -0.449811E-06  0.150E-02    2.71       1.0  T
   3   -150.2030142  0.285475E-06  0.261E-03    2.71       3.9  T
   4   -150.2030146 -0.401198E-06  0.120E-03    2.71       8.4  T
   5   -150.2030146 -0.466124E-07  0.426E-04    2.71      23.7  T
   6   -150.2030147 -0.105488E-07  0.149E-04    2.71      67.7  T
     SCC iter.                  ...        0 min,  0.079 sec
     gradient                   ...        0 min,  0.138 sec
 * total energy  :  -148.1974232 Eh     change       -0.1788948E-04 Eh
   gradient norm :     0.0011853 Eh/α   predicted    -0.7589453E-05 ( -57.58%)
   displ. norm   :     0.2408351 α      lambda       -0.1761642E-04
   maximum displ.:     0.1320018 α      in ANC's #2, #4, #3, ...

........................................................................
.............................. CYCLE   52 ..............................
........................................................................

 iter      E             dE          RMSdq      gap      omega  full diag
   1   -150.2032383 -0.150203E+03  0.306E-02    2.71       0.0  T
   2   -150.2032389 -0.637747E-06  0.175E-02    2.71       1.0  T
   3   -150.2032385  0.401697E-06  0.305E-03    2.71       3.3  T
   4   -150.2032391 -0.565627E-06  0.138E-03    2.71       7.3  T
   5   -150.2032392 -0.588310E-07  0.545E-04    2.71      18.5  T
   6   -150.2032392 -0.161547E-07  0.189E-04    2.71      53.6  T
     SCC iter.                  ...        0 min,  0.084 sec
     gradient                   ...        0 min,  0.141 sec
 * total energy  :  -148.1974447 Eh     change       -0.2148226E-04 Eh
   gradient norm :     0.0009500 Eh/α   predicted    -0.9037725E-05 ( -57.93%)
   displ. norm   :     0.3152130 α      lambda       -0.2151378E-04
   maximum displ.:     0.1731050 α      in ANC's #2, #4, #3, ...

........................................................................
.............................. CYCLE   53 ..............................
........................................................................

 iter      E             dE          RMSdq      gap      omega  full diag
   1   -150.2031667 -0.150203E+03  0.400E-02    2.71       0.0  T
   2   -150.2031678 -0.113195E-05  0.228E-02    2.71       1.0  T
   3   -150.2031671  0.703821E-06  0.406E-03    2.71       2.5  T
   4   -150.2031681 -0.952376E-06  0.190E-03    2.71       5.3  T
   5   -150.2031682 -0.141648E-06  0.708E-04    2.71      14.3  T
   6   -150.2031682 -0.191494E-07  0.238E-04    2.71      42.5  T
     SCC iter.                  ...        0 min,  0.077 sec
     gradient                   ...        0 min,  0.136 sec
 * total energy  :  -148.1974714 Eh     change       -0.2665102E-04 Eh
   gradient norm :     0.0008321 Eh/α   predicted    -0.1123317E-04 ( -57.85%)
   displ. norm   :     0.3989833 α      lambda       -0.2658407E-04
   maximum displ.:     0.2190233 α      in ANC's #2, #4, #3, ...

........................................................................
.............................. CYCLE   54 ..............................
........................................................................

 iter      E             dE          RMSdq      gap      omega  full diag
   1   -150.2029015 -0.150203E+03  0.482E-02    2.72       0.0  T
   2   -150.2029031 -0.163042E-05  0.276E-02    2.71       1.0  T
   3   -150.2029023  0.799076E-06  0.463E-03    2.71       2.2  T
   4   -150.2029034 -0.110622E-05  0.230E-03    2.71       4.4  T
   5   -150.2029036 -0.230085E-06  0.857E-04    2.71      11.8  T
   6   -150.2029037 -0.255506E-07  0.274E-04    2.71      36.9  T
     SCC iter.                  ...        0 min,  0.073 sec
     gradient                   ...        0 min,  0.148 sec
 * total energy  :  -148.1975037 Eh     change       -0.3232159E-04 Eh
   gradient norm :     0.0010400 Eh/α   predicted    -0.1423606E-04 ( -55.95%)
   displ. norm   :     0.4648162 α      lambda       -0.2993384E-04
   maximum displ.:     0.2549069 α      in ANC's #2, #4, #3, ...

........................................................................
.............................. CYCLE   55 ..............................
........................................................................

 iter      E             dE          RMSdq      gap      omega  full diag
   1   -150.2026263 -0.150203E+03  0.525E-02    2.72       0.0  T
   2   -150.2026281 -0.184626E-05  0.301E-02    2.72       1.0  T
   3   -150.2026275  0.657811E-06  0.468E-03    2.72       2.2  T
   4   -150.2026285 -0.990513E-06  0.243E-03    2.72       4.2  T
   5   -150.2026287 -0.263702E-06  0.923E-04    2.72      10.9  T
   6   -150.2026288 -0.314702E-07  0.284E-04    2.72      35.5  T
     SCC iter.                  ...        0 min,  0.075 sec
     gradient                   ...        0 min,  0.135 sec
 * total energy  :  -148.1975389 Eh     change       -0.3521303E-04 Eh
   gradient norm :     0.0014939 Eh/α   predicted    -0.1640904E-04 ( -53.40%)
   displ. norm   :     0.4808776 α      lambda       -0.3107648E-04
   maximum displ.:     0.2631643 α      in ANC's #2, #4, #3, ...

........................................................................
.............................. CYCLE   56 ..............................
........................................................................

 iter      E             dE          RMSdq      gap      omega  full diag
   1   -150.2025289 -0.150203E+03  0.503E-02    2.72       0.0  T
   2   -150.2025305 -0.158376E-05  0.288E-02    2.72       1.0  T
   3   -150.2025296  0.889964E-06  0.480E-03    2.72       2.1  T
   4   -150.2025309 -0.125417E-05  0.229E-03    2.72       4.4  T
   5   -150.2025311 -0.211148E-06  0.790E-04    2.72      12.8  T
   6   -150.2025311 -0.213581E-07  0.260E-04    2.72      38.8  T
     SCC iter.                  ...        0 min,  0.072 sec
     gradient                   ...        0 min,  0.146 sec
 * total energy  :  -148.1975742 Eh     change       -0.3536253E-04 Eh
   gradient norm :     0.0016412 Eh/α   predicted    -0.1713686E-04 ( -51.54%)
   displ. norm   :     0.4864521 α      lambda       -0.3078992E-04
   maximum displ.:     0.2667601 α      in ANC's #2, #4, #3, ...

........................................................................
.............................. CYCLE   57 ..............................
........................................................................

 iter      E             dE          RMSdq      gap      omega  full diag
   1   -150.2026215 -0.150203E+03  0.481E-02    2.72       0.0  T
   2   -150.2026229 -0.144486E-05  0.277E-02    2.72       1.0  T
   3   -150.2026223  0.611693E-06  0.426E-03    2.72       2.4  T
   4   -150.2026232 -0.913652E-06  0.212E-03    2.72       4.8  T
   5   -150.2026234 -0.187742E-06  0.797E-04    2.72      12.7  T
   6   -150.2026235 -0.240483E-07  0.256E-04    2.72      39.5  T
     SCC iter.                  ...        0 min,  0.083 sec
     gradient                   ...        0 min,  0.135 sec
 * total energy  :  -148.1976087 Eh     change       -0.3448628E-04 Eh
   gradient norm :     0.0013852 Eh/α   predicted    -0.1701813E-04 ( -50.65%)
   displ. norm   :     0.4721889 α      lambda       -0.2741909E-04
   maximum displ.:     0.2614486 α      in ANC's #2, #4, #3, ...

........................................................................
.............................. CYCLE   58 ..............................
........................................................................

 iter      E             dE          RMSdq      gap      omega  full diag
   1   -150.2023522 -0.150202E+03  0.465E-02    2.72       0.0  T
   2   -150.2023535 -0.137016E-05  0.268E-02    2.72       1.0  T
   3   -150.2023527  0.825123E-06  0.451E-03    2.71       2.2  T
   4   -150.2023538 -0.114360E-05  0.207E-03    2.72       4.9  T
   5   -150.2023540 -0.167284E-06  0.744E-04    2.72      13.6  T
   6   -150.2023540 -0.207484E-07  0.248E-04    2.72      40.8  T
     SCC iter.                  ...        0 min,  0.073 sec
     gradient                   ...        0 min,  0.142 sec
 * total energy  :  -148.1976390 Eh     change       -0.3030119E-04 Eh
   gradient norm :     0.0013400 Eh/α   predicted    -0.1507326E-04 ( -50.26%)
   displ. norm   :     0.3590224 α      lambda       -0.2943560E-04
   maximum displ.:     0.1949255 α      in ANC's #2, #4, #3, ...

........................................................................
.............................. CYCLE   59 ..............................
........................................................................

 iter      E             dE          RMSdq      gap      omega  full diag
   1   -150.2051577 -0.150205E+03  0.323E-02    2.73       0.0  T
   2   -150.2051589 -0.118490E-05  0.186E-02    2.73       1.0  T
   3   -150.2051576  0.125773E-05  0.477E-03    2.73       2.1  T
   4   -150.2051593 -0.165664E-05  0.129E-03    2.73       7.8  T
   5   -150.2051593 -0.538027E-07  0.530E-04    2.73      19.0  T
   6   -150.2051593 -0.307443E-08  0.249E-04    2.73      40.6  T
     SCC iter.                  ...        0 min,  0.073 sec
     gradient                   ...        0 min,  0.138 sec
 * total energy  :  -148.1976498 Eh     change       -0.1074265E-04 Eh
   gradient norm :     0.0039119 Eh/α   predicted    -0.1556249E-04 (  44.87%)
   displ. norm   :     0.3295042 α      lambda       -0.3970489E-04
[...]
       130        1.9962           -0.3954427             -10.7605
       131        1.9430           -0.3928181             -10.6891
       132        1.9234           -0.3925177             -10.6810
       133        1.7744           -0.3913239             -10.6485
       134        1.3630           -0.3896176             -10.6020
       135        0.6048           -0.2497374              -6.7957 (HOMO)
       136        0.3952           -0.2489291              -6.7737 (LUMO)
       137        0.0000           -0.2345907              -6.3835
       138                         -0.2283206              -6.2129
       139                         -0.2261008              -6.1525
       140                         -0.2240466              -6.0966
       ...                                ...                  ...
       258                          0.6649887              18.0953
      -------------------------------------------------------------
                  HL-Gap            0.0008084 Eh            0.0220 eV
             Fermi-level           -0.3197426 Eh           -8.7006 eV

 transition dipole moment (au) for excitation:         134         135
     X       Y       Z   
  -0.8369   0.1112  -0.6366  total (au/Debye):    1.057   2.688
 dE (eV)             :    3.806
 oscillator strength :  0.14744E+00

 SCC (total)                   0 d,  0 h,  0 min,  0.668 sec
 SCC setup                      ...        0 min,  0.002 sec (  0.225%)
 Dispersion                     ...        0 min,  0.002 sec (  0.361%)
 classical contributions        ...        0 min,  0.001 sec (  0.112%)
 integral evaluation            ...        0 min,  0.060 sec (  8.975%)
 iterations                     ...        0 min,  0.354 sec ( 53.073%)
 molecular gradient             ...        0 min,  0.189 sec ( 28.366%)
 printout                       ...        0 min,  0.059 sec (  8.886%)

         :::::::::::::::::::::::::::::::::::::::::::::::::::::
         ::                     SUMMARY                     ::
         :::::::::::::::::::::::::::::::::::::::::::::::::::::
         :: total energy            -148.067618888841 Eh    ::
         :: gradient norm              0.094404760248 Eh/a0 ::
         :: HOMO-LUMO gap              0.021996352130 eV    ::
         ::.................................................::
         :: SCC energy              -150.067173999926 Eh    ::
         :: -> isotropic ES            0.186191055879 Eh    ::
         :: -> anisotropic ES          0.004333215912 Eh    ::
         :: -> anisotropic XC          0.058375157426 Eh    ::
         :: -> dispersion             -0.129318942062 Eh    ::
         :: repulsion energy           1.999555111084 Eh    ::
         :: add. restraining           0.000000000000 Eh    ::
         :: total charge               0.000000000044 e     ::
         :::::::::::::::::::::::::::::::::::::::::::::::::::::

           -------------------------------------------------
          |                Property Printout                |
           -------------------------------------------------

    * Orbital Energies and Occupations

         #    Occupation            Energy/Eh            Energy/eV
      -------------------------------------------------------------
         1        2.0000           -0.7460859             -20.3020
       ...           ...                  ...                  ...
       123        2.0000           -0.4096709             -11.1477
       124        2.0000           -0.4080471             -11.1035
       125        2.0000           -0.4079299             -11.1003
       126        2.0000           -0.4042501             -11.0002
       127        2.0000           -0.4031963             -10.9715
       128        2.0000           -0.4005154             -10.8986
       129        2.0000           -0.3997779             -10.8785
       130        1.9962           -0.3954427             -10.7605
       131        1.9430           -0.3928181             -10.6891
       132        1.9234           -0.3925177             -10.6810
       133        1.7744           -0.3913239             -10.6485
       134        1.3630           -0.3896176             -10.6020
       135        0.6048           -0.2497374              -6.7957 (HOMO)
       136        0.3952           -0.2489291              -6.7737 (LUMO)
       137        0.0000           -0.2345907              -6.3835
       138                         -0.2283206              -6.2129
       139                         -0.2261008              -6.1525
       140                         -0.2240466              -6.0966
       141                         -0.2227072              -6.0602
       142                         -0.2080817              -5.6622
       143                         -0.2025207              -5.5109
       144                         -0.1959810              -5.3329
       145                         -0.1909755              -5.1967
       146                         -0.1892933              -5.1509
       ...                                ...                  ...
       258                          0.6649887              18.0953
      -------------------------------------------------------------
                  HL-Gap            0.0008084 Eh            0.0220 eV
             Fermi-level           -0.3197426 Eh           -8.7006 eV

     #   Z          covCN         q      C6AA      α(0)
     1   8 O        0.857    -0.466    23.044     6.436
     2   6 C        2.653     0.413    20.050     7.326
     3   7 N        2.687    -0.202    25.400     7.485
     4   6 C        3.785     0.037    19.968     6.365
     5   6 C        3.809    -0.075    21.934     6.667
     6   6 C        2.970     0.010    27.800     8.649
     7   6 C        2.925    -0.036    28.899     8.816
     8   6 C        2.918    -0.028    28.698     8.785
     9   6 C        2.921    -0.031    28.785     8.798
    10   6 C        2.919    -0.031    28.779     8.797
    11   6 C        2.924    -0.042    29.031     8.836
    12   6 C        3.724     0.109    18.895     6.207
    13   6 C        3.805    -0.088    22.166     6.702
    14   6 C        3.795     0.037    19.950     6.360
    15   7 N        2.689    -0.175    24.798     7.396
    16   6 C        2.756     0.270    22.445     7.758
    17   6 C        3.800     0.019    20.265     6.409
    18   7 N        2.694    -0.201    25.363     7.480
    19   6 C        2.704     0.321    21.543     7.597
    20   7 N        2.740    -0.094    23.071     7.134
    21   6 C        3.700    -0.049    21.610     6.648
    22   6 C        3.748    -0.008    20.788     6.503
    23   6 C        3.203     0.063    26.038     8.313
    24   6 C        2.925    -0.053    29.310     8.878
    25  16 S        2.283    -0.085   144.606    20.239
    26   6 C        3.017     0.097    25.825     8.336
    27   6 C        3.869    -0.016    20.809     6.487
    28   6 C        3.758    -0.103    22.515     6.765
    29   6 C        3.758    -0.103    22.522     6.766
    30   7 N        1.975    -0.269    27.809     7.821
    31   8 O        0.859    -0.482    23.381     6.483
    32   6 C        3.851    -0.012    20.757     6.480
    33   6 C        3.755    -0.112    22.703     6.794
    34   6 C        3.755    -0.112    22.706     6.795
    35   8 O        0.859    -0.432    22.331     6.336
    36   6 C        3.810    -0.075    21.915     6.664
    37   6 C        2.971     0.011    27.759     8.642
    38   6 C        2.926    -0.041    29.029     8.836
    39   6 C        2.919    -0.028    28.697     8.785
    40   6 C        2.920    -0.033    28.812     8.802
    41   6 C        2.919    -0.029    28.736     8.791
    42   6 C        2.925    -0.038    28.946     8.823
    43   8 O        1.655    -0.454    21.931     6.322
    44   8 O        1.708    -0.305    19.086     5.898
    45   6 C        3.724     0.090    19.183     6.254
    46   6 C        2.974    -0.019    28.484     8.754
    47   6 C        3.197     0.026    26.899     8.454
    48   7 N        1.957    -0.200    26.151     7.583
    49   6 C        2.998     0.049    26.882     8.505
    50  16 S        2.286    -0.025   142.082    20.062
    51   1 H        0.860     0.191     1.152     1.681
    52   1 H        0.924     0.046     2.375     2.410
    53   1 H        0.924     0.049     2.336     2.390
    54   1 H        0.924     0.071     2.072     2.251
    55   1 H        0.926     0.035     2.520     2.482
    56   1 H        0.926     0.037     2.484     2.464
    57   1 H        0.926     0.032     2.560     2.502
    58   1 H        0.926     0.030     2.581     2.512
    59   1 H        0.926     0.028     2.616     2.529
    60   1 H        0.924     0.041     2.441     2.443
    61   1 H        0.924     0.063     2.168     2.303
    62   1 H        0.924     0.053     2.287     2.365
    63   1 H        0.924     0.076     2.017     2.221
    64   1 H        0.860     0.178     1.227     1.735
    65   1 H        0.924     0.068     2.113     2.273
    66   1 H        0.860     0.222     1.000     1.566
    67   1 H        0.925     0.094     1.840     2.121
    68   1 H        0.924     0.056     2.249     2.345
    69   1 H        0.924     0.056     2.245     2.343
    70   1 H        0.924     0.065     2.147     2.291
    71   1 H        0.924     0.058     2.222     2.331
    72   1 H        0.926     0.030     2.581     2.512
    73   1 H        0.924     0.067     2.123     2.279
    74   1 H        0.925     0.045     2.385     2.415
    75   1 H        0.925     0.045     2.381     2.413
    76   1 H        0.925     0.032     2.559     2.502
    77   1 H        0.925     0.043     2.411     2.428
    78   1 H        0.925     0.041     2.429     2.437
    79   1 H        0.925     0.042     2.419     2.432
    80   1 H        0.924     0.050     2.320     2.382
    81   1 H        0.925     0.051     2.306     2.374
    82   1 H        0.925     0.038     2.475     2.460
    83   1 H        0.925     0.036     2.506     2.476
    84   1 H        0.925     0.055     2.263     2.353
    85   1 H        0.925     0.044     2.402     2.424
    86   1 H        0.925     0.043     2.410     2.428
    87   1 H        0.924     0.042     2.419     2.432
    88   1 H        0.924     0.055     2.257     2.349
    89   1 H        0.926     0.038     2.480     2.463
    90   1 H        0.926     0.031     2.569     2.507
    91   1 H        0.926     0.029     2.596     2.520
    92   1 H        0.926     0.034     2.536     2.490
    93   1 H        0.926     0.033     2.550     2.497
    94   1 H        0.803     0.328     0.642     1.259
    95   1 H        0.924     0.056     2.243     2.342
    96   1 H        0.924     0.058     2.225     2.332
    97   1 H        0.926     0.041     2.429     2.437
    98   1 H        0.926     0.048     2.349     2.397

 Mol. C6AA /au·bohr⁶  :     109824.093732
 Mol. C8AA /au·bohr⁸  :    2702636.771668
 Mol. α(0) /au        :        512.723222


Wiberg/Mayer (AO) data.
largest (>0.10) Wiberg bond orders for each atom

 ---------------------------------------------------------------------------
     #   Z sym  total        # sym  WBO       # sym  WBO       # sym  WBO
 ---------------------------------------------------------------------------
     1   8 O    1.993 --     2 C    1.600     3 N    0.158    44 O    0.125
     2   6 C    3.939 --     1 O    1.600     3 N    1.224    44 O    1.063
     3   7 N    3.398 --     2 C    1.224     4 C    0.971    51 H    0.934
                             1 O    0.158
     4   6 C    3.955 --     3 N    0.971     5 C    0.967    52 H    0.965
                            12 C    0.956
     5   6 C    3.989 --     6 C    1.011     4 C    0.967    54 H    0.966
                            53 H    0.966
     6   6 C    3.986 --     7 C    1.414    11 C    1.409     5 C    1.011
                             9 C    0.109
     7   6 C    3.990 --     8 C    1.443     6 C    1.414    55 H    0.967
                            10 C    0.110
     8   6 C    3.991 --     7 C    1.443     9 C    1.440    56 H    0.970
                            11 C    0.111
     9   6 C    3.989 --     8 C    1.440    10 C    1.436    57 H    0.971
                             6 C    0.109
    10   6 C    3.992 --    11 C    1.448     9 C    1.436    58 H    0.971
                             7 C    0.110
    11   6 C    3.990 --    10 C    1.448     6 C    1.409    59 H    0.970
                             8 C    0.111
    12   6 C    3.966 --    43 O    1.021    13 C    0.979    60 H    0.958
                             4 C    0.956
    13   6 C    3.989 --    14 C    0.994    12 C    0.979    62 H    0.972
                            61 H    0.964
    14   6 C    3.957 --    13 C    0.994    15 N    0.977    36 C    0.964
                            63 H    0.947
    15   7 N    3.456 --    16 C    1.273    14 C    0.977    64 H    0.936
                            35 O    0.196
    16   6 C    3.943 --    35 O    1.662    15 N    1.273    17 C    0.936
    17   6 C    3.956 --    18 N    1.001    65 H    0.950    32 C    0.939
                            16 C    0.936
    18   7 N    3.337 --    19 C    1.161    17 C    1.001    66 H    0.880
                            31 O    0.144
    19   6 C    3.960 --    31 O    1.593    18 N    1.161    20 N    1.144
    20   7 N    3.419 --    19 C    1.144    21 C    1.004    22 C    0.980
                            31 O    0.138
    21   6 C    3.957 --    20 N    1.004    68 H    0.972    67 H    0.970
                            69 H    0.969
    22   6 C    3.968 --    23 C    0.984    20 N    0.980    71 H    0.968
                            70 H    0.958
    23   6 C    3.829 --    24 C    1.384    30 N    1.284    22 C    0.984
    24   6 C    3.700 --    23 C    1.384    25 S    1.212    72 H    0.971
    25  16 S    2.405 --    24 C    1.212    26 C    0.980    30 N    0.105
    26   6 C    3.660 --    30 N    1.492    27 C    1.020    25 S    0.980
    27   6 C    3.988 --    26 C    1.020    28 C    0.986    29 C    0.985
                            73 H    0.952
    28   6 C    3.980 --    27 C    0.986    76 H    0.986    75 H    0.983
                            74 H    0.980
    29   6 C    3.979 --    78 H    0.987    77 H    0.985    27 C    0.985
                            79 H    0.983
    30   7 N    3.099 --    26 C    1.492    23 C    1.284    25 S    0.105
    31   8 O    1.949 --    19 C    1.593    18 N    0.144    20 N    0.138
    32   6 C    3.975 --    34 C    1.012    33 C    1.010    80 H    0.963
                            17 C    0.939
    33   6 C    3.994 --    32 C    1.010    82 H    0.986    81 H    0.983
                            83 H    0.981
    34   6 C    3.992 --    32 C    1.012    85 H    0.985    86 H    0.984
                            84 H    0.981
    35   8 O    2.000 --    16 C    1.662    15 N    0.196
    36   6 C    3.993 --    37 C    1.010    87 H    0.975    14 C    0.964
                            88 H    0.963
    37   6 C    3.988 --    42 C    1.417    38 C    1.405    36 C    1.010
                            40 C    0.109
    38   6 C    3.991 --    39 C    1.451    37 C    1.405    89 H    0.965
                            41 C    0.112
    39   6 C    3.992 --    38 C    1.451    40 C    1.433    90 H    0.971
                            42 C    0.110
    40   6 C    3.991 --    41 C    1.443    39 C    1.433    91 H    0.971
                            37 C    0.109
    41   6 C    3.992 --    40 C    1.443    42 C    1.439    92 H    0.971
                            38 C    0.112
    42   6 C    3.990 --    41 C    1.439    37 C    1.417    93 H    0.969
                            39 C    0.110
    43   8 O    1.965 --    12 C    1.021    94 H    0.837
    44   8 O    2.232 --     2 C    1.063    45 C    0.927     1 O    0.125
    45   6 C    3.925 --    46 C    1.017    95 H    0.965    96 H    0.962
                            44 O    0.927
    46   6 C    3.765 --    47 C    1.475    50 S    1.151    45 C    1.017
    47   6 C    3.866 --    46 C    1.475    48 N    1.296    97 H    0.960
    48   7 N    3.016 --    49 C    1.540    47 C    1.296    50 S    0.107
    49   6 C    3.704 --    48 N    1.540    50 S    1.093    98 H    0.964
    50  16 S    2.471 --    46 C    1.151    49 C    1.093    48 N    0.107
    51   1 H    0.963 --     3 N    0.934
    52   1 H    0.998 --     4 C    0.965
    53   1 H    0.997 --     5 C    0.966
    54   1 H    0.995 --     5 C    0.966
    55   1 H    0.999 --     7 C    0.967
    56   1 H    0.998 --     8 C    0.970
    57   1 H    0.998 --     9 C    0.971
    58   1 H    0.999 --    10 C    0.971
    59   1 H    0.999 --    11 C    0.970
    60   1 H    0.998 --    12 C    0.958
    61   1 H    0.995 --    13 C    0.964
    62   1 H    0.996 --    13 C    0.972
    63   1 H    0.994 --    14 C    0.947
    64   1 H    0.968 --    15 N    0.936
    65   1 H    0.995 --    17 C    0.950
    66   1 H    0.950 --    18 N    0.880
    67   1 H    0.990 --    21 C    0.970
    68   1 H    0.990 --    21 C    0.972
    69   1 H    0.989 --    21 C    0.969
    70   1 H    0.994 --    22 C    0.958
    71   1 H    0.995 --    22 C    0.968
    72   1 H    0.998 --    24 C    0.971
    73   1 H    0.995 --    27 C    0.952
    74   1 H    0.995 --    28 C    0.980
    75   1 H    0.998 --    28 C    0.983
    76   1 H    0.999 --    28 C    0.986
    77   1 H    0.998 --    29 C    0.985
    78   1 H    0.998 --    29 C    0.987
    79   1 H    0.996 --    29 C    0.983
    80   1 H    0.994 --    32 C    0.963
    81   1 H    0.995 --    33 C    0.983
    82   1 H    0.998 --    33 C    0.986
    83   1 H    0.998 --    33 C    0.981
    84   1 H    0.996 --    34 C    0.981
    85   1 H    0.998 --    34 C    0.985
    86   1 H    0.997 --    34 C    0.984
    87   1 H    0.998 --    36 C    0.975
    88   1 H    0.996 --    36 C    0.963
    89   1 H    0.999 --    38 C    0.965
    90   1 H    0.999 --    39 C    0.971
    91   1 H    0.999 --    40 C    0.971
    92   1 H    0.999 --    41 C    0.971
    93   1 H    0.999 --    42 C    0.969
    94   1 H    0.892 --    43 O    0.837
    95   1 H    0.995 --    45 C    0.965
    96   1 H    0.992 --    45 C    0.962
    97   1 H    0.997 --    47 C    0.960
    98   1 H    0.994 --    49 C    0.964
 ---------------------------------------------------------------------------

Topologies differ in total number of bonds
Writing topology from bond orders to xtbtopo.mol

molecular dipole:
                 x           y           z       tot (Debye)
 q only:        1.562      -0.728      -0.018
   full:        2.166      -0.860       0.437       6.025
molecular quadrupole (traceless):
                xx          xy          yy          xz          yz          zz
 q only:      -14.502      -4.248      14.099      -3.220      12.145       0.404
  q+dip:      -14.218      -9.521      18.791      -9.489       9.924      -4.573
   full:      -13.560      -7.424      18.236      -6.673      13.309      -4.676


           -------------------------------------------------
          | TOTAL ENERGY             -148.067618888841 Eh   |
          | GRADIENT NORM               0.094404760248 Eh/α |
          | HOMO-LUMO GAP               0.021996352130 eV   |
           -------------------------------------------------

------------------------------------------------------------------------
 * finished run on 2025/05/15 at 16:05:34.422     
------------------------------------------------------------------------
 total:
 * wall-time:     0 d,  0 h,  0 min,  0.705 sec
 *  cpu-time:     0 d,  0 h,  0 min,  0.506 sec
 * ratio c/w:     0.717 speedup
 SCF:
 * wall-time:     0 d,  0 h,  0 min,  0.668 sec
 *  cpu-time:     0 d,  0 h,  0 min,  0.471 sec
 * ratio c/w:     0.705 speedup


