42
 energy: -62.293146435965 gnorm: 0.000646592941 xtb: 6.7.1 (edcfbbe)
C            3.33556547979219        1.61087379723026        1.11300145753447
C            3.02563197613109        1.84855440975561       -0.36642684792600
C            2.63229592460442        0.56795439049967       -1.04635271694346
C            3.50402798685709       -0.14867733306723       -1.84243589131587
C            3.13906228622652       -1.35694051164855       -2.44388422589414
C            1.88504306014490       -1.89444337520344       -2.27134725640077
C            0.97350475715822       -1.19924744997500       -1.47617472235025
C            1.35998109835443        0.02236614803575       -0.87105616824638
N            0.30326136883899        0.48969766372198       -0.14352616441370
C           -0.74380811488025       -0.38257675143014       -0.28190245292104
C           -0.37690952608246       -1.42767025526226       -1.08477517636037
C           -1.33259291701819       -2.50846590218607       -1.46328543014194
C           -2.51273197516408       -2.43998957393537       -0.48985259628188
O           -3.00446500854914       -1.12652409263890       -0.31421136901954
C           -2.10618343433930       -0.20616339109708        0.31566691745475
C           -2.15403741806998       -0.42625050263562        1.85113163087189
C           -0.89709176247545       -0.03451409484314        2.61959631922630
C           -2.70416338360406        1.17785952335469       -0.06086355389303
C           -2.22846884197851        2.31905406856956        0.79119350154914
O           -3.19977269782283        2.80037753574670        1.56667612788242
O           -1.11569353087891        2.78678102302994        0.80166437111771
H            4.15860893958966        0.90705743944601        1.21586773385505
H            3.61347462515880        2.54386385915848        1.59847533849663
H            2.46910162008844        1.19863506225639        1.62502177525568
H            2.21512993599967        2.57700501173390       -0.45201137127358
H            3.90773785600555        2.26520778966069       -0.85644476822093
H            4.50002324466047        0.23698611339398       -2.00871643939473
H            3.86427784009447       -1.87264803988952       -3.05673542060922
H            1.60691151268940       -2.82789026183397       -2.73755571858732
H            0.23520334397179        1.39948641491401        0.28619224715741
H           -1.68230456540616       -2.34865492259764       -2.48789120732308
H           -0.86606611273388       -3.49407307465058       -1.41393376506522
H           -2.20564339819795       -2.86820372895190        0.47507923186059
H           -3.36846702581502       -3.00625056978042       -0.86383275905682
H           -2.33879847782445       -1.48859388578888        2.02314887415573
H           -3.01769429114006        0.11429593582457        2.24440730572500
H           -0.03918732740272       -0.60698055354771        2.27443866922232
H           -0.67170189566521        1.02308540046101        2.51540824436704
H           -1.04352164037021       -0.24457164129032        3.67742561469568
H           -3.78656707056188        1.09291310823237        0.03494738487933
H           -2.45103178038004        1.38429939164365       -1.10237393635069
H           -2.88204066000469        3.54297582558062        2.10614721268864
