----- Optimization -----
      -----------------------------------------------------------      
     |                   =====================                   |     
     |                           x T B                           |     
     |                   =====================                   |     
     |                         S. Grimme                         |     
     |          Mulliken Center for Theoretical Chemistry        |     
     |                    University of Bonn                     |     
      -----------------------------------------------------------      

   * xtb version 6.7.1 (edcfbbe) compiled by 'conda@3ef47c1a292c' on 2024-11-25

   xtb is free software: you can redistribute it and/or modify it under
   the terms of the GNU Lesser General Public License as published by
   the Free Software Foundation, either version 3 of the License, or
   (at your option) any later version.
   
   xtb is distributed in the hope that it will be useful,
   but WITHOUT ANY WARRANTY; without even the implied warranty of
   MERCHANTABILITY or FITNESS FOR A PARTICULAR PURPOSE.  See the
   GNU Lesser General Public License for more details.
   
   Cite this work as:
   * C. Bannwarth, E. Caldeweyher, S. Ehlert, A. Hansen, P. Pracht,
     J. Seibert, S. Spicher, S. Grimme, WIREs Comput. Mol. Sci., 2020, 11,
     e01493. DOI: 10.1002/wcms.1493
   
   for GFN2-xTB:
   * C. Bannwarth, S. Ehlert and S. Grimme., J. Chem. Theory Comput., 2019,
     15, 1652-1671. DOI: 10.1021/acs.jctc.8b01176
   for GFN1-xTB:
   * S. Grimme, C. Bannwarth, P. Shushkov, J. Chem. Theory Comput., 2017,
     13, 1989-2009. DOI: 10.1021/acs.jctc.7b00118
   for GFN0-xTB:
   * P. Pracht, E. Caldeweyher, S. Ehlert, S. Grimme, ChemRxiv, 2019, preprint.
     DOI: 10.26434/chemrxiv.8326202.v1
   for GFN-FF:
   * S. Spicher and S. Grimme, Angew. Chem. Int. Ed., 2020, 59, 15665-15673.
     DOI: 10.1002/anie.202004239
   
   for ALPB and GBSA implicit solvation:
   * S. Ehlert, M. Stahn, S. Spicher, S. Grimme, J. Chem. Theory Comput.,
     2021, 17, 4250-4261. DOI: 10.1021/acs.jctc.1c00471
   
   for ddCOSMO and CPCM-X implicit solvation:
   * M. Stahn, S. Ehlert, S. Grimme, J. Phys. Chem. A,
     2023, XX, XXXX-XXXX. DOI: 10.1021/acs.jpca.3c04382
   
   for DFT-D4:
   * E. Caldeweyher, C. Bannwarth and S. Grimme, J. Chem. Phys., 2017,
     147, 034112. DOI: 10.1063/1.4993215
   * E. Caldeweyher, S. Ehlert, A. Hansen, H. Neugebauer, S. Spicher,
     C. Bannwarth and S. Grimme, J. Chem. Phys., 2019, 150, 154122.
     DOI: 10.1063/1.5090222
   * E. Caldeweyher, J.-M. Mewes, S. Ehlert and S. Grimme, Phys. Chem. Chem. Phys.
     2020, 22, 8499-8512. DOI: 10.1039/D0CP00502A
   
   for sTDA-xTB:
   * S. Grimme and C. Bannwarth, J. Chem. Phys., 2016, 145, 054103.
     DOI: 10.1063/1.4959605
   
   in the mass-spec context:
   * V. Asgeirsson, C. Bauer and S. Grimme, Chem. Sci., 2017, 8, 4879.
     DOI: 10.1039/c7sc00601b
   * J. Koopman and S. Grimme, ACS Omega 2019, 4, 12, 15120-15133.
     DOI: 10.1021/acsomega.9b02011
   
   for metadynamics refer to:
   * S. Grimme, J. Chem. Theory Comput., 2019, 155, 2847-2862
     DOI: 10.1021/acs.jctc.9b00143
   
   for SPH calculations refer to:
   * S. Spicher and S. Grimme, J. Chem. Theory Comput., 2021, 17, 1701-1714
     DOI: 10.1021/acs.jctc.0c01306
   
   for ONIOM refer to:
   * C. Plett, A. Katbashev, S. Ehlert, S. Grimme, M. Bursch,
     Phys. Chem. Chem. Phys., 2023, 25, 17860-17868. DOI: 10.1039/D3CP02178E
   
   for DIPRO refer to:
   * J. Kohn, N. Gildemeister, S. Grimme, D. Fazzi, A. Hansen,
     J. Chem. Phys., 2023, just accepted.
   
   for PTB refer to:
   * S. Grimme, M. Mueller, A. Hansen, J. Chem. Phys., 2023, 158, 124111.
     DOI: 10.1063/5.0137838
   
   with help from (in alphabetical order)
   P. Atkinson, C. Bannwarth, F. Bohle, G. Brandenburg, E. Caldeweyher
   M. Checinski, S. Dohm, S. Ehlert, S. Ehrlich, I. Gerasimov, C. Hölzer
   A. Katbashev, J. Kohn, J. Koopman, C. Lavigne, S. Lehtola, F. März, M. Müller,
   F. Musil, H. Neugebauer, J. Pisarek, C. Plett, P. Pracht, F. Pultar,
   J. Seibert, P. Shushkov, S. Spicher, M. Stahn, M. Steiner, T. Strunk,
   J. Stückrath, T. Rose, and J. Unsleber
   
 * started run on 2025/05/15 at 16:26:24.724     
   ID    Z sym.   atoms
    1    6 C      1-8, 10-13, 15-19
    2    7 N      9
    3    8 O      14, 20, 21
    4    1 H      22-42

           -------------------------------------------------
          |                Calculation Setup                |
           -------------------------------------------------

          program call               : xtb /rds/general/user/hgt20/home/callum/QDESCP/Etodolac_rdkit_conf_11/Etodolac_rdkit_conf_11.xyz --opt normal --acc 1 --gfn 2 --chrg 0 --uhf 0 -P 1
          hostname                   : login-c
          coordinate file            : /rds/general/user/hgt20/home/callum/QDESCP/Etodolac_rdkit_conf_11/Etodolac_rdkit_conf_11.xyz
          omp threads                :                     1


           -------------------------------------------------
          |                 G F N 2 - x T B                 |
           -------------------------------------------------

        Reference                      10.1021/acs.jctc.8b01176
      * Hamiltonian:
        H0-scaling (s, p, d)           1.850000    2.230000    2.230000
        zeta-weighting                 0.500000
      * Dispersion:
        s8                             2.700000
        a1                             0.520000
        a2                             5.000000
        s9                             5.000000
      * Repulsion:
        kExp                           1.500000    1.000000
        rExp                           1.000000
      * Coulomb:
        alpha                          2.000000
        third order                    shell-resolved
        anisotropic                    true
        a3                             3.000000
        a5                             4.000000
        cn-shift                       1.200000
        cn-exp                         4.000000
        max-rad                        5.000000


          ...................................................
          :                      SETUP                      :
          :.................................................:
          :  # basis functions                 105          :
          :  # atomic orbitals                 105          :
          :  # shells                           63          :
          :  # electrons                       112          :
          :  max. iterations                   250          :
          :  Hamiltonian                  GFN2-xTB          :
          :  restarted?                      false          :
          :  GBSA solvation                  false          :
          :  PC potential                    false          :
          :  electronic temp.          300.0000000     K    :
          :  accuracy                    1.0000000          :
          :  -> integral cutoff          0.2500000E+02      :
          :  -> integral neglect         0.1000000E-07      :
          :  -> SCF convergence          0.1000000E-05 Eh   :
          :  -> wf. convergence          0.1000000E-03 e    :
          :  Broyden damping             0.4000000          :
          :  net charge                          0          :
          :  unpaired electrons                  0          :
          ...................................................

 iter      E             dE          RMSdq      gap      omega  full diag
   1    -62.9593792 -0.629594E+02  0.369E+00    3.06       0.0  T
   2    -63.0803615 -0.120982E+00  0.211E+00    2.48       1.0  T
   3    -63.0863566 -0.599508E-02  0.117E+00    2.96       1.0  T
   4    -63.0912232 -0.486660E-02  0.516E-01    2.28       1.0  T
   5    -63.1005806 -0.935735E-02  0.120E-01    2.26       1.0  T
   6    -63.1008529 -0.272294E-03  0.589E-02    2.29       1.0  T
   7    -63.1008929 -0.400046E-04  0.256E-02    2.29       1.0  T
   8    -63.1008958 -0.286862E-05  0.118E-02    2.30       1.3  T
   9    -63.1008993 -0.358676E-05  0.303E-03    2.30       5.1  T
  10    -63.1008994 -0.429888E-07  0.146E-03    2.30      10.6  T
  11    -63.1008994 -0.271386E-07  0.645E-04    2.30      23.9  T
  12    -63.1008994 -0.556327E-08  0.271E-04    2.30      57.0  T

   *** convergence criteria satisfied after 12 iterations ***

         #    Occupation            Energy/Eh            Energy/eV
      -------------------------------------------------------------
         1        2.0000           -0.7613744             -20.7181
       ...           ...                  ...                  ...
        50        2.0000           -0.4240322             -11.5385
        51        2.0000           -0.4130695             -11.2402
        52        2.0000           -0.4032071             -10.9718
        53        2.0000           -0.3946750             -10.7397
        54        2.0000           -0.3918732             -10.6634
        55        2.0000           -0.3688771             -10.0377
        56        2.0000           -0.3438667              -9.3571 (HOMO)
        57                         -0.2593138              -7.0563 (LUMO)
        58                         -0.2228015              -6.0627
        59                         -0.1842576              -5.0139
        60                         -0.1504951              -4.0952
        61                         -0.0636046              -1.7308
       ...                                ...                  ...
       105                          0.7166472              19.5010
      -------------------------------------------------------------
                  HL-Gap            0.0845529 Eh            2.3008 eV
             Fermi-level           -0.3015902 Eh           -8.2067 eV

 SCC (total)                   0 d,  0 h,  0 min,  0.085 sec
 SCC setup                      ...        0 min,  0.000 sec (  0.426%)
 Dispersion                     ...        0 min,  0.000 sec (  0.587%)
 classical contributions        ...        0 min,  0.000 sec (  0.171%)
 integral evaluation            ...        0 min,  0.008 sec (  9.160%)
 iterations                     ...        0 min,  0.053 sec ( 62.631%)
 molecular gradient             ...        0 min,  0.023 sec ( 26.834%)
 printout                       ...        0 min,  0.000 sec (  0.182%)

         :::::::::::::::::::::::::::::::::::::::::::::::::::::
         ::                     SUMMARY                     ::
         :::::::::::::::::::::::::::::::::::::::::::::::::::::
         :: total energy             -62.281559342379 Eh    ::
         :: gradient norm              0.075662378410 Eh/a0 ::
         :: HOMO-LUMO gap              2.300800727323 eV    ::
         ::.................................................::
         :: SCC energy               -63.100152649697 Eh    ::
         :: -> isotropic ES            0.075349156057 Eh    ::
         :: -> anisotropic ES          0.008412256124 Eh    ::
         :: -> anisotropic XC          0.018754478305 Eh    ::
         :: -> dispersion             -0.045168937190 Eh    ::
         :: repulsion energy           0.818593307318 Eh    ::
         :: add. restraining           0.000000000000 Eh    ::
         :: total charge               0.000000000000 e     ::
         :::::::::::::::::::::::::::::::::::::::::::::::::::::

      ----------------------------------------------------------- 
     |                   =====================                   |
     |                        A N C O P T                        |
     |                   =====================                   |
     |               Approximate Normal Coordinate               |
     |                Rational Function Optimizer                |
      ----------------------------------------------------------- 
      ----------------------------------------------------------- 
     |                   =====================                   |
     |                        A N C O P T                        |
     |                   =====================                   |
     |               Approximate Normal Coordinate               |
     |                Rational Function Optimizer                |
      ----------------------------------------------------------- 

          ...................................................
          :                      SETUP                      :
          :.................................................:
          :   optimization level            normal          :
          :   max. optcycles                   200          :
          :   ANC micro-cycles                  20          :
          :   degrees of freedom               120          :
          :.................................................:
          :   RF solver                   davidson          :
          :   write xtbopt.log                true          :
          :   linear?                        false          :
          :   energy convergence         0.5000000E-05 Eh   :
          :   grad. convergence          0.1000000E-02 Eh/α :
          :   maxmium RF displ.          1.0000000          :
          :   Hlow (freq-cutoff)         0.1000000E-01      :
          :   Hmax (freq-cutoff)         5.0000000          :
          :   S6 in model hess.         20.0000000          :
          ...................................................

generating ANC from exact Hessian ...
Using Lindh-Hessian (1995)
 Shifting diagonal of input Hessian by    9.4577336956703506E-003
 Lowest  eigenvalues of input Hessian
    0.000000    0.000000    0.000000    0.000000    0.000000    0.000000
    0.010000    0.010287    0.011072    0.011354    0.012079    0.012663
    0.013357    0.014279    0.015253    0.015657    0.016431    0.018388
 Highest eigenvalues
    1.832652    1.919889    1.984656    2.026302    2.131148    2.269549


........................................................................
.............................. CYCLE    1 ..............................
........................................................................

 iter      E             dE          RMSdq      gap      omega  full diag
   1    -63.1008994 -0.631009E+02  0.128E-04    2.30       0.0  T
   2    -63.1008994 -0.140282E-09  0.830E-05    2.30     185.8  T
   3    -63.1008994 -0.875033E-10  0.536E-05    2.30     287.8  T
     SCC iter.                  ...        0 min,  0.006 sec
     gradient                   ...        0 min,  0.023 sec
 * total energy  :   -62.2815593 Eh     change       -0.1057849E-08 Eh
   gradient norm :     0.0756638 Eh/α   predicted     0.0000000E+00 (-100.00%)
   displ. norm   :     0.3015227 α      lambda       -0.1044728E-01
   maximum displ.:     0.1302836 α      in ANC's #23, #15, #29, ...

........................................................................
.............................. CYCLE    2 ..............................
........................................................................

 iter      E             dE          RMSdq      gap      omega  full diag
   1    -63.1322024 -0.631322E+02  0.209E-01    2.54       0.0  T
   2    -63.1322897 -0.873429E-04  0.125E-01    2.53       1.0  T
   3    -63.1322698  0.199079E-04  0.358E-02    2.55       1.0  T
   4    -63.1322974 -0.276192E-04  0.101E-02    2.54       1.5  T
   5    -63.1323009 -0.343079E-05  0.475E-03    2.54       3.2  T
   6    -63.1323015 -0.585821E-06  0.209E-03    2.54       7.4  T
   7    -63.1323015 -0.443416E-07  0.910E-04    2.54      17.0  T
   8    -63.1323015 -0.418230E-08  0.302E-04    2.54      51.1  T
     SCC iter.                  ...        0 min,  0.015 sec
     gradient                   ...        0 min,  0.064 sec
 * total energy  :   -62.2884659 Eh     change       -0.6906547E-02 Eh
   gradient norm :     0.0281216 Eh/α   predicted    -0.5700593E-02 ( -17.46%)
   displ. norm   :     0.2509042 α      lambda       -0.2681832E-02
   maximum displ.:     0.1318606 α      in ANC's #15, #23, #11, ...

........................................................................
.............................. CYCLE    3 ..............................
........................................................................

 iter      E             dE          RMSdq      gap      omega  full diag
   1    -63.1464534 -0.631465E+02  0.111E-01    2.62       0.0  T
   2    -63.1464790 -0.255631E-04  0.675E-02    2.61       1.0  T
   3    -63.1464654  0.135870E-04  0.228E-02    2.62       1.0  T
   4    -63.1464815 -0.161073E-04  0.768E-03    2.61       2.0  T
   5    -63.1464837 -0.224706E-05  0.261E-03    2.62       5.9  T
   6    -63.1464839 -0.141838E-06  0.108E-03    2.62      14.3  T
   7    -63.1464839 -0.654251E-08  0.516E-04    2.62      29.9  T
   8    -63.1464839 -0.142992E-08  0.173E-04    2.61      89.2  T
     SCC iter.                  ...        0 min,  0.015 sec
     gradient                   ...        0 min,  0.070 sec
 * total energy  :   -62.2901031 Eh     change       -0.1637219E-02 Eh
   gradient norm :     0.0089185 Eh/α   predicted    -0.1426315E-02 ( -12.88%)
   displ. norm   :     0.1679952 α      lambda       -0.5451146E-03
   maximum displ.:     0.0753753 α      in ANC's #11, #15, #9, ...

........................................................................
.............................. CYCLE    4 ..............................
........................................................................

 iter      E             dE          RMSdq      gap      omega  full diag
   1    -63.1479601 -0.631480E+02  0.456E-02    2.62       0.0  T
   2    -63.1479629 -0.283358E-05  0.275E-02    2.62       1.0  T
   3    -63.1479622  0.756858E-06  0.613E-03    2.62       2.5  T
   4    -63.1479633 -0.110674E-05  0.257E-03    2.62       6.0  T
   5    -63.1479635 -0.203027E-06  0.123E-03    2.62      12.6  T
   6    -63.1479635 -0.258519E-07  0.555E-04    2.62      27.8  T
   7    -63.1479635 -0.115730E-08  0.220E-04    2.62      70.3  T
     SCC iter.                  ...        0 min,  0.013 sec
     gradient                   ...        0 min,  0.023 sec
 * total energy  :   -62.2904933 Eh     change       -0.3901836E-03 Eh
   gradient norm :     0.0069478 Eh/α   predicted    -0.2802556E-03 ( -28.17%)
   displ. norm   :     0.1924782 α      lambda       -0.3587157E-03
   maximum displ.:     0.0907172 α      in ANC's #11, #9, #15, ...

........................................................................
.............................. CYCLE    5 ..............................
........................................................................

 iter      E             dE          RMSdq      gap      omega  full diag
   1    -63.1472098 -0.631472E+02  0.481E-02    2.62       0.0  T
   2    -63.1472113 -0.152721E-05  0.285E-02    2.62       1.0  T
   3    -63.1472112  0.118834E-06  0.494E-03    2.62       3.1  T
   4    -63.1472118 -0.631697E-06  0.206E-03    2.62       7.5  T
   5    -63.1472119 -0.417650E-07  0.117E-03    2.62      13.2  T
   6    -63.1472119 -0.150537E-07  0.455E-04    2.62      33.9  T
   7    -63.1472119 -0.221016E-08  0.187E-04    2.62      82.6  T
     SCC iter.                  ...        0 min,  0.013 sec
     gradient                   ...        0 min,  0.023 sec
 * total energy  :   -62.2907339 Eh     change       -0.2405939E-03 Eh
   gradient norm :     0.0058245 Eh/α   predicted    -0.1860060E-03 ( -22.69%)
   displ. norm   :     0.1501185 α      lambda       -0.1629521E-03
   maximum displ.:     0.0636333 α      in ANC's #11, #2, #9, ...

........................................................................
.............................. CYCLE    6 ..............................
........................................................................

 iter      E             dE          RMSdq      gap      omega  full diag
   1    -63.1465856 -0.631466E+02  0.395E-02    2.62       0.0  T
   2    -63.1465867 -0.109149E-05  0.234E-02    2.62       1.0  T
   3    -63.1465854  0.128217E-05  0.663E-03    2.62       2.3  T
   4    -63.1465871 -0.172866E-05  0.184E-03    2.62       8.4  T
   5    -63.1465872 -0.524147E-07  0.992E-04    2.62      15.6  T
   6    -63.1465872 -0.262388E-08  0.465E-04    2.62      33.2  T
     SCC iter.                  ...        0 min,  0.056 sec
     gradient                   ...        0 min,  0.023 sec
 * total energy  :   -62.2908522 Eh     change       -0.1182850E-03 Eh
   gradient norm :     0.0044042 Eh/α   predicted    -0.8331802E-04 ( -29.56%)
   displ. norm   :     0.1715554 α      lambda       -0.1389984E-03
   maximum displ.:     0.0707129 α      in ANC's #2, #4, #11, ...

........................................................................
.............................. CYCLE    7 ..............................
........................................................................

 iter      E             dE          RMSdq      gap      omega  full diag
   1    -63.1463586 -0.631464E+02  0.449E-02    2.62       0.0  T
   2    -63.1463600 -0.136508E-05  0.265E-02    2.62       1.0  T
   3    -63.1463586  0.144355E-05  0.700E-03    2.61       2.2  T
   4    -63.1463605 -0.195286E-05  0.204E-03    2.62       7.6  T
   5    -63.1463606 -0.734786E-07  0.107E-03    2.62      14.5  T
   6    -63.1463606 -0.278343E-08  0.515E-04    2.62      30.0  T
   7    -63.1463606 -0.456139E-08  0.148E-04    2.62     104.2  T
     SCC iter.                  ...        0 min,  0.013 sec
     gradient                   ...        0 min,  0.067 sec
 * total energy  :   -62.2909548 Eh     change       -0.1026775E-03 Eh
   gradient norm :     0.0042052 Eh/α   predicted    -0.7154671E-04 ( -30.32%)
   displ. norm   :     0.2062481 α      lambda       -0.1379936E-03
   maximum displ.:     0.0921037 α      in ANC's #4, #2, #5, ...

........................................................................
.............................. CYCLE    8 ..............................
........................................................................

 iter      E             dE          RMSdq      gap      omega  full diag
   1    -63.1463559 -0.631464E+02  0.533E-02    2.61       0.0  T
   2    -63.1463571 -0.120703E-05  0.314E-02    2.61       1.0  T
   3    -63.1463564  0.735756E-06  0.573E-03    2.61       2.7  T
   4    -63.1463576 -0.124468E-05  0.204E-03    2.61       7.6  T
   5    -63.1463577 -0.574577E-07  0.111E-03    2.61      13.9  T
   6    -63.1463577 -0.407187E-08  0.465E-04    2.61      33.2  T
   7    -63.1463577 -0.424198E-08  0.129E-04    2.61     119.4  T
     SCC iter.                  ...        0 min,  0.013 sec
     gradient                   ...        0 min,  0.068 sec
 * total energy  :   -62.2910587 Eh     change       -0.1038654E-03 Eh
   gradient norm :     0.0054368 Eh/α   predicted    -0.7193230E-04 ( -30.74%)
   displ. norm   :     0.2577646 α      lambda       -0.1629319E-03
   maximum displ.:     0.1343961 α      in ANC's #4, #2, #5, ...

........................................................................
.............................. CYCLE    9 ..............................
........................................................................

 iter      E             dE          RMSdq      gap      omega  full diag
   1    -63.1468324 -0.631468E+02  0.609E-02    2.61       0.0  T
   2    -63.1468336 -0.116642E-05  0.357E-02    2.61       1.0  T
   3    -63.1468339 -0.247732E-06  0.346E-03    2.61       4.5  T
   4    -63.1468341 -0.252925E-06  0.187E-03    2.61       8.3  T
   5    -63.1468341 -0.284704E-07  0.105E-03    2.61      14.7  T
   6    -63.1468341 -0.105893E-07  0.382E-04    2.61      40.4  T
   7    -63.1468342 -0.405115E-08  0.103E-04    2.61     149.7  T
     SCC iter.                  ...        0 min,  0.013 sec
     gradient                   ...        0 min,  0.023 sec
 * total energy  :   -62.2911804 Eh     change       -0.1216757E-03 Eh
   gradient norm :     0.0062268 Eh/α   predicted    -0.8688383E-04 ( -28.59%)
   displ. norm   :     0.2638643 α      lambda       -0.1699488E-03
   maximum displ.:     0.1477010 α      in ANC's #4, #2, #5, ...

........................................................................
.............................. CYCLE   10 ..............................
........................................................................

 iter      E             dE          RMSdq      gap      omega  full diag
   1    -63.1471710 -0.631472E+02  0.617E-02    2.60       0.0  T
   2    -63.1471725 -0.143744E-05  0.362E-02    2.60       1.0  T
   3    -63.1471725 -0.922432E-07  0.375E-03    2.61       4.1  T
   4    -63.1471729 -0.362802E-06  0.177E-03    2.61       8.7  T
   5    -63.1471729 -0.290463E-07  0.997E-04    2.61      15.5  T
   6    -63.1471729 -0.617207E-08  0.368E-04    2.61      42.0  T
     SCC iter.                  ...        0 min,  0.050 sec
     gradient                   ...        0 min,  0.023 sec
 * total energy  :   -62.2913081 Eh     change       -0.1276661E-03 Eh
   gradient norm :     0.0055160 Eh/α   predicted    -0.9091582E-04 ( -28.79%)
   displ. norm   :     0.2763404 α      lambda       -0.1739070E-03
   maximum displ.:     0.1610460 α      in ANC's #4, #5, #2, ...

........................................................................
.............................. CYCLE   11 ..............................
........................................................................

 iter      E             dE          RMSdq      gap      omega  full diag
   1    -63.1479640 -0.631480E+02  0.585E-02    2.62       0.0  T
   2    -63.1479657 -0.169669E-05  0.344E-02    2.62       1.0  T
   3    -63.1479651  0.544763E-06  0.536E-03    2.63       2.9  T
   4    -63.1479661 -0.977308E-06  0.205E-03    2.62       7.5  T
   5    -63.1479662 -0.702964E-07  0.112E-03    2.62      13.8  T
   6    -63.1479662 -0.112319E-07  0.462E-04    2.62      33.4  T
   7    -63.1479662 -0.163016E-08  0.172E-04    2.62      89.7  T
     SCC iter.                  ...        0 min,  0.013 sec
     gradient                   ...        0 min,  0.062 sec
 * total energy  :   -62.2914242 Eh     change       -0.1161516E-03 Eh
   gradient norm :     0.0054176 Eh/α   predicted    -0.9359610E-04 ( -19.42%)
   displ. norm   :     0.3295139 α      lambda       -0.1467244E-03
   maximum displ.:     0.1856582 α      in ANC's #4, #2, #5, ...

........................................................................
.............................. CYCLE   12 ..............................
........................................................................

 iter      E             dE          RMSdq      gap      omega  full diag
   1    -63.1452750 -0.631453E+02  0.809E-02    2.53       0.0  T
   2    -63.1452826 -0.757147E-05  0.475E-02    2.56       1.0  T
   3    -63.1452813  0.131356E-05  0.105E-02    2.56       1.5  T
   4    -63.1452841 -0.275830E-05  0.261E-03    2.56       5.9  T
   5    -63.1452841 -0.354878E-07  0.164E-03    2.56       9.4  T
   6    -63.1452841 -0.302009E-07  0.907E-04    2.56      17.0  T
   7    -63.1452841 -0.142122E-07  0.242E-04    2.56      63.7  T
     SCC iter.                  ...        0 min,  0.013 sec
     gradient                   ...        0 min,  0.023 sec
 * total energy  :   -62.2914386 Eh     change       -0.1441132E-04 Eh
   gradient norm :     0.0121386 Eh/α   predicted    -0.8133416E-04 ( 464.38%)
   displ. norm   :     0.1138877 α      lambda       -0.2455374E-03
   maximum displ.:     0.0446857 α      in ANC's #11, #10, #1, ...

........................................................................
.............................. CYCLE   13 ..............................
........................................................................

 iter      E             dE          RMSdq      gap      omega  full diag
   1    -63.1482831 -0.631483E+02  0.453E-02    2.67       0.0  T
   2    -63.1483063 -0.232285E-04  0.270E-02    2.65       1.0  T
   3    -63.1483088 -0.246871E-05  0.145E-02    2.65       1.1  T
   4    -63.1483094 -0.558511E-06  0.287E-03    2.65       5.4  T
   5    -63.1483095 -0.952997E-07  0.147E-03    2.65      10.5  T
   6    -63.1483095 -0.617961E-07  0.747E-04    2.65      20.6  T
   7    -63.1483095 -0.369327E-08  0.195E-04    2.65      79.3  T
     SCC iter.                  ...        0 min,  0.013 sec
     gradient                   ...        0 min,  0.023 sec
 * total energy  :   -62.2914841 Eh     change       -0.4548206E-04 Eh
   gradient norm :     0.0068821 Eh/α   predicted    -0.1243616E-03 ( 173.43%)
   displ. norm   :     0.0494913 α      lambda       -0.1433665E-03
   maximum displ.:     0.0203727 α      in ANC's #11, #9, #6, ...

........................................................................
.............................. CYCLE   14 ..............................
........................................................................

 iter      E             dE          RMSdq      gap      omega  full diag
   1    -63.1482124 -0.631482E+02  0.278E-02    2.64       0.0  T
   2    -63.1482296 -0.171599E-04  0.145E-02    2.64       1.1  T
   3    -63.1482304 -0.810652E-06  0.823E-03    2.63       1.9  T
   4    -63.1482303  0.349785E-07  0.307E-03    2.64       5.0  T
   5    -63.1482305 -0.128696E-06  0.681E-04    2.64      22.7  T
   6    -63.1482305 -0.116476E-07  0.381E-04    2.64      40.5  T
     SCC iter.                  ...        0 min,  0.051 sec
     gradient                   ...        0 min,  0.023 sec
 * total energy  :   -62.2915488 Eh     change       -0.6473843E-04 Eh
   gradient norm :     0.0049454 Eh/α   predicted    -0.7186010E-04 (  11.00%)
   displ. norm   :     0.0797898 α      lambda       -0.3668210E-04
   maximum displ.:     0.0410374 α      in ANC's #4, #2, #5, ...

........................................................................
.............................. CYCLE   15 ..............................
........................................................................

 iter      E             dE          RMSdq      gap      omega  full diag
   1    -63.1474998 -0.631475E+02  0.209E-02    2.61       0.0  T
   2    -63.1475007 -0.885784E-06  0.122E-02    2.62       1.3  T
   3    -63.1475005  0.204491E-06  0.354E-03    2.62       4.4  T
   4    -63.1475007 -0.234164E-06  0.147E-03    2.62      10.5  T
   5    -63.1475008 -0.789747E-07  0.457E-04    2.62      33.8  T
   6    -63.1475008 -0.158196E-08  0.263E-04    2.62      58.6  T
     SCC iter.                  ...        0 min,  0.011 sec
     gradient                   ...        0 min,  0.069 sec
 * total energy  :   -62.2915752 Eh     change       -0.2639922E-04 Eh
   gradient norm :     0.0027598 Eh/α   predicted    -0.1846241E-04 ( -30.06%)
   displ. norm   :     0.1304592 α      lambda       -0.3939237E-04
   maximum displ.:     0.0597779 α      in ANC's #2, #4, #7, ...

........................................................................
.............................. CYCLE   16 ..............................
........................................................................

 iter      E             dE          RMSdq      gap      omega  full diag
   1    -63.1471261 -0.631471E+02  0.297E-02    2.61       0.0  T
   2    -63.1471270 -0.867165E-06  0.175E-02    2.62       1.0  T
   3    -63.1471262  0.727159E-06  0.498E-03    2.62       3.1  T
   4    -63.1471271 -0.845134E-06  0.161E-03    2.62       9.6  T
   5    -63.1471272 -0.829030E-07  0.563E-04    2.62      27.4  T
   6    -63.1471272 -0.517424E-09  0.313E-04    2.62      49.3  T
     SCC iter.                  ...        0 min,  0.011 sec
     gradient                   ...        0 min,  0.023 sec
 * total energy  :   -62.2916040 Eh     change       -0.2875047E-04 Eh
   gradient norm :     0.0029275 Eh/α   predicted    -0.2003486E-04 ( -30.31%)
   displ. norm   :     0.1332503 α      lambda       -0.3659968E-04
   maximum displ.:     0.0577617 α      in ANC's #2, #7, #1, ...

........................................................................
.............................. CYCLE   17 ..............................
........................................................................

 iter      E             dE          RMSdq      gap      omega  full diag
   1    -63.1472876 -0.631473E+02  0.275E-02    2.63       0.0  T
   2    -63.1472883 -0.707480E-06  0.163E-02    2.63       1.0  T
   3    -63.1472877  0.632932E-06  0.480E-03    2.63       3.2  T
   4    -63.1472884 -0.761184E-06  0.138E-03    2.63      11.2  T
   5    -63.1472885 -0.573593E-07  0.539E-04    2.63      28.6  T
   6    -63.1472885 -0.256978E-08  0.268E-04    2.63      57.5  T
     SCC iter.                  ...        0 min,  0.011 sec
     gradient                   ...        0 min,  0.023 sec
 * total energy  :   -62.2916302 Eh     change       -0.2616974E-04 Eh
   gradient norm :     0.0024695 Eh/α   predicted    -0.1862867E-04 ( -28.82%)
   displ. norm   :     0.1209797 α      lambda       -0.2342201E-04
   maximum displ.:     0.0545591 α      in ANC's #2, #7, #1, ...

........................................................................
.............................. CYCLE   18 ..............................
........................................................................

 iter      E             dE          RMSdq      gap      omega  full diag
   1    -63.1475066 -0.631475E+02  0.241E-02    2.63       0.0  T
   2    -63.1475069 -0.215442E-06  0.142E-02    2.63       1.1  T
   3    -63.1475068  0.463317E-07  0.191E-03    2.63       8.1  T
   4    -63.1475069 -0.987889E-07  0.720E-04    2.63      21.4  T
   5    -63.1475069 -0.644533E-08  0.427E-04    2.63      36.1  T
     SCC iter.                  ...        0 min,  0.009 sec
     gradient                   ...        0 min,  0.066 sec
 * total energy  :   -62.2916476 Eh     change       -0.1741590E-04 Eh
   gradient norm :     0.0016688 Eh/α   predicted    -0.1188579E-04 ( -31.75%)
   displ. norm   :     0.1453925 α      lambda       -0.1799825E-04
   maximum displ.:     0.0739216 α      in ANC's #1, #2, #7, ...

........................................................................
.............................. CYCLE   19 ..............................
........................................................................

 iter      E             dE          RMSdq      gap      omega  full diag
   1    -63.1481205 -0.631481E+02  0.268E-02    2.64       0.0  T
   2    -63.1481208 -0.296289E-06  0.158E-02    2.64       1.0  T
   3    -63.1481207  0.178213E-06  0.278E-03    2.65       5.6  T
   4    -63.1481209 -0.257408E-06  0.731E-04    2.64      21.1  T
   5    -63.1481209 -0.660187E-08  0.419E-04    2.64      36.8  T
     SCC iter.                  ...        0 min,  0.009 sec
     gradient                   ...        0 min,  0.062 sec
 * total energy  :   -62.2916655 Eh     change       -0.1795627E-04 Eh
   gradient norm :     0.0017692 Eh/α   predicted    -0.9084220E-05 ( -49.41%)
   displ. norm   :     0.1391226 α      lambda       -0.1362773E-04
   maximum displ.:     0.0742462 α      in ANC's #2, #1, #7, ...

........................................................................
.............................. CYCLE   20 ..............................
........................................................................

 iter      E             dE          RMSdq      gap      omega  full diag
   1    -63.1477153 -0.631477E+02  0.278E-02    2.63       0.0  T
   2    -63.1477158 -0.561163E-06  0.164E-02    2.63       1.0  T
   3    -63.1477156  0.237990E-06  0.335E-03    2.63       4.6  T
   4    -63.1477160 -0.359326E-06  0.869E-04    2.64      17.8  T
   5    -63.1477160 -0.111754E-07  0.497E-04    2.64      31.1  T
     SCC iter.                  ...        0 min,  0.009 sec
     gradient                   ...        0 min,  0.023 sec
 * total energy  :   -62.2916798 Eh     change       -0.1428716E-04 Eh
   gradient norm :     0.0012880 Eh/α   predicted    -0.6874214E-05 ( -51.89%)
   displ. norm   :     0.1798010 α      lambda       -0.2557646E-04
   maximum displ.:     0.1044977 α      in ANC's #1, #2, #4, ...
 * RMSD in coord.:     0.3705272 α      energy gain  -0.1012048E-01 Eh

generating ANC from exact Hessian ...
Using Lindh-Hessian (1995)
 Shifting diagonal of input Hessian by    9.4470682443474428E-003
 Lowest  eigenvalues of input Hessian
    0.000000    0.000000    0.000000    0.000000    0.000000    0.000000
    0.010000    0.010403    0.011100    0.011455    0.012195    0.012555
    0.013013    0.013910    0.014695    0.015599    0.017234    0.017736
 Highest eigenvalues
    1.869885    1.972881    2.014158    2.067862    2.173172    2.357878


........................................................................
.............................. CYCLE   21 ..............................
........................................................................

 iter      E             dE          RMSdq      gap      omega  full diag
   1    -63.1481518 -0.631482E+02  0.281E-02    2.64       0.0  T
   2    -63.1481525 -0.716222E-06  0.166E-02    2.64       1.0  T
   3    -63.1481522  0.346800E-06  0.366E-03    2.64       4.2  T
   4    -63.1481526 -0.415616E-06  0.105E-03    2.64      14.7  T
   5    -63.1481526 -0.398000E-07  0.358E-04    2.64      43.0  T
   6    -63.1481526 -0.107048E-08  0.185E-04    2.64      83.6  T
     SCC iter.                  ...        0 min,  0.011 sec
     gradient                   ...        0 min,  0.023 sec
 * total energy  :   -62.2917067 Eh     change       -0.2683121E-04 Eh
   gradient norm :     0.0021216 Eh/α   predicted     0.0000000E+00 (-100.00%)
   displ. norm   :     0.0242794 α      lambda       -0.1462284E-04
   maximum displ.:     0.0142117 α      in ANC's #5, #1, #12, ...

........................................................................
.............................. CYCLE   22 ..............................
........................................................................

 iter      E             dE          RMSdq      gap      omega  full diag
   1    -63.1480319 -0.631480E+02  0.629E-03    2.63       0.0  T
   2    -63.1480320 -0.786916E-07  0.379E-03    2.64       4.1  T
   3    -63.1480319  0.617079E-07  0.175E-03    2.63       8.8  T
   4    -63.1480320 -0.857402E-07  0.394E-04    2.63      39.2  T
   5    -63.1480320 -0.436406E-08  0.137E-04    2.63     112.7  T
     SCC iter.                  ...        0 min,  0.009 sec
     gradient                   ...        0 min,  0.056 sec
 * total energy  :   -62.2917188 Eh     change       -0.1218672E-04 Eh
   gradient norm :     0.0010592 Eh/α   predicted    -0.7421138E-05 ( -39.10%)
   displ. norm   :     0.1081545 α      lambda       -0.2605770E-04
   maximum displ.:     0.0659678 α      in ANC's #5, #1, #12, ...

........................................................................
.............................. CYCLE   23 ..............................
........................................................................

 iter      E             dE          RMSdq      gap      omega  full diag
   1    -63.1477032 -0.631477E+02  0.229E-02    2.63       0.0  T
   2    -63.1477038 -0.630254E-06  0.137E-02    2.63       1.1  T
   3    -63.1477029  0.894781E-06  0.569E-03    2.62       2.7  T
   4    -63.1477040 -0.110925E-05  0.107E-03    2.63      14.4  T
   5    -63.1477040 -0.304803E-07  0.411E-04    2.63      37.5  T
   6    -63.1477040 -0.193169E-08  0.222E-04    2.63      69.4  T
     SCC iter.                  ...        0 min,  0.011 sec
     gradient                   ...        0 min,  0.023 sec
 * total energy  :   -62.2917379 Eh     change       -0.1909811E-04 Eh
   gradient norm :     0.0021538 Eh/α   predicted    -0.1309672E-04 ( -31.42%)
   displ. norm   :     0.0320087 α      lambda       -0.8954958E-05
   maximum displ.:     0.0185037 α      in ANC's #5, #1, #4, ...

........................................................................
.............................. CYCLE   24 ..............................
........................................................................

 iter      E             dE          RMSdq      gap      omega  full diag
   1    -63.1478139 -0.631478E+02  0.572E-03    2.63       0.0  T
   2    -63.1478139 -0.108389E-07  0.341E-03    2.63       4.5  T
   3    -63.1478139  0.143983E-07  0.633E-04    2.63      24.4  T
   4    -63.1478139 -0.168321E-07  0.174E-04    2.63      88.9  T
     SCC iter.                  ...        0 min,  0.041 sec
     gradient                   ...        0 min,  0.023 sec
 * total energy  :   -62.2917463 Eh     change       -0.8351688E-05 Eh
   gradient norm :     0.0017495 Eh/α   predicted    -0.4482566E-05 ( -46.33%)
   displ. norm   :     0.2424812 α      lambda       -0.4206944E-04
   maximum displ.:     0.1322287 α      in ANC's #5, #1, #4, ...

........................................................................
.............................. CYCLE   25 ..............................
........................................................................

 iter      E             dE          RMSdq      gap      omega  full diag
   1    -63.1480232 -0.631480E+02  0.423E-02    2.63       0.0  T
   2    -63.1480238 -0.646737E-06  0.253E-02    2.63       1.0  T
   3    -63.1480223  0.149221E-05  0.616E-03    2.63       2.5  T
   4    -63.1480240 -0.170148E-05  0.134E-03    2.63      11.5  T
   5    -63.1480241 -0.483181E-07  0.566E-04    2.63      27.2  T
   6    -63.1480241 -0.168652E-08  0.275E-04    2.63      56.2  T
     SCC iter.                  ...        0 min,  0.011 sec
     gradient                   ...        0 min,  0.023 sec
 * total energy  :   -62.2917799 Eh     change       -0.3360415E-04 Eh
   gradient norm :     0.0026792 Eh/α   predicted    -0.2162877E-04 ( -35.64%)
   displ. norm   :     0.0622082 α      lambda       -0.1371376E-04
   maximum displ.:     0.0355354 α      in ANC's #5, #1, #4, ...

........................................................................
.............................. CYCLE   26 ..............................
........................................................................

 iter      E             dE          RMSdq      gap      omega  full diag
   1    -63.1480742 -0.631481E+02  0.106E-02    2.63       0.0  T
   2    -63.1480742 -0.232786E-07  0.632E-03    2.63       2.4  T
   3    -63.1480742  0.452158E-07  0.106E-03    2.63      14.5  T
   4    -63.1480742 -0.523041E-07  0.263E-04    2.63      58.6  T
   5    -63.1480742 -0.171649E-08  0.120E-04    2.63     128.2  T
     SCC iter.                  ...        0 min,  0.009 sec
     gradient                   ...        0 min,  0.023 sec
 * total energy  :   -62.2917919 Eh     change       -0.1196357E-04 Eh
   gradient norm :     0.0022488 Eh/α   predicted    -0.6883815E-05 ( -42.46%)
   displ. norm   :     0.1759659 α      lambda       -0.3920207E-04
   maximum displ.:     0.1007410 α      in ANC's #5, #1, #4, ...

........................................................................
.............................. CYCLE   27 ..............................
........................................................................

 iter      E             dE          RMSdq      gap      omega  full diag
   1    -63.1481079 -0.631481E+02  0.295E-02    2.61       0.0  T
   2    -63.1481081 -0.184463E-06  0.175E-02    2.62       1.0  T
   3    -63.1481079  0.195561E-06  0.246E-03    2.61       6.3  T
   4    -63.1481082 -0.239113E-06  0.713E-04    2.62      21.7  T
   5    -63.1481082 -0.123207E-07  0.335E-04    2.62      46.0  T
     SCC iter.                  ...        0 min,  0.009 sec
     gradient                   ...        0 min,  0.050 sec
 * total energy  :   -62.2918230 Eh     change       -0.3115044E-04 Eh
   gradient norm :     0.0011172 Eh/α   predicted    -0.2020904E-04 ( -35.12%)
   displ. norm   :     0.4918803 α      lambda       -0.4859911E-04
   maximum displ.:     0.2870522 α      in ANC's #5, #1, #4, ...

........................................................................
.............................. CYCLE   28 ..............................
........................................................................

 iter      E             dE          RMSdq      gap      omega  full diag
   1    -63.1455156 -0.631455E+02  0.821E-02    2.59       0.0  T
   2    -63.1455165 -0.861357E-06  0.487E-02    2.60       1.0  T
   3    -63.1455155  0.101218E-05  0.573E-03    2.59       2.7  T
   4    -63.1455168 -0.133427E-05  0.167E-03    2.59       9.2  T
   5    -63.1455168 -0.379609E-07  0.878E-04    2.60      17.6  T
   6    -63.1455169 -0.767065E-08  0.251E-04    2.59      61.5  T
     SCC iter.                  ...        0 min,  0.011 sec
     gradient                   ...        0 min,  0.023 sec
 * total energy  :   -62.2918559 Eh     change       -0.3288580E-04 Eh
   gradient norm :     0.0043836 Eh/α   predicted    -0.2691336E-04 ( -18.16%)
   displ. norm   :     0.0620987 α      lambda       -0.5078593E-04
   maximum displ.:     0.0311822 α      in ANC's #1, #5, #7, ...

........................................................................
.............................. CYCLE   29 ..............................
........................................................................

 iter      E             dE          RMSdq      gap      omega  full diag
   1    -63.1470073 -0.631470E+02  0.139E-02    2.60       0.0  T
   2    -63.1470076 -0.206426E-06  0.806E-03    2.60       1.9  T
   3    -63.1470075  0.918990E-08  0.137E-03    2.60      11.2  T
   4    -63.1470076 -0.224913E-07  0.569E-04    2.60      27.1  T
   5    -63.1470076 -0.881441E-08  0.241E-04    2.60      64.0  T
     SCC iter.                  ...        0 min,  0.009 sec
     gradient                   ...        0 min,  0.056 sec
 * total energy  :   -62.2918929 Eh     change       -0.3698163E-04 Eh
   gradient norm :     0.0023847 Eh/α   predicted    -0.2549716E-04 ( -31.05%)
   displ. norm   :     0.2962614 α      lambda       -0.6462121E-04
   maximum displ.:     0.1731816 α      in ANC's #5, #1, #4, ...

........................................................................
.............................. CYCLE   30 ..............................
........................................................................

 iter      E             dE          RMSdq      gap      omega  full diag
   1    -63.1475918 -0.631476E+02  0.501E-02    2.60       0.0  T
   2    -63.1475922 -0.411594E-06  0.297E-02    2.60       1.0  T
   3    -63.1475918  0.423568E-06  0.369E-03    2.60       4.2  T
   4    -63.1475924 -0.539050E-06  0.109E-03    2.60      14.1  T
   5    -63.1475924 -0.218903E-07  0.497E-04    2.60      31.0  T
   6    -63.1475924 -0.626777E-09  0.234E-04    2.60      66.0  T
     SCC iter.                  ...        0 min,  0.011 sec
     gradient                   ...        0 min,  0.023 sec
 * total energy  :   -62.2919500 Eh     change       -0.5712297E-04 Eh
   gradient norm :     0.0022504 Eh/α   predicted    -0.3514672E-04 ( -38.47%)
   displ. norm   :     0.6461964 α      lambda       -0.1534997E-03
   maximum displ.:     0.3839709 α      in ANC's #5, #1, #4, ...

........................................................................
.............................. CYCLE   31 ..............................
........................................................................

 iter      E             dE          RMSdq      gap      omega  full diag
   1    -63.1452880 -0.631453E+02  0.113E-01    2.59       0.0  T
   2    -63.1452898 -0.185953E-05  0.668E-02    2.59       1.0  T
   3    -63.1452881  0.169124E-05  0.774E-03    2.60       2.0  T
   4    -63.1452905 -0.235878E-05  0.242E-03    2.59       6.4  T
   5    -63.1452906 -0.682837E-07  0.118E-03    2.59      13.1  T
   6    -63.1452906 -0.841520E-08  0.477E-04    2.59      32.3  T
   7    -63.1452906 -0.537441E-08  0.175E-04    2.59      88.2  T
     SCC iter.                  ...        0 min,  0.013 sec
     gradient                   ...        0 min,  0.023 sec
 * total energy  :   -62.2920373 Eh     change       -0.8734043E-04 Eh
   gradient norm :     0.0071607 Eh/α   predicted    -0.1088024E-03 (  24.57%)
   displ. norm   :     0.2745581 α      lambda       -0.2671943E-03
   maximum displ.:     0.1316153 α      in ANC's #7, #12, #5, ...

........................................................................
.............................. CYCLE   32 ..............................
........................................................................

 iter      E             dE          RMSdq      gap      omega  full diag
   1    -63.1494335 -0.631494E+02  0.595E-02    2.60       0.0  T
   2    -63.1494350 -0.151686E-05  0.348E-02    2.60       1.0  T
   3    -63.1494350 -0.173134E-08  0.386E-03    2.61       4.0  T
   4    -63.1494353 -0.262827E-06  0.159E-03    2.61       9.7  T
   5    -63.1494353 -0.278018E-07  0.880E-04    2.61      17.5  T
   6    -63.1494353 -0.507732E-08  0.380E-04    2.61      40.6  T
     SCC iter.                  ...        0 min,  0.011 sec
     gradient                   ...        0 min,  0.044 sec
 * total energy  :   -62.2921818 Eh     change       -0.1444288E-03 Eh
   gradient norm :     0.0056140 Eh/α   predicted    -0.1436678E-03 (  -0.53%)
   displ. norm   :     0.5170397 α      lambda       -0.1743602E-03
   maximum displ.:     0.2981250 α      in ANC's #5, #1, #7, ...

........................................................................
.............................. CYCLE   33 ..............................
........................................................................

 iter      E             dE          RMSdq      gap      omega  full diag
   1    -63.1457791 -0.631458E+02  0.982E-02    2.60       0.0  T
   2    -63.1457806 -0.156035E-05  0.580E-02    2.60       1.0  T
   3    -63.1457807 -0.105594E-06  0.425E-03    2.60       3.6  T
   4    -63.1457811 -0.402530E-06  0.213E-03    2.60       7.2  T
   5    -63.1457812 -0.389718E-07  0.108E-03    2.60      14.3  T
   6    -63.1457812 -0.161911E-07  0.378E-04    2.60      40.8  T
   7    -63.1457812 -0.193531E-08  0.175E-04    2.60      88.0  T
     SCC iter.                  ...        0 min,  0.013 sec
     gradient                   ...        0 min,  0.023 sec
 * total energy  :   -62.2922796 Eh     change       -0.9784147E-04 Eh
   gradient norm :     0.0088561 Eh/α   predicted    -0.1104869E-03 (  12.92%)
   displ. norm   :     0.1608047 α      lambda       -0.2471983E-03
   maximum displ.:     0.0693225 α      in ANC's #5, #9, #12, ...

........................................................................
.............................. CYCLE   34 ..............................
........................................................................

 iter      E             dE          RMSdq      gap      omega  full diag
   1    -63.1475670 -0.631476E+02  0.451E-02    2.60       0.0  T
   2    -63.1475692 -0.225981E-05  0.263E-02    2.60       1.0  T
   3    -63.1475673  0.188712E-05  0.874E-03    2.60       1.8  T
   4    -63.1475697 -0.230783E-05  0.230E-03    2.60       6.7  T
   5    -63.1475698 -0.152830E-06  0.902E-04    2.60      17.1  T
   6    -63.1475698 -0.353369E-08  0.469E-04    2.60      32.9  T
     SCC iter.                  ...        0 min,  0.011 sec
     gradient                   ...        0 min,  0.045 sec
 * total energy  :   -62.2924128 Eh     change       -0.1331696E-03 Eh
   gradient norm :     0.0055410 Eh/α   predicted    -0.1267955E-03 (  -4.79%)
   displ. norm   :     0.2890392 α      lambda       -0.1368028E-03
   maximum displ.:     0.1561144 α      in ANC's #5, #7, #12, ...

........................................................................
.............................. CYCLE   35 ..............................
........................................................................

 iter      E             dE          RMSdq      gap      omega  full diag
   1    -63.1464425 -0.631464E+02  0.647E-02    2.59       0.0  T
   2    -63.1464432 -0.649041E-06  0.381E-02    2.59       1.0  T
   3    -63.1464431  0.762981E-07  0.329E-03    2.60       4.7  T
   4    -63.1464434 -0.268005E-06  0.153E-03    2.60      10.1  T
   5    -63.1464434 -0.329694E-07  0.718E-04    2.60      21.5  T
   6    -63.1464434 -0.740611E-08  0.239E-04    2.60      64.5  T
     SCC iter.                  ...        0 min,  0.011 sec
     gradient                   ...        0 min,  0.023 sec
 * total energy  :   -62.2925131 Eh     change       -0.1003024E-03 Eh
   gradient norm :     0.0055951 Eh/α   predicted    -0.7411822E-04 ( -26.11%)
   displ. norm   :     0.2532319 α      lambda       -0.1629137E-03
   maximum displ.:     0.1265659 α      in ANC's #5, #12, #3, ...

........................................................................
.............................. CYCLE   36 ..............................
........................................................................

 iter      E             dE          RMSdq      gap      omega  full diag
   1    -63.1478926 -0.631479E+02  0.603E-02    2.60       0.0  T
   2    -63.1478951 -0.251986E-05  0.352E-02    2.60       1.0  T
   3    -63.1478947  0.476349E-06  0.569E-03    2.60       2.7  T
   4    -63.1478954 -0.713164E-06  0.165E-03    2.60       9.4  T
   5    -63.1478954 -0.643523E-07  0.853E-04    2.60      18.1  T
   6    -63.1478955 -0.135333E-07  0.387E-04    2.60      39.9  T
     SCC iter.                  ...        0 min,  0.039 sec
     gradient                   ...        0 min,  0.023 sec
 * total energy  :   -62.2925993 Eh     change       -0.8620427E-04 Eh
   gradient norm :     0.0039506 Eh/α   predicted    -0.8668246E-04 (   0.55%)
   displ. norm   :     0.3578698 α      lambda       -0.1249150E-03
   maximum displ.:     0.2283527 α      in ANC's #5, #1, #9, ...

........................................................................
.............................. CYCLE   37 ..............................
........................................................................

 iter      E             dE          RMSdq      gap      omega  full diag
   1    -63.1449600 -0.631450E+02  0.753E-02    2.59       0.0  T
   2    -63.1449611 -0.103313E-05  0.444E-02    2.59       1.0  T
   3    -63.1449611 -0.788262E-07  0.315E-03    2.60       4.9  T
   4    -63.1449613 -0.183668E-06  0.175E-03    2.60       8.8  T
   5    -63.1449614 -0.506475E-07  0.852E-04    2.60      18.1  T
   6    -63.1449614 -0.610702E-08  0.304E-04    2.60      50.8  T
     SCC iter.                  ...        0 min,  0.011 sec
     gradient                   ...        0 min,  0.023 sec
 * total energy  :   -62.2926441 Eh     change       -0.4477448E-04 Eh
   gradient norm :     0.0076041 Eh/α   predicted    -0.7045702E-04 (  57.36%)
   displ. norm   :     0.1020139 α      lambda       -0.1647750E-03
   maximum displ.:     0.0558676 α      in ANC's #7, #12, #1, ...

........................................................................
.............................. CYCLE   38 ..............................
........................................................................

 iter      E             dE          RMSdq      gap      omega  full diag
   1    -63.1492487 -0.631492E+02  0.288E-02    2.61       0.0  T
   2    -63.1492525 -0.379573E-05  0.166E-02    2.61       1.0  T
   3    -63.1492525  0.404356E-09  0.653E-03    2.61       2.4  T
   4    -63.1492527 -0.249761E-06  0.124E-03    2.61      12.4  T
   5    -63.1492527 -0.330529E-07  0.499E-04    2.61      30.9  T
   6    -63.1492527 -0.143210E-08  0.298E-04    2.61      51.8  T
     SCC iter.                  ...        0 min,  0.011 sec
     gradient                   ...        0 min,  0.023 sec
 * total energy  :   -62.2927123 Eh     change       -0.6825627E-04 Eh
   gradient norm :     0.0067518 Eh/α   predicted    -0.8324406E-04 (  21.96%)
   displ. norm   :     0.1030535 α      lambda       -0.1146683E-03
   maximum displ.:     0.0710173 α      in ANC's #5, #12, #2, ...

........................................................................
.............................. CYCLE   39 ..............................
........................................................................

 iter      E             dE          RMSdq      gap      omega  full diag
   1    -63.1499679 -0.631500E+02  0.281E-02    2.60       0.0  T
   2    -63.1499688 -0.954361E-06  0.164E-02    2.61       1.0  T
   3    -63.1499686  0.213098E-06  0.395E-03    2.60       3.9  T
   4    -63.1499690 -0.332292E-06  0.121E-03    2.61      12.8  T
   5    -63.1499690 -0.338907E-07  0.581E-04    2.61      26.5  T
   6    -63.1499690 -0.293627E-08  0.285E-04    2.61      54.2  T
     SCC iter.                  ...        0 min,  0.052 sec
     gradient                   ...        0 min,  0.023 sec
 * total energy  :   -62.2927859 Eh     change       -0.7362280E-04 Eh
   gradient norm :     0.0031990 Eh/α   predicted    -0.5794574E-04 ( -21.29%)
   displ. norm   :     0.3001766 α      lambda       -0.1158524E-03
   maximum displ.:     0.2185313 α      in ANC's #5, #2, #8, ...

........................................................................
.............................. CYCLE   40 ..............................
........................................................................

 iter      E             dE          RMSdq      gap      omega  full diag
   1    -63.1482916 -0.631483E+02  0.644E-02    2.60       0.0  T
   2    -63.1482931 -0.152222E-05  0.382E-02    2.60       1.0  T
   3    -63.1482924  0.752213E-06  0.562E-03    2.60       2.7  T
   4    -63.1482934 -0.107683E-05  0.182E-03    2.60       8.5  T
   5    -63.1482935 -0.594111E-07  0.980E-04    2.60      15.7  T
   6    -63.1482935 -0.116300E-07  0.387E-04    2.60      39.8  T
     SCC iter.                  ...        0 min,  0.011 sec
     gradient                   ...        0 min,  0.068 sec
 * total energy  :   -62.2928658 Eh     change       -0.7987047E-04 Eh
   gradient norm :     0.0039235 Eh/α   predicted    -0.6314812E-04 ( -20.94%)
   displ. norm   :     0.2086285 α      lambda       -0.9412206E-04
   maximum displ.:     0.1607795 α      in ANC's #5, #2, #11, ...

........................................................................
.............................. CYCLE   41 ..............................
........................................................................

 iter      E             dE          RMSdq      gap      omega  full diag
   1    -63.1482224 -0.631482E+02  0.441E-02    2.61       0.0  T
   2    -63.1482230 -0.571441E-06  0.260E-02    2.61       1.0  T
   3    -63.1482227  0.268752E-06  0.345E-03    2.61       4.5  T
   4    -63.1482231 -0.396617E-06  0.117E-03    2.61      13.2  T
   5    -63.1482231 -0.240397E-07  0.600E-04    2.61      25.7  T
   6    -63.1482231 -0.362730E-08  0.246E-04    2.61      62.7  T
     SCC iter.                  ...        0 min,  0.011 sec
     gradient                   ...        0 min,  0.074 sec
 * total energy  :   -62.2929304 Eh     change       -0.6456268E-04 Eh
   gradient norm :     0.0042557 Eh/α   predicted    -0.4911117E-04 ( -23.93%)
   displ. norm   :     0.1418752 α      lambda       -0.6666422E-04
   maximum displ.:     0.0967729 α      in ANC's #5, #11, #2, ...

........................................................................
.............................. CYCLE   42 ..............................
........................................................................

 iter      E             dE          RMSdq      gap      omega  full diag
   1    -63.1491466 -0.631491E+02  0.298E-02    2.61       0.0  T
   2    -63.1491469 -0.284317E-06  0.175E-02    2.62       1.0  T
   3    -63.1491469  0.236999E-07  0.198E-03    2.62       7.8  T
   4    -63.1491470 -0.939343E-07  0.685E-04    2.62      22.5  T
   5    -63.1491470 -0.223315E-08  0.411E-04    2.62      37.6  T
     SCC iter.                  ...        0 min,  0.009 sec
     gradient                   ...        0 min,  0.023 sec
 * total energy  :   -62.2929715 Eh     change       -0.4117220E-04 Eh
   gradient norm :     0.0028193 Eh/α   predicted    -0.3400508E-04 ( -17.41%)
   displ. norm   :     0.1347833 α      lambda       -0.3574986E-04
   maximum displ.:     0.0989609 α      in ANC's #5, #2, #1, ...
 * RMSD in coord.:     0.6407996 α      energy gain  -0.1291722E-02 Eh

generating ANC from exact Hessian ...
Using Lindh-Hessian (1995)
 Shifting diagonal of input Hessian by    9.4539484177847063E-003
 Lowest  eigenvalues of input Hessian
    0.000000    0.000000    0.000000    0.000000    0.000000    0.000000
    0.010000    0.010415    0.011090    0.011538    0.012037    0.012299
    0.013179    0.013576    0.014528    0.015547    0.017162    0.018009
 Highest eigenvalues
    1.870822    1.977982    2.015977    2.073715    2.176694    2.363068


........................................................................
.............................. CYCLE   43 ..............................
........................................................................

 iter      E             dE          RMSdq      gap      omega  full diag
   1    -63.1489792 -0.631490E+02  0.260E-02    2.62       0.0  T
   2    -63.1489797 -0.511178E-06  0.153E-02    2.62       1.0  T
   3    -63.1489796  0.107329E-06  0.275E-03    2.62       5.6  T
   4    -63.1489798 -0.175658E-06  0.702E-04    2.62      22.0  T
   5    -63.1489798 -0.761122E-08  0.371E-04    2.62      41.6  T
     SCC iter.                  ...        0 min,  0.009 sec
     gradient                   ...        0 min,  0.023 sec
 * total energy  :   -62.2929905 Eh     change       -0.1895035E-04 Eh
   gradient norm :     0.0029604 Eh/α   predicted     0.0000000E+00 (-100.00%)
   displ. norm   :     0.0385497 α      lambda       -0.4067280E-04
   maximum displ.:     0.0175308 α      in ANC's #9, #12, #3, ...

........................................................................
.............................. CYCLE   44 ..............................
........................................................................

 iter      E             dE          RMSdq      gap      omega  full diag
   1    -63.1497082 -0.631497E+02  0.110E-02    2.61       0.0  T
   2    -63.1497084 -0.134120E-06  0.644E-03    2.61       2.4  T
   3    -63.1497083  0.344919E-07  0.133E-03    2.61      11.6  T
   4    -63.1497084 -0.455625E-07  0.487E-04    2.61      31.7  T
   5    -63.1497084 -0.816034E-08  0.206E-04    2.61      74.8  T
     SCC iter.                  ...        0 min,  0.044 sec
     gradient                   ...        0 min,  0.023 sec
 * total energy  :   -62.2930218 Eh     change       -0.3128892E-04 Eh
   gradient norm :     0.0011095 Eh/α   predicted    -0.2050255E-04 ( -34.47%)
   displ. norm   :     0.1363465 α      lambda       -0.4932991E-04
   maximum displ.:     0.0594903 α      in ANC's #9, #4, #12, ...

........................................................................
.............................. CYCLE   45 ..............................
........................................................................

 iter      E             dE          RMSdq      gap      omega  full diag
   1    -63.1504419 -0.631504E+02  0.306E-02    2.60       0.0  T
   2    -63.1504423 -0.429177E-06  0.181E-02    2.60       1.0  T
   3    -63.1504419  0.397530E-06  0.329E-03    2.60       4.7  T
   4    -63.1504424 -0.490255E-06  0.109E-03    2.60      14.2  T
   5    -63.1504425 -0.344021E-07  0.506E-04    2.60      30.5  T
   6    -63.1504425 -0.157589E-08  0.252E-04    2.60      61.2  T
     SCC iter.                  ...        0 min,  0.011 sec
     gradient                   ...        0 min,  0.074 sec
 * total energy  :   -62.2930640 Eh     change       -0.4226191E-04 Eh
   gradient norm :     0.0024869 Eh/α   predicted    -0.2487026E-04 ( -41.15%)
   displ. norm   :     0.0676237 α      lambda       -0.2357340E-04
   maximum displ.:     0.0337252 α      in ANC's #4, #9, #3, ...

........................................................................
.............................. CYCLE   46 ..............................
........................................................................

 iter      E             dE          RMSdq      gap      omega  full diag
   1    -63.1501216 -0.631501E+02  0.142E-02    2.60       0.0  T
   2    -63.1501217 -0.706681E-07  0.836E-03    2.59       1.8  T
   3    -63.1501216  0.388002E-07  0.124E-03    2.59      12.5  T
   4    -63.1501217 -0.601070E-07  0.485E-04    2.59      31.8  T
   5    -63.1501217 -0.445770E-08  0.262E-04    2.59      59.0  T
     SCC iter.                  ...        0 min,  0.009 sec
     gradient                   ...        0 min,  0.023 sec
 * total energy  :   -62.2930840 Eh     change       -0.1992235E-04 Eh
   gradient norm :     0.0018093 Eh/α   predicted    -0.1184103E-04 ( -40.56%)
   displ. norm   :     0.2146557 α      lambda       -0.3943359E-04
   maximum displ.:     0.1134096 α      in ANC's #4, #9, #3, ...

........................................................................
.............................. CYCLE   47 ..............................
........................................................................

 iter      E             dE          RMSdq      gap      omega  full diag
   1    -63.1487589 -0.631488E+02  0.464E-02    2.59       0.0  T
   2    -63.1487597 -0.829173E-06  0.274E-02    2.58       1.0  T
   3    -63.1487594  0.329495E-06  0.397E-03    2.58       3.9  T
   4    -63.1487599 -0.551051E-06  0.172E-03    2.58       9.0  T
   5    -63.1487600 -0.642740E-07  0.880E-04    2.58      17.5  T
   6    -63.1487600 -0.361091E-08  0.341E-04    2.58      45.2  T
     SCC iter.                  ...        0 min,  0.011 sec
     gradient                   ...        0 min,  0.023 sec
 * total energy  :   -62.2931015 Eh     change       -0.1755227E-04 Eh
   gradient norm :     0.0024493 Eh/α   predicted    -0.2012355E-04 (  14.65%)
   displ. norm   :     0.0352286 α      lambda       -0.1537591E-04
   maximum displ.:     0.0190103 α      in ANC's #9, #12, #3, ...

........................................................................
.............................. CYCLE   48 ..............................
........................................................................

 iter      E             dE          RMSdq      gap      omega  full diag
   1    -63.1494350 -0.631494E+02  0.842E-03    2.59       0.0  T
   2    -63.1494351 -0.757328E-07  0.493E-03    2.59       3.1  T
   3    -63.1494351  0.125110E-07  0.896E-04    2.59      17.2  T
   4    -63.1494351 -0.170048E-07  0.364E-04    2.59      42.4  T
     SCC iter.                  ...        0 min,  0.007 sec
     gradient                   ...        0 min,  0.062 sec
 * total energy  :   -62.2931122 Eh     change       -0.1072498E-04 Eh
   gradient norm :     0.0011326 Eh/α   predicted    -0.7698243E-05 ( -28.22%)
   displ. norm   :     0.0404659 α      lambda       -0.9925800E-05
   maximum displ.:     0.0195823 α      in ANC's #16, #4, #12, ...

........................................................................
.............................. CYCLE   49 ..............................
........................................................................

 iter      E             dE          RMSdq      gap      omega  full diag
   1    -63.1500913 -0.631501E+02  0.123E-02    2.59       0.0  T
   2    -63.1500914 -0.953892E-07  0.719E-03    2.59       2.1  T
   3    -63.1500914  0.486323E-07  0.140E-03    2.59      11.0  T
   4    -63.1500914 -0.626103E-07  0.453E-04    2.59      34.0  T
   5    -63.1500914 -0.543414E-08  0.186E-04    2.59      83.0  T
     SCC iter.                  ...        0 min,  0.009 sec
     gradient                   ...        0 min,  0.068 sec
 * total energy  :   -62.2931210 Eh     change       -0.8733518E-05 Eh
   gradient norm :     0.0007830 Eh/α   predicted    -0.4967466E-05 ( -43.12%)
   displ. norm   :     0.0533886 α      lambda       -0.5173738E-05
   maximum displ.:     0.0376103 α      in ANC's #4, #5, #6, ...

........................................................................
.............................. CYCLE   50 ..............................
........................................................................

 iter      E             dE          RMSdq      gap      omega  full diag
   1    -63.1500307 -0.631500E+02  0.135E-02    2.59       0.0  T
   2    -63.1500308 -0.565341E-07  0.793E-03    2.59       1.9  T
   3    -63.1500307  0.105635E-06  0.186E-03    2.59       8.3  T
   4    -63.1500308 -0.136978E-06  0.435E-04    2.59      35.5  T
   5    -63.1500308 -0.195794E-08  0.249E-04    2.59      62.1  T
     SCC iter.                  ...        0 min,  0.009 sec
     gradient                   ...        0 min,  0.023 sec
 * total energy  :   -62.2931276 Eh     change       -0.6641457E-05 Eh
   gradient norm :     0.0008144 Eh/α   predicted    -0.2598155E-05 ( -60.88%)
   displ. norm   :     0.0971613 α      lambda       -0.8384844E-05
   maximum displ.:     0.0657546 α      in ANC's #4, #5, #6, ...

........................................................................
.............................. CYCLE   51 ..............................
........................................................................

 iter      E             dE          RMSdq      gap      omega  full diag
   1    -63.1496783 -0.631497E+02  0.252E-02    2.58       0.0  T
   2    -63.1496785 -0.165270E-06  0.148E-02    2.58       1.0  T
   3    -63.1496781  0.452614E-06  0.365E-03    2.58       4.2  T
   4    -63.1496786 -0.568312E-06  0.777E-04    2.58      19.9  T
   5    -63.1496786 -0.332233E-08  0.448E-04    2.58      34.5  T
     SCC iter.                  ...        0 min,  0.009 sec
     gradient                   ...        0 min,  0.054 sec
 * total energy  :   -62.2931366 Eh     change       -0.8976880E-05 Eh
   gradient norm :     0.0008583 Eh/α   predicted    -0.4212574E-05 ( -53.07%)
   displ. norm   :     0.0981677 α      lambda       -0.6290555E-05
   maximum displ.:     0.0666321 α      in ANC's #4, #5, #6, ...

........................................................................
.............................. CYCLE   52 ..............................
........................................................................

 iter      E             dE          RMSdq      gap      omega  full diag
   1    -63.1494583 -0.631495E+02  0.225E-02    2.58       0.0  T
   2    -63.1494585 -0.284530E-06  0.132E-02    2.58       1.2  T
   3    -63.1494583  0.248026E-06  0.296E-03    2.58       5.2  T
   4    -63.1494586 -0.325461E-06  0.946E-04    2.58      16.3  T
   5    -63.1494586 -0.216659E-07  0.456E-04    2.58      33.9  T
     SCC iter.                  ...        0 min,  0.009 sec
     gradient                   ...        0 min,  0.023 sec
 * total energy  :   -62.2931427 Eh     change       -0.6067151E-05 Eh
   gradient norm :     0.0008868 Eh/α   predicted    -0.3163017E-05 ( -47.87%)
   displ. norm   :     0.0664902 α      lambda       -0.3238368E-05
   maximum displ.:     0.0461476 α      in ANC's #4, #5, #6, ...

........................................................................
.............................. CYCLE   53 ..............................
........................................................................

 iter      E             dE          RMSdq      gap      omega  full diag
   1    -63.1495283 -0.631495E+02  0.158E-02    2.58       0.0  T
   2    -63.1495284 -0.589538E-07  0.929E-03    2.58       1.7  T
   3    -63.1495283  0.471268E-07  0.145E-03    2.58      10.6  T
   4    -63.1495284 -0.842353E-07  0.511E-04    2.58      30.2  T
   5    -63.1495284 -0.834262E-09  0.280E-04    2.58      55.0  T
     SCC iter.                  ...        0 min,  0.009 sec
     gradient                   ...        0 min,  0.023 sec
 * total energy  :   -62.2931464 Eh     change       -0.3774050E-05 Eh
   gradient norm :     0.0006449 Eh/α   predicted    -0.1624604E-05 ( -56.95%)
   displ. norm   :     0.0731243 α      lambda       -0.2743834E-05
   maximum displ.:     0.0511069 α      in ANC's #4, #5, #6, ...

   *** GEOMETRY OPTIMIZATION CONVERGED AFTER 53 ITERATIONS ***

------------------------------------------------------------------------
 total energy gain   :        -0.0115871 Eh       -7.2710 kcal/mol
 total RMSD          :         0.9072505 a0        0.4801 Å
 total power (kW/mol):        -0.5739982 (step)   -8.2119 (real)
------------------------------------------------------------------------

 ANCopt (total)                0 d,  0 h,  0 min,  3.705 sec
 optimizer setup                ...        0 min,  0.000 sec (  0.002%)
 model hessian                  ...        0 min,  0.107 sec (  2.899%)
 ANC generation                 ...        0 min,  0.004 sec (  0.121%)
 coordinate transformation      ...        0 min,  0.000 sec (  0.010%)
 single point calculation       ...        0 min,  3.579 sec ( 96.606%)
 optimization log               ...        0 min,  0.007 sec (  0.184%)
 hessian update                 ...        0 min,  0.001 sec (  0.018%)
 rational function              ...        0 min,  0.004 sec (  0.116%)

================
 final structure:
================
42
 xtb: 6.7.1 (edcfbbe)
C            3.33556547979219        1.61087379723026        1.11300145753447
C            3.02563197613109        1.84855440975561       -0.36642684792600
C            2.63229592460442        0.56795439049967       -1.04635271694346
C            3.50402798685709       -0.14867733306723       -1.84243589131587
C            3.13906228622652       -1.35694051164855       -2.44388422589414
C            1.88504306014490       -1.89444337520344       -2.27134725640077
C            0.97350475715822       -1.19924744997500       -1.47617472235025
C            1.35998109835443        0.02236614803575       -0.87105616824638
N            0.30326136883899        0.48969766372198       -0.14352616441370
C           -0.74380811488025       -0.38257675143014       -0.28190245292104
C           -0.37690952608246       -1.42767025526226       -1.08477517636037
C           -1.33259291701819       -2.50846590218607       -1.46328543014194
C           -2.51273197516408       -2.43998957393537       -0.48985259628188
O           -3.00446500854914       -1.12652409263890       -0.31421136901954
C           -2.10618343433930       -0.20616339109708        0.31566691745475
C           -2.15403741806998       -0.42625050263562        1.85113163087189
C           -0.89709176247545       -0.03451409484314        2.61959631922630
C           -2.70416338360406        1.17785952335469       -0.06086355389303
C           -2.22846884197851        2.31905406856956        0.79119350154914
O           -3.19977269782283        2.80037753574670        1.56667612788242
O           -1.11569353087891        2.78678102302994        0.80166437111771
H            4.15860893958966        0.90705743944601        1.21586773385505
H            3.61347462515880        2.54386385915848        1.59847533849663
H            2.46910162008844        1.19863506225639        1.62502177525568
H            2.21512993599967        2.57700501173390       -0.45201137127358
H            3.90773785600555        2.26520778966069       -0.85644476822093
H            4.50002324466047        0.23698611339398       -2.00871643939473
H            3.86427784009447       -1.87264803988952       -3.05673542060922
H            1.60691151268940       -2.82789026183397       -2.73755571858732
H            0.23520334397179        1.39948641491401        0.28619224715741
H           -1.68230456540616       -2.34865492259764       -2.48789120732308
H           -0.86606611273388       -3.49407307465058       -1.41393376506522
H           -2.20564339819795       -2.86820372895190        0.47507923186059
H           -3.36846702581502       -3.00625056978042       -0.86383275905682
H           -2.33879847782445       -1.48859388578888        2.02314887415573
H           -3.01769429114006        0.11429593582457        2.24440730572500
H           -0.03918732740272       -0.60698055354771        2.27443866922232
H           -0.67170189566521        1.02308540046101        2.51540824436704
H           -1.04352164037021       -0.24457164129032        3.67742561469568
H           -3.78656707056188        1.09291310823237        0.03494738487933
H           -2.45103178038004        1.38429939164365       -1.10237393635069
H           -2.88204066000469        3.54297582558062        2.10614721268864

 Bond Distances (Angstroems)
 ---------------------------
C1-C2=1.5301         C1-H22=1.0878        C1-H23=1.0878        C1-H24=1.0876        C2-C1=1.5301         C2-C3=1.5023         
C2-H25=1.0931        C2-H26=1.0917        C3-C2=1.5023         C3-C4=1.3810         C3-C8=1.3954         C4-C3=1.3810         
C4-C5=1.3982         C4-H27=1.0809        C5-C4=1.3982         C5-C6=1.3752         C5-H28=1.0805        C6-C5=1.3752         
C6-C7=1.3952         C6-H29=1.0798        C7-C6=1.3952         C7-C8=1.4170         C7-C11=1.4244        C8-C3=1.3954         
C8-C7=1.4170         C8-N9=1.3654         N9-C8=1.3654         N9-C10=1.3698        N9-H30=1.0085        C10-N9=1.3698        
C10-C11=1.3680       C10-C15=1.4981       C11-C7=1.4244        C11-C10=1.3680       C11-C12=1.4915       C12-C11=1.4915       
C12-C13=1.5313       C12-H31=1.0944       C12-H32=1.0916       C13-C12=1.5313       C13-O14=1.4135       C13-H33=1.0994       
C13-H34=1.0922       O14-C13=1.4135       O14-C15=1.4320       C15-C10=1.4981       C15-O14=1.4320       C15-C16=1.5519       
C15-C18=1.5540       C16-C15=1.5519       C16-C17=1.5244       C16-H35=1.0919       C16-H36=1.0921       C17-C16=1.5244       
C17-H37=1.0876       C17-H38=1.0864       C17-H39=1.0884       C18-C15=1.5540       C18-C19=1.5015       C18-H40=1.0900       
C18-H41=1.0915       C19-C18=1.5015       C19-O20=1.3328       C19-O21=1.2071       O20-C19=1.3328       O20-H42=0.9713       
O21-C19=1.2071       H22-C1=1.0878        H23-C1=1.0878        H24-C1=1.0876        H25-C2=1.0931        H26-C2=1.0917        
H27-C4=1.0809        H28-C5=1.0805        H29-C6=1.0798        H30-N9=1.0085        H31-C12=1.0944       H32-C12=1.0916       
H33-C13=1.0994       H34-C13=1.0922       H35-C16=1.0919       H36-C16=1.0921       H37-C17=1.0876       H38-C17=1.0864       
H39-C17=1.0884       H40-C18=1.0900       H41-C18=1.0915       H42-O20=0.9713       
 C  H  Rav=1.0892 sigma=0.0048  Rmin=1.0798  Rmax=1.0994    19
 C  C  Rav=1.4612 sigma=0.0662  Rmin=1.3680  Rmax=1.5540    17
 N  H  Rav=1.0085 sigma=0.0000  Rmin=1.0085  Rmax=1.0085     1
 N  C  Rav=1.3676 sigma=0.0022  Rmin=1.3654  Rmax=1.3698     2
 O  H  Rav=0.9713 sigma=0.0000  Rmin=0.9713  Rmax=0.9713     1
 O  C  Rav=1.3464 sigma=0.0886  Rmin=1.2071  Rmax=1.4320     4

 selected bond angles (degree)
 --------------------
H22-C1-C2=110.19               H23-C1-C2=110.49               H23-C1-H22=108.63              H24-C1-C2=110.65               
H24-C1-H22=108.24              H24-C1-H23=108.57              C3-C2-C1=110.99                H25-C2-C1=109.23               
H25-C2-C3=109.78               H26-C2-C1=109.24               H26-C2-C3=109.50               H26-C2-H25=108.04              
C4-C3-C2=122.54                C8-C3-C2=121.01                C8-C3-C4=116.43                C5-C4-C3=122.12                
H27-C4-C3=119.02               H27-C4-C5=118.86               C6-C5-C4=121.45                H28-C5-C4=118.77               
[...]
   for GFN-FF:
   * S. Spicher and S. Grimme, Angew. Chem. Int. Ed., 2020, 59, 15665-15673.
     DOI: 10.1002/anie.202004239
   
   for ALPB and GBSA implicit solvation:
   * S. Ehlert, M. Stahn, S. Spicher, S. Grimme, J. Chem. Theory Comput.,
     2021, 17, 4250-4261. DOI: 10.1021/acs.jctc.1c00471
   
   for ddCOSMO and CPCM-X implicit solvation:
   * M. Stahn, S. Ehlert, S. Grimme, J. Phys. Chem. A,
     2023, XX, XXXX-XXXX. DOI: 10.1021/acs.jpca.3c04382
   
   for DFT-D4:
   * E. Caldeweyher, C. Bannwarth and S. Grimme, J. Chem. Phys., 2017,
     147, 034112. DOI: 10.1063/1.4993215
   * E. Caldeweyher, S. Ehlert, A. Hansen, H. Neugebauer, S. Spicher,
     C. Bannwarth and S. Grimme, J. Chem. Phys., 2019, 150, 154122.
     DOI: 10.1063/1.5090222
   * E. Caldeweyher, J.-M. Mewes, S. Ehlert and S. Grimme, Phys. Chem. Chem. Phys.
     2020, 22, 8499-8512. DOI: 10.1039/D0CP00502A
   
   for sTDA-xTB:
   * S. Grimme and C. Bannwarth, J. Chem. Phys., 2016, 145, 054103.
     DOI: 10.1063/1.4959605
   
   in the mass-spec context:
   * V. Asgeirsson, C. Bauer and S. Grimme, Chem. Sci., 2017, 8, 4879.
     DOI: 10.1039/c7sc00601b
   * J. Koopman and S. Grimme, ACS Omega 2019, 4, 12, 15120-15133.
     DOI: 10.1021/acsomega.9b02011
   
   for metadynamics refer to:
   * S. Grimme, J. Chem. Theory Comput., 2019, 155, 2847-2862
     DOI: 10.1021/acs.jctc.9b00143
   
   for SPH calculations refer to:
   * S. Spicher and S. Grimme, J. Chem. Theory Comput., 2021, 17, 1701-1714
     DOI: 10.1021/acs.jctc.0c01306
   
   for ONIOM refer to:
   * C. Plett, A. Katbashev, S. Ehlert, S. Grimme, M. Bursch,
     Phys. Chem. Chem. Phys., 2023, 25, 17860-17868. DOI: 10.1039/D3CP02178E
   
   for DIPRO refer to:
   * J. Kohn, N. Gildemeister, S. Grimme, D. Fazzi, A. Hansen,
     J. Chem. Phys., 2023, just accepted.
   
   for PTB refer to:
   * S. Grimme, M. Mueller, A. Hansen, J. Chem. Phys., 2023, 158, 124111.
     DOI: 10.1063/5.0137838
   
   with help from (in alphabetical order)
   P. Atkinson, C. Bannwarth, F. Bohle, G. Brandenburg, E. Caldeweyher
   M. Checinski, S. Dohm, S. Ehlert, S. Ehrlich, I. Gerasimov, C. Hölzer
   A. Katbashev, J. Kohn, J. Koopman, C. Lavigne, S. Lehtola, F. März, M. Müller,
   F. Musil, H. Neugebauer, J. Pisarek, C. Plett, P. Pracht, F. Pultar,
   J. Seibert, P. Shushkov, S. Spicher, M. Stahn, M. Steiner, T. Strunk,
   J. Stückrath, T. Rose, and J. Unsleber
   
 * started run on 2025/05/15 at 16:26:30.804     
   ID    Z sym.   atoms
    1    6 C      1-8, 10-13, 15-19
    2    7 N      9
    3    8 O      14, 20, 21
    4    1 H      22-42

           -------------------------------------------------
          |                Calculation Setup                |
           -------------------------------------------------

          program call               : xtb /rds/general/user/hgt20/home/callum/QDESCP/Etodolac_rdkit_conf_11/Etodolac_rdkit_conf_11.xyz --acc 1 --gfn 2 --chrg 0 --uhf 2 --etemp 300 --input /rds/general/user/hgt20/home/callum/QDESCP/Etodolac_rdkit_conf_11/Etodolac_rdkit_conf_11_xtb.inp -P 1
          hostname                   : login-c
          coordinate file            : /rds/general/user/hgt20/home/callum/QDESCP/Etodolac_rdkit_conf_11/Etodolac_rdkit_conf_11.xyz
          omp threads                :                     1


           -------------------------------------------------
          |                 G F N 2 - x T B                 |
           -------------------------------------------------

        Reference                      10.1021/acs.jctc.8b01176
      * Hamiltonian:
        H0-scaling (s, p, d)           1.850000    2.230000    2.230000
        zeta-weighting                 0.500000
      * Dispersion:
        s8                             2.700000
        a1                             0.520000
        a2                             5.000000
        s9                             5.000000
      * Repulsion:
        kExp                           1.500000    1.000000
        rExp                           1.000000
      * Coulomb:
        alpha                          2.000000
        third order                    shell-resolved
        anisotropic                    true
        a3                             3.000000
        a5                             4.000000
        cn-shift                       1.200000
        cn-exp                         4.000000
        max-rad                        5.000000


          ...................................................
          :                      SETUP                      :
          :.................................................:
          :  # basis functions                 105          :
          :  # atomic orbitals                 105          :
          :  # shells                           63          :
          :  # electrons                       112          :
          :  max. iterations                   250          :
          :  Hamiltonian                  GFN2-xTB          :
          :  restarted?                      false          :
          :  GBSA solvation                  false          :
          :  PC potential                    false          :
          :  electronic temp.          300.0000000     K    :
          :  accuracy                    1.0000000          :
          :  -> integral cutoff          0.2500000E+02      :
          :  -> integral neglect         0.1000000E-07      :
          :  -> SCF convergence          0.1000000E-05 Eh   :
          :  -> wf. convergence          0.1000000E-03 e    :
          :  Broyden damping             0.4000000          :
          :  net charge                          0          :
          :  unpaired electrons                  2          :
          ...................................................

 iter      E             dE          RMSdq      gap      omega  full diag
   1    -62.8295139 -0.628295E+02  0.368E+00    0.95       0.0  T
   2    -62.7299354  0.995785E-01  0.311E+00    1.05       1.0  T
   3    -62.6186594  0.111276E+00  0.216E+00    0.91       1.0  T
   4    -62.8203993 -0.201740E+00  0.204E+00    1.22       1.0  T
   5    -62.9470268 -0.126628E+00  0.106E+00    0.24       1.0  T
   6    -63.0037341 -0.567073E-01  0.843E-01    0.29       1.0  T
   7    -63.0107868 -0.705274E-02  0.740E-01    0.28       1.0  T
   8    -63.0134083 -0.262150E-02  0.562E-01    0.26       1.0  T
   9    -63.0185084 -0.510009E-02  0.378E-01    0.31       1.0  T
  10    -63.0221852 -0.367679E-02  0.737E-02    0.26       1.0  T
  11    -63.0220722  0.112936E-03  0.717E-02    0.24       1.0  T
  12    -63.0223292 -0.257001E-03  0.150E-02    0.25       1.0  T
  13    -63.0223287  0.595419E-06  0.932E-03    0.25       1.7  T
  14    -63.0223336 -0.495908E-05  0.178E-03    0.25       8.7  T
  15    -63.0223336 -0.522318E-08  0.152E-03    0.26      10.1  T
  16    -63.0223337 -0.756575E-07  0.506E-04    0.26      30.5  T
  17    -63.0223337 -0.572199E-08  0.313E-04    0.25      49.3  T

   *** convergence criteria satisfied after 17 iterations ***

         #    Occupation            Energy/Eh            Energy/eV
      -------------------------------------------------------------
         1        2.0000           -0.7327687             -19.9397
       ...           ...                  ...                  ...
        51        2.0000           -0.4154132             -11.3040
        52        2.0000           -0.4103308             -11.1657
        53        2.0000           -0.4096206             -11.1463
        54        2.0000           -0.3981394             -10.8339
        55        1.9995           -0.3780506             -10.2873
        56        1.0005           -0.3636456              -9.8953
        57        0.9928           -0.2307224              -6.2783 (HOMO)
        58        0.0072           -0.2213563              -6.0234 (LUMO)
        59                         -0.1975522              -5.3757
        60                         -0.1625205              -4.4224
        61                         -0.0724892              -1.9725
        62                         -0.0088670              -0.2413
       ...                                ...                  ...
       105                          0.7162802              19.4910
      -------------------------------------------------------------
                  HL-Gap            0.0093661 Eh            0.2549 eV
             Fermi-level           -0.2984437 Eh           -8.1211 eV

 transition dipole moment (au) for excitation:          56          57
     X       Y       Z   
  -0.5011   1.1956   0.9743  total (au/Debye):    1.622   4.122
 dE (eV)             :    3.617
 oscillator strength :  0.32957E+00

 SCC (total)                   0 d,  0 h,  0 min,  0.104 sec
 SCC setup                      ...        0 min,  0.000 sec (  0.349%)
 Dispersion                     ...        0 min,  0.000 sec (  0.455%)
 classical contributions        ...        0 min,  0.000 sec (  0.139%)
 integral evaluation            ...        0 min,  0.008 sec (  7.506%)
 iterations                     ...        0 min,  0.064 sec ( 61.491%)
 molecular gradient             ...        0 min,  0.024 sec ( 23.352%)
 printout                       ...        0 min,  0.007 sec (  6.702%)

         :::::::::::::::::::::::::::::::::::::::::::::::::::::
         ::                     SUMMARY                     ::
         :::::::::::::::::::::::::::::::::::::::::::::::::::::
         :: total energy             -62.165951698653 Eh    ::
         :: gradient norm              0.149478036683 Eh/a0 ::
         :: HOMO-LUMO gap              0.254865313811 eV    ::
         ::.................................................::
         :: SCC energy               -63.021504355671 Eh    ::
         :: -> isotropic ES            0.077730931970 Eh    ::
         :: -> anisotropic ES          0.004028525547 Eh    ::
         :: -> anisotropic XC          0.016769641187 Eh    ::
         :: -> dispersion             -0.046322349529 Eh    ::
         :: repulsion energy           0.855552657018 Eh    ::
         :: add. restraining           0.000000000000 Eh    ::
         :: total charge               0.000000000000 e     ::
         :::::::::::::::::::::::::::::::::::::::::::::::::::::

           -------------------------------------------------
          |                Property Printout                |
           -------------------------------------------------

    * Orbital Energies and Occupations

         #    Occupation            Energy/Eh            Energy/eV
      -------------------------------------------------------------
         1        2.0000           -0.7327687             -19.9397
       ...           ...                  ...                  ...
        45        2.0000           -0.4507646             -12.2659
        46        2.0000           -0.4473595             -12.1733
        47        2.0000           -0.4418017             -12.0220
        48        2.0000           -0.4376342             -11.9086
        49        2.0000           -0.4288144             -11.6686
        50        2.0000           -0.4228497             -11.5063
        51        2.0000           -0.4154132             -11.3040
        52        2.0000           -0.4103308             -11.1657
        53        2.0000           -0.4096206             -11.1463
        54        2.0000           -0.3981394             -10.8339
        55        1.9995           -0.3780506             -10.2873
        56        1.0005           -0.3636456              -9.8953
        57        0.9928           -0.2307224              -6.2783 (HOMO)
        58        0.0072           -0.2213563              -6.0234 (LUMO)
        59                         -0.1975522              -5.3757
        60                         -0.1625205              -4.4224
        61                         -0.0724892              -1.9725
        62                         -0.0088670              -0.2413
        63                          0.0192233               0.5231
        64                          0.0511754               1.3926
        65                          0.0680226               1.8510
        66                          0.0730606               1.9881
        67                          0.0825013               2.2450
        68                          0.0946358               2.5752
       ...                                ...                  ...
       105                          0.7162802              19.4910
      -------------------------------------------------------------
                  HL-Gap            0.0093661 Eh            0.2549 eV
             Fermi-level           -0.2984437 Eh           -8.1211 eV

     #   Z          covCN         q      C6AA      α(0)
     1   6 C        3.753    -0.098    22.439     6.755
     2   6 C        3.805    -0.058    21.612     6.618
     3   6 C        2.960    -0.014    28.366     8.736
     4   6 C        2.929    -0.042    29.041     8.838
     5   6 C        2.919    -0.041    29.015     8.833
     6   6 C        2.911    -0.042    29.031     8.835
     7   6 C        3.107    -0.033    28.677     8.774
     8   6 C        3.101     0.040    26.981     8.512
     9   7 N        2.774    -0.096    23.106     7.139
    10   6 C        3.088     0.010    27.690     8.625
    11   6 C        3.072    -0.000    27.960     8.670
    12   6 C        3.804    -0.066    21.765     6.642
    13   6 C        3.697     0.082    19.383     6.298
    14   8 O        1.700    -0.326    19.445     5.954
    15   6 C        3.788     0.141    18.322     6.096
    16   6 C        3.799    -0.068    21.801     6.648
    17   6 C        3.750    -0.106    22.585     6.778
    18   6 C        3.806    -0.098    22.361     6.732
    19   6 C        2.688     0.338    21.265     7.547
    20   8 O        1.660    -0.389    20.637     6.133
    21   8 O        0.856    -0.475    23.249     6.465
    22   1 H        0.925     0.036     2.503     2.474
    23   1 H        0.925     0.037     2.486     2.466
    24   1 H        0.925     0.036     2.504     2.474
    25   1 H        0.924     0.041     2.435     2.440
    26   1 H        0.924     0.038     2.479     2.462
    27   1 H        0.926     0.029     2.604     2.523
    28   1 H        0.926     0.027     2.632     2.537
    29   1 H        0.926     0.024     2.674     2.557
    30   1 H        0.860     0.211     1.053     1.607
    31   1 H        0.924     0.064     2.156     2.296
    32   1 H        0.924     0.052     2.301     2.372
    33   1 H        0.923     0.023     2.694     2.567
    34   1 H        0.924     0.050     2.315     2.379
    35   1 H        0.924     0.041     2.434     2.440
    36   1 H        0.924     0.047     2.357     2.401
    37   1 H        0.925     0.037     2.491     2.468
    38   1 H        0.925     0.042     2.418     2.432
    39   1 H        0.925     0.040     2.449     2.447
    40   1 H        0.925     0.080     1.982     2.202
    41   1 H        0.924     0.066     2.131     2.283
    42   1 H        0.804     0.322     0.659     1.275

 Mol. C6AA /au·bohr⁶  :      17892.180152
 Mol. C8AA /au·bohr⁸  :     415300.210747
 Mol. α(0) /au        :        204.728220


Wiberg/Mayer (AO) data.
largest (>0.10) Wiberg bond orders for each atom

 ---------------------------------------------------------------------------
     #   Z sym  total        # sym  WBO       # sym  WBO       # sym  WBO
 ---------------------------------------------------------------------------
     1   6 C    3.992 --     2 C    0.991    22 H    0.989    24 H    0.987
                            23 H    0.986
     2   6 C    3.996 --     3 C    1.020     1 C    0.991    26 H    0.975
                            25 H    0.966
     3   6 C    3.841 --     8 C    1.337     4 C    1.182     2 C    1.020
     4   6 C    3.898 --     5 C    1.514     3 C    1.182    27 H    0.970
     5   6 C    3.978 --     4 C    1.514     6 C    1.329    28 H    0.971
     6   6 C    3.795 --     5 C    1.329     7 C    1.205    29 H    0.970
                            11 C    0.101
     7   6 C    3.974 --    11 C    1.293     8 C    1.255     6 C    1.205
     8   6 C    3.954 --     3 C    1.337     7 C    1.255     9 N    1.146
     9   7 N    3.578 --    10 C    1.256     8 C    1.146    30 H    0.902
    10   6 C    3.864 --     9 N    1.256    11 C    1.222    15 C    1.010
    11   6 C    3.899 --     7 C    1.293    10 C    1.222    12 C    1.035
                             6 C    0.101
    12   6 C    3.995 --    11 C    1.035    13 C    0.991    32 H    0.960
                            31 H    0.944
    13   6 C    3.955 --    12 C    0.991    14 O    0.988    34 H    0.970
                            33 H    0.964
    14   8 O    2.072 --    13 C    0.988    15 C    0.955
    15   6 C    3.946 --    10 C    1.010    14 O    0.955    16 C    0.953
                            18 C    0.929
    16   6 C    3.985 --    17 C    1.021    36 H    0.974    35 H    0.969
                            15 C    0.953
    17   6 C    3.996 --    16 C    1.021    37 H    0.986    39 H    0.985
                            38 H    0.984
    18   6 C    3.984 --    19 C    0.989    40 H    0.968    41 H    0.961
                            15 C    0.929
    19   6 C    3.822 --    21 O    1.633    20 O    1.106    18 C    0.989
    20   8 O    2.159 --    19 C    1.106    42 H    0.870    21 O    0.147
    21   8 O    1.952 --    19 C    1.633    20 O    0.147
    22   1 H    0.999 --     1 C    0.989
    23   1 H    0.997 --     1 C    0.986
    24   1 H    0.999 --     1 C    0.987
    25   1 H    0.997 --     2 C    0.966
    26   1 H    0.997 --     2 C    0.975
    27   1 H    0.999 --     4 C    0.970
    28   1 H    0.999 --     5 C    0.971
    29   1 H    0.998 --     6 C    0.970
    30   1 H    0.955 --     9 N    0.902
    31   1 H    0.985 --    12 C    0.944
    32   1 H    0.992 --    12 C    0.960
    33   1 H    0.999 --    13 C    0.964
    34   1 H    0.996 --    13 C    0.970
    35   1 H    0.998 --    16 C    0.969
    36   1 H    0.997 --    16 C    0.974
    37   1 H    0.999 --    17 C    0.986
    38   1 H    0.998 --    17 C    0.984
    39   1 H    0.998 --    17 C    0.985
    40   1 H    0.993 --    18 C    0.968
    41   1 H    0.993 --    18 C    0.961
    42   1 H    0.896 --    20 O    0.870
 ---------------------------------------------------------------------------

Topologies differ in total number of bonds
Writing topology from bond orders to xtbtopo.mol

molecular dipole:
                 x           y           z       tot (Debye)
 q only:        0.085      -0.529       0.268
   full:        0.031      -0.395       0.437       1.499
molecular quadrupole (traceless):
                xx          xy          yy          xz          yz          zz
 q only:       -3.738       2.589       1.866      -0.055       3.405       1.872
  q+dip:       -5.535       2.720       4.737      -1.734       5.640       0.798
   full:       -6.796       1.875       4.587      -0.480       4.092       2.210


           -------------------------------------------------
          | TOTAL ENERGY              -62.165951698653 Eh   |
          | GRADIENT NORM               0.149478036683 Eh/α |
          | HOMO-LUMO GAP               0.254865313811 eV   |
           -------------------------------------------------

------------------------------------------------------------------------
 * finished run on 2025/05/15 at 16:26:30.922     
------------------------------------------------------------------------
 total:
 * wall-time:     0 d,  0 h,  0 min,  0.118 sec
 *  cpu-time:     0 d,  0 h,  0 min,  0.085 sec
 * ratio c/w:     0.722 speedup
 SCF:
 * wall-time:     0 d,  0 h,  0 min,  0.104 sec
 *  cpu-time:     0 d,  0 h,  0 min,  0.073 sec
 * ratio c/w:     0.699 speedup


