----- Optimization -----
      -----------------------------------------------------------      
     |                   =====================                   |     
     |                           x T B                           |     
     |                   =====================                   |     
     |                         S. Grimme                         |     
     |          Mulliken Center for Theoretical Chemistry        |     
     |                    University of Bonn                     |     
      -----------------------------------------------------------      

   * xtb version 6.7.1 (edcfbbe) compiled by 'conda@3ef47c1a292c' on 2024-11-25

   xtb is free software: you can redistribute it and/or modify it under
   the terms of the GNU Lesser General Public License as published by
   the Free Software Foundation, either version 3 of the License, or
   (at your option) any later version.
   
   xtb is distributed in the hope that it will be useful,
   but WITHOUT ANY WARRANTY; without even the implied warranty of
   MERCHANTABILITY or FITNESS FOR A PARTICULAR PURPOSE.  See the
   GNU Lesser General Public License for more details.
   
   Cite this work as:
   * C. Bannwarth, E. Caldeweyher, S. Ehlert, A. Hansen, P. Pracht,
     J. Seibert, S. Spicher, S. Grimme, WIREs Comput. Mol. Sci., 2020, 11,
     e01493. DOI: 10.1002/wcms.1493
   
   for GFN2-xTB:
   * C. Bannwarth, S. Ehlert and S. Grimme., J. Chem. Theory Comput., 2019,
     15, 1652-1671. DOI: 10.1021/acs.jctc.8b01176
   for GFN1-xTB:
   * S. Grimme, C. Bannwarth, P. Shushkov, J. Chem. Theory Comput., 2017,
     13, 1989-2009. DOI: 10.1021/acs.jctc.7b00118
   for GFN0-xTB:
   * P. Pracht, E. Caldeweyher, S. Ehlert, S. Grimme, ChemRxiv, 2019, preprint.
     DOI: 10.26434/chemrxiv.8326202.v1
   for GFN-FF:
   * S. Spicher and S. Grimme, Angew. Chem. Int. Ed., 2020, 59, 15665-15673.
     DOI: 10.1002/anie.202004239
   
   for ALPB and GBSA implicit solvation:
   * S. Ehlert, M. Stahn, S. Spicher, S. Grimme, J. Chem. Theory Comput.,
     2021, 17, 4250-4261. DOI: 10.1021/acs.jctc.1c00471
   
   for ddCOSMO and CPCM-X implicit solvation:
   * M. Stahn, S. Ehlert, S. Grimme, J. Phys. Chem. A,
     2023, XX, XXXX-XXXX. DOI: 10.1021/acs.jpca.3c04382
   
   for DFT-D4:
   * E. Caldeweyher, C. Bannwarth and S. Grimme, J. Chem. Phys., 2017,
     147, 034112. DOI: 10.1063/1.4993215
   * E. Caldeweyher, S. Ehlert, A. Hansen, H. Neugebauer, S. Spicher,
     C. Bannwarth and S. Grimme, J. Chem. Phys., 2019, 150, 154122.
     DOI: 10.1063/1.5090222
   * E. Caldeweyher, J.-M. Mewes, S. Ehlert and S. Grimme, Phys. Chem. Chem. Phys.
     2020, 22, 8499-8512. DOI: 10.1039/D0CP00502A
   
   for sTDA-xTB:
   * S. Grimme and C. Bannwarth, J. Chem. Phys., 2016, 145, 054103.
     DOI: 10.1063/1.4959605
   
   in the mass-spec context:
   * V. Asgeirsson, C. Bauer and S. Grimme, Chem. Sci., 2017, 8, 4879.
     DOI: 10.1039/c7sc00601b
   * J. Koopman and S. Grimme, ACS Omega 2019, 4, 12, 15120-15133.
     DOI: 10.1021/acsomega.9b02011
   
   for metadynamics refer to:
   * S. Grimme, J. Chem. Theory Comput., 2019, 155, 2847-2862
     DOI: 10.1021/acs.jctc.9b00143
   
   for SPH calculations refer to:
   * S. Spicher and S. Grimme, J. Chem. Theory Comput., 2021, 17, 1701-1714
     DOI: 10.1021/acs.jctc.0c01306
   
   for ONIOM refer to:
   * C. Plett, A. Katbashev, S. Ehlert, S. Grimme, M. Bursch,
     Phys. Chem. Chem. Phys., 2023, 25, 17860-17868. DOI: 10.1039/D3CP02178E
   
   for DIPRO refer to:
   * J. Kohn, N. Gildemeister, S. Grimme, D. Fazzi, A. Hansen,
     J. Chem. Phys., 2023, just accepted.
   
   for PTB refer to:
   * S. Grimme, M. Mueller, A. Hansen, J. Chem. Phys., 2023, 158, 124111.
     DOI: 10.1063/5.0137838
   
   with help from (in alphabetical order)
   P. Atkinson, C. Bannwarth, F. Bohle, G. Brandenburg, E. Caldeweyher
   M. Checinski, S. Dohm, S. Ehlert, S. Ehrlich, I. Gerasimov, C. Hölzer
   A. Katbashev, J. Kohn, J. Koopman, C. Lavigne, S. Lehtola, F. März, M. Müller,
   F. Musil, H. Neugebauer, J. Pisarek, C. Plett, P. Pracht, F. Pultar,
   J. Seibert, P. Shushkov, S. Spicher, M. Stahn, M. Steiner, T. Strunk,
   J. Stückrath, T. Rose, and J. Unsleber
   
 * started run on 2025/05/15 at 16:10:35.847     
   ID    Z sym.   atoms
    1    8 O      1, 3, 21
    2    6 C      2, 4, 5, 7-9, 11, 12, 14-16, 18-20, 22-24
    3    7 N      6, 10, 13
    4    9 F      17
    5    1 H      25-42

           -------------------------------------------------
          |                Calculation Setup                |
           -------------------------------------------------

          program call               : xtb /rds/general/user/hgt20/home/callum/QDESCP/Ciprofloxacin_rdkit_conf_2/Ciprofloxacin_rdkit_conf_2.xyz --opt normal --acc 1 --gfn 2 --chrg 0 --uhf 0 -P 1
          hostname                   : login-c
          coordinate file            : /rds/general/user/hgt20/home/callum/QDESCP/Ciprofloxacin_rdkit_conf_2/Ciprofloxacin_rdkit_conf_2.xyz
          omp threads                :                     1


           -------------------------------------------------
          |                 G F N 2 - x T B                 |
           -------------------------------------------------

        Reference                      10.1021/acs.jctc.8b01176
      * Hamiltonian:
        H0-scaling (s, p, d)           1.850000    2.230000    2.230000
        zeta-weighting                 0.500000
      * Dispersion:
        s8                             2.700000
        a1                             0.520000
        a2                             5.000000
        s9                             5.000000
      * Repulsion:
        kExp                           1.500000    1.000000
        rExp                           1.000000
      * Coulomb:
        alpha                          2.000000
        third order                    shell-resolved
        anisotropic                    true
        a3                             3.000000
        a5                             4.000000
        cn-shift                       1.200000
        cn-exp                         4.000000
        max-rad                        5.000000


          ...................................................
          :                      SETUP                      :
          :.................................................:
          :  # basis functions                 114          :
          :  # atomic orbitals                 114          :
          :  # shells                           66          :
          :  # electrons                       126          :
          :  max. iterations                   250          :
          :  Hamiltonian                  GFN2-xTB          :
          :  restarted?                      false          :
          :  GBSA solvation                  false          :
          :  PC potential                    false          :
          :  electronic temp.          300.0000000     K    :
          :  accuracy                    1.0000000          :
          :  -> integral cutoff          0.2500000E+02      :
          :  -> integral neglect         0.1000000E-07      :
          :  -> SCF convergence          0.1000000E-05 Eh   :
          :  -> wf. convergence          0.1000000E-03 e    :
          :  Broyden damping             0.4000000          :
          :  net charge                          0          :
          :  unpaired electrons                  0          :
          ...................................................

 iter      E             dE          RMSdq      gap      omega  full diag
   1    -71.9750231 -0.719750E+02  0.420E+00    2.53       0.0  T
   2    -72.0921901 -0.117167E+00  0.254E+00    2.33       1.0  T
   3    -72.1003094 -0.811934E-02  0.146E+00    2.51       1.0  T
   4    -72.1182903 -0.179808E-01  0.460E-01    2.40       1.0  T
   5    -72.1250807 -0.679040E-02  0.112E-01    2.39       1.0  T
   6    -72.1253154 -0.234698E-03  0.521E-02    2.39       1.0  T
   7    -72.1253452 -0.298058E-04  0.221E-02    2.40       1.0  T
   8    -72.1253474 -0.224231E-05  0.923E-03    2.40       1.7  T
   9    -72.1253490 -0.157053E-05  0.418E-03    2.41       3.7  T
  10    -72.1253491 -0.116769E-06  0.151E-03    2.40      10.2  T
  11    -72.1253491 -0.434890E-07  0.675E-04    2.40      22.9  T
  12    -72.1253492 -0.405694E-08  0.248E-04    2.40      62.3  T

   *** convergence criteria satisfied after 12 iterations ***

         #    Occupation            Energy/Eh            Energy/eV
      -------------------------------------------------------------
         1        2.0000           -0.8232589             -22.4020
       ...           ...                  ...                  ...
        57        2.0000           -0.4314961             -11.7416
        58        2.0000           -0.4256045             -11.5813
        59        2.0000           -0.4187674             -11.3952
        60        2.0000           -0.3894145             -10.5965
        61        2.0000           -0.3798538             -10.3363
        62        2.0000           -0.3746714             -10.1953
        63        2.0000           -0.3672825              -9.9943 (HOMO)
        64                         -0.2789576              -7.5908 (LUMO)
        65                         -0.2662616              -7.2453
        66                         -0.2340420              -6.3686
        67                         -0.2140740              -5.8252
        68                         -0.1506066              -4.0982
       ...                                ...                  ...
       114                          0.6927260              18.8500
      -------------------------------------------------------------
                  HL-Gap            0.0883249 Eh            2.4034 eV
             Fermi-level           -0.3231201 Eh           -8.7925 eV

 SCC (total)                   0 d,  0 h,  0 min,  0.071 sec
 SCC setup                      ...        0 min,  0.000 sec (  0.543%)
 Dispersion                     ...        0 min,  0.000 sec (  0.657%)
 classical contributions        ...        0 min,  0.000 sec (  0.206%)
 integral evaluation            ...        0 min,  0.008 sec ( 11.104%)
 iterations                     ...        0 min,  0.039 sec ( 54.450%)
 molecular gradient             ...        0 min,  0.023 sec ( 32.782%)
 printout                       ...        0 min,  0.000 sec (  0.248%)

         :::::::::::::::::::::::::::::::::::::::::::::::::::::
         ::                     SUMMARY                     ::
         :::::::::::::::::::::::::::::::::::::::::::::::::::::
         :: total energy             -71.285116485171 Eh    ::
         :: gradient norm              0.081397374196 Eh/a0 ::
         :: HOMO-LUMO gap              2.403442032363 eV    ::
         ::.................................................::
         :: SCC energy               -72.125282907565 Eh    ::
         :: -> isotropic ES            0.107066281209 Eh    ::
         :: -> anisotropic ES          0.007867255093 Eh    ::
         :: -> anisotropic XC          0.021832639165 Eh    ::
         :: -> dispersion             -0.044971672285 Eh    ::
         :: repulsion energy           0.840166422394 Eh    ::
         :: add. restraining           0.000000000000 Eh    ::
         :: total charge              -0.000000000000 e     ::
         :::::::::::::::::::::::::::::::::::::::::::::::::::::

      ----------------------------------------------------------- 
     |                   =====================                   |
     |                        A N C O P T                        |
     |                   =====================                   |
     |               Approximate Normal Coordinate               |
     |                Rational Function Optimizer                |
      ----------------------------------------------------------- 
      ----------------------------------------------------------- 
     |                   =====================                   |
     |                        A N C O P T                        |
     |                   =====================                   |
     |               Approximate Normal Coordinate               |
     |                Rational Function Optimizer                |
      ----------------------------------------------------------- 

          ...................................................
          :                      SETUP                      :
          :.................................................:
          :   optimization level            normal          :
          :   max. optcycles                   200          :
          :   ANC micro-cycles                  20          :
          :   degrees of freedom               120          :
          :.................................................:
          :   RF solver                   davidson          :
          :   write xtbopt.log                true          :
          :   linear?                        false          :
          :   energy convergence         0.5000000E-05 Eh   :
          :   grad. convergence          0.1000000E-02 Eh/α :
          :   maxmium RF displ.          1.0000000          :
          :   Hlow (freq-cutoff)         0.1000000E-01      :
          :   Hmax (freq-cutoff)         5.0000000          :
          :   S6 in model hess.         20.0000000          :
          ...................................................

generating ANC from exact Hessian ...
Using Lindh-Hessian (1995)
 Shifting diagonal of input Hessian by    9.6157675955782871E-003
 Lowest  eigenvalues of input Hessian
    0.000000    0.000000    0.000000    0.000000    0.000000    0.000000
    0.010000    0.010337    0.010670    0.011557    0.012019    0.012275
    0.012916    0.014428    0.015643    0.018090    0.019567    0.020180
 Highest eigenvalues
    1.869636    1.987599    2.023858    2.086269    2.211950    2.340518


........................................................................
.............................. CYCLE    1 ..............................
........................................................................

 iter      E             dE          RMSdq      gap      omega  full diag
   1    -72.1253492 -0.721253E+02  0.112E-04    2.40       0.0  T
   2    -72.1253492 -0.122668E-09  0.727E-05    2.40     212.3  T
   3    -72.1253492 -0.107519E-09  0.426E-05    2.40     362.2  T
     SCC iter.                  ...        0 min,  0.007 sec
     gradient                   ...        0 min,  0.042 sec
 * total energy  :   -71.2851165 Eh     change       -0.7871392E-09 Eh
   gradient norm :     0.0813982 Eh/α   predicted     0.0000000E+00 (-100.00%)
   displ. norm   :     0.3878455 α      lambda       -0.1676872E-01
   maximum displ.:     0.1317369 α      in ANC's #18, #47, #15, ...

........................................................................
.............................. CYCLE    2 ..............................
........................................................................

 iter      E             dE          RMSdq      gap      omega  full diag
   1    -72.1621530 -0.721622E+02  0.236E-01    2.46       0.0  T
   2    -72.1624894 -0.336327E-03  0.160E-01    2.49       1.0  T
   3    -72.1626057 -0.116320E-03  0.900E-02    2.49       1.0  T
   4    -72.1626953 -0.895969E-04  0.260E-02    2.48       1.0  T
   5    -72.1627155 -0.201729E-04  0.530E-03    2.49       2.9  T
   6    -72.1627159 -0.394365E-06  0.266E-03    2.49       5.8  T
   7    -72.1627159 -0.566816E-07  0.102E-03    2.49      15.1  T
   8    -72.1627159 -0.578110E-08  0.390E-04    2.49      39.6  T
   9    -72.1627159 -0.213969E-08  0.136E-04    2.49     113.1  T
     SCC iter.                  ...        0 min,  0.019 sec
     gradient                   ...        0 min,  0.023 sec
 * total energy  :   -71.2967284 Eh     change       -0.1161196E-01 Eh
   gradient norm :     0.0350645 Eh/α   predicted    -0.9650174E-02 ( -16.89%)
   displ. norm   :     0.3862074 α      lambda       -0.6153500E-02
   maximum displ.:     0.1547838 α      in ANC's #13, #18, #15, ...

........................................................................
.............................. CYCLE    3 ..............................
........................................................................

 iter      E             dE          RMSdq      gap      omega  full diag
   1    -72.1864870 -0.721865E+02  0.166E-01    2.49       0.0  T
   2    -72.1867188 -0.231798E-03  0.116E-01    2.52       1.0  T
   3    -72.1868219 -0.103129E-03  0.645E-02    2.52       1.0  T
   4    -72.1868472 -0.253041E-04  0.214E-02    2.51       1.0  T
   5    -72.1868599 -0.127101E-04  0.415E-03    2.52       3.7  T
   6    -72.1868603 -0.338492E-06  0.188E-03    2.52       8.2  T
   7    -72.1868603 -0.273079E-07  0.708E-04    2.52      21.8  T
   8    -72.1868603 -0.294297E-08  0.295E-04    2.52      52.3  T
     SCC iter.                  ...        0 min,  0.023 sec
     gradient                   ...        0 min,  0.023 sec
 * total energy  :   -71.3005445 Eh     change       -0.3816007E-02 Eh
   gradient norm :     0.0121563 Eh/α   predicted    -0.3540437E-02 (  -7.22%)
   displ. norm   :     0.2851502 α      lambda       -0.1432664E-02
   maximum displ.:     0.1169787 α      in ANC's #5, #3, #18, ...

........................................................................
.............................. CYCLE    4 ..............................
........................................................................

 iter      E             dE          RMSdq      gap      omega  full diag
   1    -72.1925609 -0.721926E+02  0.741E-02    2.50       0.0  T
   2    -72.1925893 -0.284071E-04  0.450E-02    2.53       1.0  T
   3    -72.1925895 -0.225831E-06  0.261E-02    2.52       1.0  T
   4    -72.1925998 -0.102676E-04  0.624E-03    2.52       2.5  T
   5    -72.1926011 -0.123661E-05  0.175E-03    2.52       8.8  T
   6    -72.1926011 -0.601337E-07  0.859E-04    2.52      18.0  T
   7    -72.1926011 -0.511569E-08  0.272E-04    2.52      56.7  T
     SCC iter.                  ...        0 min,  0.015 sec
     gradient                   ...        0 min,  0.023 sec
 * total energy  :   -71.3016067 Eh     change       -0.1062229E-02 Eh
   gradient norm :     0.0101553 Eh/α   predicted    -0.7746471E-03 ( -27.07%)
   displ. norm   :     0.3748030 α      lambda       -0.1144790E-02
   maximum displ.:     0.1867390 α      in ANC's #5, #3, #4, ...

........................................................................
.............................. CYCLE    5 ..............................
........................................................................

 iter      E             dE          RMSdq      gap      omega  full diag
   1    -72.1943401 -0.721943E+02  0.939E-02    2.50       0.0  T
   2    -72.1943661 -0.260099E-04  0.546E-02    2.53       1.0  T
   3    -72.1943553  0.107634E-04  0.289E-02    2.52       1.0  T
   4    -72.1943744 -0.190697E-04  0.473E-03    2.53       3.3  T
   5    -72.1943751 -0.679263E-06  0.164E-03    2.53       9.4  T
   6    -72.1943751 -0.250362E-07  0.882E-04    2.53      17.5  T
   7    -72.1943751 -0.122233E-07  0.316E-04    2.53      48.9  T
     SCC iter.                  ...        0 min,  0.015 sec
     gradient                   ...        0 min,  0.023 sec
 * total energy  :   -71.3023980 Eh     change       -0.7913601E-03 Eh
   gradient norm :     0.0068745 Eh/α   predicted    -0.6528074E-03 ( -17.51%)
   displ. norm   :     0.3188491 α      lambda       -0.5470967E-03
   maximum displ.:     0.1817437 α      in ANC's #5, #3, #4, ...

........................................................................
.............................. CYCLE    6 ..............................
........................................................................

 iter      E             dE          RMSdq      gap      omega  full diag
   1    -72.1944036 -0.721944E+02  0.752E-02    2.50       0.0  T
   2    -72.1944150 -0.113550E-04  0.435E-02    2.53       1.0  T
   3    -72.1944054  0.955716E-05  0.217E-02    2.52       1.0  T
   4    -72.1944192 -0.138551E-04  0.319E-03    2.53       4.8  T
   5    -72.1944195 -0.266165E-06  0.126E-03    2.53      12.2  T
   6    -72.1944195 -0.903150E-08  0.684E-04    2.53      22.6  T
   7    -72.1944195 -0.752222E-08  0.236E-04    2.53      65.3  T
     SCC iter.                  ...        0 min,  0.054 sec
     gradient                   ...        0 min,  0.023 sec
 * total energy  :   -71.3027954 Eh     change       -0.3974082E-03 Eh
   gradient norm :     0.0060096 Eh/α   predicted    -0.3013666E-03 ( -24.17%)
   displ. norm   :     0.3030052 α      lambda       -0.3986958E-03
   maximum displ.:     0.1765232 α      in ANC's #5, #3, #4, ...

........................................................................
.............................. CYCLE    7 ..............................
........................................................................

 iter      E             dE          RMSdq      gap      omega  full diag
   1    -72.1945886 -0.721946E+02  0.717E-02    2.51       0.0  T
   2    -72.1945959 -0.730438E-05  0.413E-02    2.53       1.0  T
   3    -72.1945872  0.868839E-05  0.187E-02    2.52       1.0  T
   4    -72.1945989 -0.116771E-04  0.270E-03    2.53       5.7  T
   5    -72.1945990 -0.159267E-06  0.122E-03    2.53      12.7  T
   6    -72.1945990 -0.643576E-08  0.570E-04    2.53      27.1  T
   7    -72.1945990 -0.611278E-08  0.203E-04    2.53      76.1  T
     SCC iter.                  ...        0 min,  0.015 sec
     gradient                   ...        0 min,  0.056 sec
 * total energy  :   -71.3031034 Eh     change       -0.3079563E-03 Eh
   gradient norm :     0.0061767 Eh/α   predicted    -0.2176548E-03 ( -29.32%)
   displ. norm   :     0.3418426 α      lambda       -0.3915394E-03
   maximum displ.:     0.1942953 α      in ANC's #5, #3, #4, ...

........................................................................
.............................. CYCLE    8 ..............................
........................................................................

 iter      E             dE          RMSdq      gap      omega  full diag
   1    -72.1950284 -0.721950E+02  0.772E-02    2.51       0.0  T
   2    -72.1950361 -0.769802E-05  0.445E-02    2.53       1.0  T
   3    -72.1950266  0.947380E-05  0.195E-02    2.52       1.0  T
   4    -72.1950394 -0.127617E-04  0.299E-03    2.53       5.2  T
   5    -72.1950396 -0.184740E-06  0.145E-03    2.53      10.6  T
   6    -72.1950396 -0.535994E-08  0.686E-04    2.53      22.5  T
   7    -72.1950396 -0.108792E-07  0.222E-04    2.53      69.5  T
     SCC iter.                  ...        0 min,  0.015 sec
     gradient                   ...        0 min,  0.023 sec
 * total energy  :   -71.3034073 Eh     change       -0.3039255E-03 Eh
   gradient norm :     0.0064826 Eh/α   predicted    -0.2186485E-03 ( -28.06%)
   displ. norm   :     0.4104350 α      lambda       -0.3861017E-03
   maximum displ.:     0.2254326 α      in ANC's #3, #5, #1, ...

........................................................................
.............................. CYCLE    9 ..............................
........................................................................

 iter      E             dE          RMSdq      gap      omega  full diag
   1    -72.1947856 -0.721948E+02  0.924E-02    2.51       0.0  T
   2    -72.1947989 -0.132648E-04  0.532E-02    2.53       1.0  T
   3    -72.1947858  0.131030E-04  0.242E-02    2.52       1.0  T
   4    -72.1948039 -0.181176E-04  0.408E-03    2.53       3.8  T
   5    -72.1948043 -0.394890E-06  0.189E-03    2.53       8.2  T
   6    -72.1948043 -0.188828E-07  0.101E-03    2.53      15.3  T
   7    -72.1948043 -0.176336E-07  0.299E-04    2.53      51.7  T
   8    -72.1948043 -0.116297E-08  0.145E-04    2.53     106.8  T
     SCC iter.                  ...        0 min,  0.017 sec
     gradient                   ...        0 min,  0.033 sec
 * total energy  :   -71.3037014 Eh     change       -0.2940356E-03 Eh
   gradient norm :     0.0056056 Eh/α   predicted    -0.2255748E-03 ( -23.28%)
   displ. norm   :     0.4107411 α      lambda       -0.3239322E-03
   maximum displ.:     0.2260814 α      in ANC's #3, #5, #1, ...

........................................................................
.............................. CYCLE   10 ..............................
........................................................................

 iter      E             dE          RMSdq      gap      omega  full diag
   1    -72.1951446 -0.721951E+02  0.879E-02    2.52       0.0  T
   2    -72.1951582 -0.135825E-04  0.508E-02    2.54       1.0  T
   3    -72.1951466  0.116428E-04  0.237E-02    2.53       1.0  T
   4    -72.1951633 -0.167206E-04  0.421E-03    2.54       3.7  T
   5    -72.1951637 -0.435059E-06  0.193E-03    2.54       8.0  T
   6    -72.1951637 -0.184574E-07  0.104E-03    2.54      14.9  T
   7    -72.1951637 -0.183120E-07  0.295E-04    2.54      52.3  T
   8    -72.1951637 -0.109745E-08  0.148E-04    2.54     104.5  T
     SCC iter.                  ...        0 min,  0.017 sec
     gradient                   ...        0 min,  0.024 sec
 * total energy  :   -71.3039391 Eh     change       -0.2377299E-03 Eh
   gradient norm :     0.0046474 Eh/α   predicted    -0.1892968E-03 ( -20.37%)
   displ. norm   :     0.3378876 α      lambda       -0.2172958E-03
   maximum displ.:     0.1862388 α      in ANC's #3, #1, #5, ...

........................................................................
.............................. CYCLE   11 ..............................
........................................................................

 iter      E             dE          RMSdq      gap      omega  full diag
   1    -72.1960320 -0.721960E+02  0.714E-02    2.53       0.0  T
   2    -72.1960442 -0.122584E-04  0.411E-02    2.54       1.0  T
   3    -72.1960382  0.604139E-05  0.189E-02    2.54       1.0  T
   4    -72.1960472 -0.907559E-05  0.406E-03    2.55       3.8  T
   5    -72.1960478 -0.511231E-06  0.158E-03    2.54       9.8  T
   6    -72.1960478 -0.192168E-07  0.874E-04    2.54      17.7  T
   7    -72.1960478 -0.105275E-07  0.259E-04    2.54      59.6  T
     SCC iter.                  ...        0 min,  0.015 sec
     gradient                   ...        0 min,  0.033 sec
 * total energy  :   -71.3040924 Eh     change       -0.1532719E-03 Eh
   gradient norm :     0.0047304 Eh/α   predicted    -0.1210540E-03 ( -21.02%)
   displ. norm   :     0.2450493 α      lambda       -0.1335727E-03
   maximum displ.:     0.1295979 α      in ANC's #3, #1, #6, ...

........................................................................
.............................. CYCLE   12 ..............................
........................................................................

 iter      E             dE          RMSdq      gap      omega  full diag
   1    -72.1975280 -0.721975E+02  0.488E-02    2.54       0.0  T
   2    -72.1975322 -0.416205E-05  0.282E-02    2.55       1.0  T
   3    -72.1975288  0.339813E-05  0.124E-02    2.55       1.2  T
   4    -72.1975336 -0.478837E-05  0.232E-03    2.55       6.7  T
   5    -72.1975337 -0.148562E-06  0.103E-03    2.55      14.9  T
   6    -72.1975337 -0.481889E-08  0.548E-04    2.55      28.1  T
   7    -72.1975337 -0.548080E-08  0.146E-04    2.55     105.5  T
     SCC iter.                  ...        0 min,  0.015 sec
     gradient                   ...        0 min,  0.023 sec
 * total energy  :   -71.3041898 Eh     change       -0.9742578E-04 Eh
   gradient norm :     0.0041430 Eh/α   predicted    -0.7079815E-04 ( -27.33%)
   displ. norm   :     0.2258866 α      lambda       -0.1067779E-03
   maximum displ.:     0.1316141 α      in ANC's #1, #3, #6, ...

........................................................................
.............................. CYCLE   13 ..............................
........................................................................

 iter      E             dE          RMSdq      gap      omega  full diag
   1    -72.1981801 -0.721982E+02  0.462E-02    2.54       0.0  T
   2    -72.1981828 -0.274048E-05  0.267E-02    2.55       1.0  T
   3    -72.1981804  0.247281E-05  0.969E-03    2.55       1.6  T
   4    -72.1981836 -0.322912E-05  0.205E-03    2.55       7.5  T
   5    -72.1981837 -0.111247E-06  0.928E-04    2.55      16.6  T
   6    -72.1981837 -0.463602E-08  0.499E-04    2.55      31.0  T
     SCC iter.                  ...        0 min,  0.013 sec
     gradient                   ...        0 min,  0.024 sec
 * total energy  :   -71.3042697 Eh     change       -0.7989629E-04 Eh
   gradient norm :     0.0037924 Eh/α   predicted    -0.5611422E-04 ( -29.77%)
   displ. norm   :     0.2386515 α      lambda       -0.1136819E-03
   maximum displ.:     0.1614256 α      in ANC's #1, #3, #6, ...

........................................................................
.............................. CYCLE   14 ..............................
........................................................................

 iter      E             dE          RMSdq      gap      omega  full diag
   1    -72.2000518 -0.722001E+02  0.466E-02    2.54       0.0  T
   2    -72.2000540 -0.228706E-05  0.272E-02    2.55       1.0  T
   3    -72.2000525  0.151326E-05  0.782E-03    2.55       2.0  T
   4    -72.2000546 -0.211121E-05  0.189E-03    2.55       8.2  T
   5    -72.2000547 -0.702335E-07  0.952E-04    2.55      16.2  T
   6    -72.2000547 -0.105670E-07  0.350E-04    2.55      44.0  T
     SCC iter.                  ...        0 min,  0.013 sec
     gradient                   ...        0 min,  0.057 sec
 * total energy  :   -71.3043474 Eh     change       -0.7772515E-04 Eh
   gradient norm :     0.0037644 Eh/α   predicted    -0.6008110E-04 ( -22.70%)
   displ. norm   :     0.3356606 α      lambda       -0.1291311E-03
   maximum displ.:     0.2171677 α      in ANC's #1, #3, #6, ...

........................................................................
.............................. CYCLE   15 ..............................
........................................................................

 iter      E             dE          RMSdq      gap      omega  full diag
   1    -72.1973367 -0.721973E+02  0.707E-02    2.53       0.0  T
   2    -72.1973409 -0.421274E-05  0.415E-02    2.54       1.0  T
   3    -72.1973351  0.585886E-05  0.139E-02    2.54       1.1  T
   4    -72.1973426 -0.753754E-05  0.303E-03    2.54       5.1  T
   5    -72.1973428 -0.187450E-06  0.148E-03    2.54      10.4  T
   6    -72.1973428 -0.851287E-08  0.548E-04    2.54      28.2  T
   7    -72.1973428 -0.451531E-08  0.223E-04    2.54      69.1  T
     SCC iter.                  ...        0 min,  0.015 sec
     gradient                   ...        0 min,  0.024 sec
 * total energy  :   -71.3044269 Eh     change       -0.7945135E-04 Eh
   gradient norm :     0.0050804 Eh/α   predicted    -0.7184057E-04 (  -9.58%)
   displ. norm   :     0.2037678 α      lambda       -0.1124128E-03
   maximum displ.:     0.1508217 α      in ANC's #1, #6, #8, ...

........................................................................
.............................. CYCLE   16 ..............................
........................................................................

 iter      E             dE          RMSdq      gap      omega  full diag
   1    -72.1982540 -0.721983E+02  0.436E-02    2.53       0.0  T
   2    -72.1982554 -0.145978E-05  0.254E-02    2.53       1.0  T
   3    -72.1982550  0.468963E-06  0.509E-03    2.53       3.0  T
   4    -72.1982557 -0.723524E-06  0.173E-03    2.53       8.9  T
   5    -72.1982558 -0.755827E-07  0.798E-04    2.53      19.3  T
   6    -72.1982558 -0.443234E-08  0.310E-04    2.53      49.8  T
     SCC iter.                  ...        0 min,  0.013 sec
     gradient                   ...        0 min,  0.024 sec
 * total energy  :   -71.3045121 Eh     change       -0.8525363E-04 Eh
   gradient norm :     0.0042550 Eh/α   predicted    -0.5854241E-04 ( -31.33%)
   displ. norm   :     0.4102513 α      lambda       -0.1649373E-03
   maximum displ.:     0.3118419 α      in ANC's #1, #6, #3, ...

........................................................................
.............................. CYCLE   17 ..............................
........................................................................

 iter      E             dE          RMSdq      gap      omega  full diag
   1    -72.1969135 -0.721969E+02  0.817E-02    2.52       0.0  T
   2    -72.1969180 -0.448343E-05  0.474E-02    2.53       1.0  T
   3    -72.1969113  0.668744E-05  0.146E-02    2.52       1.1  T
   4    -72.1969198 -0.853956E-05  0.275E-03    2.53       5.6  T
   5    -72.1969200 -0.121806E-06  0.144E-03    2.53      10.7  T
   6    -72.1969200 -0.899618E-08  0.484E-04    2.53      31.9  T
   7    -72.1969200 -0.517359E-08  0.165E-04    2.53      93.5  T
     SCC iter.                  ...        0 min,  0.017 sec
     gradient                   ...        0 min,  0.034 sec
 * total energy  :   -71.3046136 Eh     change       -0.1015058E-03 Eh
   gradient norm :     0.0042658 Eh/α   predicted    -0.9634898E-04 (  -5.08%)
   displ. norm   :     0.2712512 α      lambda       -0.1086136E-03
   maximum displ.:     0.2133081 α      in ANC's #1, #6, #8, ...

........................................................................
.............................. CYCLE   18 ..............................
........................................................................

 iter      E             dE          RMSdq      gap      omega  full diag
   1    -72.1982170 -0.721982E+02  0.549E-02    2.51       0.0  T
   2    -72.1982203 -0.327686E-05  0.320E-02    2.52       1.0  T
   3    -72.1982167  0.357857E-05  0.116E-02    2.52       1.3  T
   4    -72.1982214 -0.473631E-05  0.235E-03    2.52       6.6  T
   5    -72.1982216 -0.122659E-06  0.111E-03    2.52      13.8  T
   6    -72.1982216 -0.692130E-08  0.476E-04    2.52      32.4  T
   7    -72.1982216 -0.373382E-08  0.171E-04    2.52      90.3  T
     SCC iter.                  ...        0 min,  0.015 sec
     gradient                   ...        0 min,  0.024 sec
 * total energy  :   -71.3046841 Eh     change       -0.7048125E-04 Eh
   gradient norm :     0.0037020 Eh/α   predicted    -0.5830326E-04 ( -17.28%)
   displ. norm   :     0.3309918 α      lambda       -0.9134604E-04
   maximum displ.:     0.2581177 α      in ANC's #1, #3, #6, ...

........................................................................
.............................. CYCLE   19 ..............................
........................................................................

 iter      E             dE          RMSdq      gap      omega  full diag
   1    -72.1976430 -0.721976E+02  0.647E-02    2.50       0.0  T
   2    -72.1976508 -0.781114E-05  0.373E-02    2.51       1.0  T
   3    -72.1976457  0.516587E-05  0.158E-02    2.51       1.0  T
   4    -72.1976529 -0.722745E-05  0.306E-03    2.52       5.0  T
   5    -72.1976532 -0.273677E-06  0.126E-03    2.52      12.2  T
   6    -72.1976532 -0.100748E-07  0.663E-04    2.52      23.3  T
   7    -72.1976532 -0.703027E-08  0.192E-04    2.52      80.2  T
     SCC iter.                  ...        0 min,  0.015 sec
     gradient                   ...        0 min,  0.037 sec
 * total energy  :   -71.3047478 Eh     change       -0.6373804E-04 Eh
   gradient norm :     0.0042214 Eh/α   predicted    -0.5067718E-04 ( -20.49%)
   displ. norm   :     0.2628175 α      lambda       -0.1130915E-03
   maximum displ.:     0.2145852 α      in ANC's #1, #3, #11, ...

........................................................................
.............................. CYCLE   20 ..............................
........................................................................

 iter      E             dE          RMSdq      gap      omega  full diag
   1    -72.2010619 -0.722011E+02  0.528E-02    2.50       0.0  T
   2    -72.2010695 -0.764721E-05  0.304E-02    2.52       1.0  T
   3    -72.2010664  0.314351E-05  0.158E-02    2.51       1.0  T
   4    -72.2010722 -0.578404E-05  0.286E-03    2.52       5.4  T
   5    -72.2010724 -0.238268E-06  0.119E-03    2.52      13.0  T
   6    -72.2010724 -0.828068E-08  0.601E-04    2.52      25.7  T
   7    -72.2010724 -0.665354E-08  0.187E-04    2.52      82.3  T
     SCC iter.                  ...        0 min,  0.015 sec
     gradient                   ...        0 min,  0.024 sec
 * total energy  :   -71.3048028 Eh     change       -0.5492657E-04 Eh
   gradient norm :     0.0040440 Eh/α   predicted    -0.6045232E-04 (  10.06%)
   displ. norm   :     0.4255532 α      lambda       -0.1002308E-03
   maximum displ.:     0.3320980 α      in ANC's #1, #3, #6, ...
 * RMSD in coord.:     0.7975673 α      energy gain  -0.1968629E-01 Eh

generating ANC from exact Hessian ...
Using Lindh-Hessian (1995)
 Shifting diagonal of input Hessian by    9.5782426328216534E-003
 Lowest  eigenvalues of input Hessian
    0.000000    0.000000    0.000000    0.000000    0.000000    0.000000
    0.010000    0.010242    0.010907    0.011731    0.012211    0.012499
    0.013572    0.015033    0.015908    0.017810    0.020453    0.020701
 Highest eigenvalues
    1.973008    2.083473    2.115747    2.203517    2.297764    2.393691


........................................................................
.............................. CYCLE   21 ..............................
........................................................................

 iter      E             dE          RMSdq      gap      omega  full diag
   1    -72.1976262 -0.721976E+02  0.783E-02    2.50       0.0  T
   2    -72.1976367 -0.105177E-04  0.454E-02    2.51       1.0  T
   3    -72.1976274  0.928554E-05  0.210E-02    2.51       1.0  T
   4    -72.1976408 -0.133746E-04  0.410E-03    2.51       3.8  T
   5    -72.1976412 -0.429976E-06  0.172E-03    2.51       9.0  T
   6    -72.1976412 -0.121792E-07  0.834E-04    2.51      18.5  T
   7    -72.1976413 -0.113902E-07  0.244E-04    2.51      63.3  T
     SCC iter.                  ...        0 min,  0.015 sec
     gradient                   ...        0 min,  0.024 sec
 * total energy  :   -71.3048418 Eh     change       -0.3900357E-04 Eh
   gradient norm :     0.0061636 Eh/α   predicted     0.0000000E+00 (-100.00%)
   displ. norm   :     0.0436033 α      lambda       -0.8793860E-04
   maximum displ.:     0.0225952 α      in ANC's #1, #4, #12, ...

........................................................................
.............................. CYCLE   22 ..............................
........................................................................

 iter      E             dE          RMSdq      gap      omega  full diag
   1    -72.1993549 -0.721994E+02  0.172E-02    2.51       0.0  T
   2    -72.1993556 -0.714565E-06  0.101E-02    2.51       1.5  T
   3    -72.1993554  0.200825E-06  0.386E-03    2.51       4.0  T
   4    -72.1993557 -0.301484E-06  0.114E-03    2.51      13.5  T
   5    -72.1993558 -0.418522E-07  0.373E-04    2.51      41.4  T
   6    -72.1993558 -0.176530E-08  0.174E-04    2.51      88.6  T
     SCC iter.                  ...        0 min,  0.013 sec
     gradient                   ...        0 min,  0.051 sec
 * total energy  :   -71.3049054 Eh     change       -0.6364322E-04 Eh
   gradient norm :     0.0026693 Eh/α   predicted    -0.4525471E-04 ( -28.89%)
   displ. norm   :     0.0667576 α      lambda       -0.4897463E-04
   maximum displ.:     0.0406970 α      in ANC's #1, #4, #8, ...

........................................................................
.............................. CYCLE   23 ..............................
........................................................................

 iter      E             dE          RMSdq      gap      omega  full diag
   1    -72.2003973 -0.722004E+02  0.203E-02    2.51       0.0  T
   2    -72.2003980 -0.712162E-06  0.119E-02    2.51       1.3  T
   3    -72.2003978  0.245365E-06  0.382E-03    2.51       4.0  T
   4    -72.2003981 -0.331326E-06  0.118E-03    2.51      13.1  T
   5    -72.2003981 -0.454949E-07  0.400E-04    2.51      38.5  T
   6    -72.2003982 -0.215637E-08  0.188E-04    2.51      82.2  T
     SCC iter.                  ...        0 min,  0.013 sec
     gradient                   ...        0 min,  0.024 sec
 * total energy  :   -71.3049379 Eh     change       -0.3247496E-04 Eh
   gradient norm :     0.0012668 Eh/α   predicted    -0.2459904E-04 ( -24.25%)
   displ. norm   :     0.1043210 α      lambda       -0.2519196E-04
   maximum displ.:     0.0671082 α      in ANC's #1, #4, #8, ...

........................................................................
.............................. CYCLE   24 ..............................
........................................................................

 iter      E             dE          RMSdq      gap      omega  full diag
   1    -72.2005512 -0.722006E+02  0.285E-02    2.51       0.0  T
   2    -72.2005517 -0.533659E-06  0.166E-02    2.51       1.0  T
   3    -72.2005513  0.377896E-06  0.385E-03    2.51       4.0  T
   4    -72.2005519 -0.511746E-06  0.107E-03    2.51      14.5  T
   5    -72.2005519 -0.275280E-07  0.498E-04    2.51      31.0  T
   6    -72.2005519 -0.211865E-08  0.232E-04    2.51      66.4  T
     SCC iter.                  ...        0 min,  0.013 sec
     gradient                   ...        0 min,  0.024 sec
 * total energy  :   -71.3049637 Eh     change       -0.2580312E-04 Eh
   gradient norm :     0.0026966 Eh/α   predicted    -0.1277842E-04 ( -50.48%)
   displ. norm   :     0.0695716 α      lambda       -0.2343057E-04
   maximum displ.:     0.0473798 α      in ANC's #1, #4, #8, ...

........................................................................
.............................. CYCLE   25 ..............................
........................................................................

 iter      E             dE          RMSdq      gap      omega  full diag
   1    -72.2001755 -0.722002E+02  0.183E-02    2.51       0.0  T
   2    -72.2001757 -0.203668E-06  0.107E-02    2.52       1.4  T
   3    -72.2001754  0.331479E-06  0.337E-03    2.52       4.6  T
   4    -72.2001758 -0.426177E-06  0.578E-04    2.52      26.7  T
   5    -72.2001758 -0.465529E-08  0.321E-04    2.52      48.1  T
     SCC iter.                  ...        0 min,  0.011 sec
     gradient                   ...        0 min,  0.024 sec
 * total energy  :   -71.3049827 Eh     change       -0.1905419E-04 Eh
   gradient norm :     0.0022820 Eh/α   predicted    -0.1177597E-04 ( -38.20%)
   displ. norm   :     0.1041557 α      lambda       -0.2974720E-04
   maximum displ.:     0.0719423 α      in ANC's #1, #8, #4, ...

........................................................................
.............................. CYCLE   26 ..............................
........................................................................

 iter      E             dE          RMSdq      gap      omega  full diag
   1    -72.1996199 -0.721996E+02  0.260E-02    2.52       0.0  T
   2    -72.1996208 -0.852199E-06  0.150E-02    2.52       1.0  T
   3    -72.1996200  0.808888E-06  0.610E-03    2.52       2.5  T
   4    -72.1996211 -0.111463E-05  0.103E-03    2.52      15.0  T
   5    -72.1996211 -0.255646E-07  0.505E-04    2.52      30.5  T
   6    -72.1996211 -0.636518E-09  0.260E-04    2.52      59.4  T
     SCC iter.                  ...        0 min,  0.013 sec
     gradient                   ...        0 min,  0.023 sec
 * total energy  :   -71.3050047 Eh     change       -0.2197824E-04 Eh
   gradient norm :     0.0013230 Eh/α   predicted    -0.1503534E-04 ( -31.59%)
   displ. norm   :     0.1348113 α      lambda       -0.1808146E-04
   maximum displ.:     0.0967506 α      in ANC's #1, #8, #4, ...

........................................................................
.............................. CYCLE   27 ..............................
........................................................................

 iter      E             dE          RMSdq      gap      omega  full diag
   1    -72.1993557 -0.721994E+02  0.322E-02    2.52       0.0  T
   2    -72.1993570 -0.134133E-05  0.186E-02    2.52       1.0  T
   3    -72.1993558  0.125408E-05  0.775E-03    2.52       2.0  T
   4    -72.1993575 -0.176225E-05  0.130E-03    2.52      11.9  T
   5    -72.1993576 -0.376903E-07  0.655E-04    2.52      23.5  T
   6    -72.1993576 -0.117653E-08  0.321E-04    2.52      48.1  T
     SCC iter.                  ...        0 min,  0.013 sec
     gradient                   ...        0 min,  0.024 sec
 * total energy  :   -71.3050248 Eh     change       -0.2005961E-04 Eh
   gradient norm :     0.0016520 Eh/α   predicted    -0.9115312E-05 ( -54.56%)
   displ. norm   :     0.0956719 α      lambda       -0.1530895E-04
   maximum displ.:     0.0709586 α      in ANC's #1, #8, #4, ...

........................................................................
.............................. CYCLE   28 ..............................
........................................................................

 iter      E             dE          RMSdq      gap      omega  full diag
   1    -72.1998187 -0.721998E+02  0.203E-02    2.52       0.0  T
   2    -72.1998192 -0.573303E-06  0.116E-02    2.53       1.3  T
   3    -72.1998188  0.473666E-06  0.480E-03    2.52       3.2  T
   4    -72.1998194 -0.676222E-06  0.871E-04    2.53      17.7  T
   5    -72.1998195 -0.159526E-07  0.432E-04    2.53      35.7  T
     SCC iter.                  ...        0 min,  0.011 sec
     gradient                   ...        0 min,  0.024 sec
 * total energy  :   -71.3050446 Eh     change       -0.1982581E-04 Eh
   gradient norm :     0.0015242 Eh/α   predicted    -0.7687000E-05 ( -61.23%)
   displ. norm   :     0.1492272 α      lambda       -0.2315141E-04
   maximum displ.:     0.1090418 α      in ANC's #1, #3, #8, ...

........................................................................
.............................. CYCLE   29 ..............................
........................................................................

 iter      E             dE          RMSdq      gap      omega  full diag
   1    -72.2001518 -0.722002E+02  0.308E-02    2.52       0.0  T
   2    -72.2001526 -0.846212E-06  0.178E-02    2.53       1.0  T
   3    -72.2001518  0.815935E-06  0.591E-03    2.52       2.6  T
   4    -72.2001529 -0.113780E-05  0.117E-03    2.53      13.2  T
   5    -72.2001529 -0.186942E-07  0.626E-04    2.53      24.7  T
   6    -72.2001529 -0.153908E-08  0.251E-04    2.53      61.6  T
     SCC iter.                  ...        0 min,  0.018 sec
     gradient                   ...        0 min,  0.024 sec
 * total energy  :   -71.3050735 Eh     change       -0.2892095E-04 Eh
   gradient norm :     0.0012879 Eh/α   predicted    -0.1169274E-04 ( -59.57%)
   displ. norm   :     0.2092637 α      lambda       -0.2738015E-04
   maximum displ.:     0.1508665 α      in ANC's #1, #3, #6, ...

........................................................................
.............................. CYCLE   30 ..............................
........................................................................

 iter      E             dE          RMSdq      gap      omega  full diag
   1    -72.2003127 -0.722003E+02  0.408E-02    2.52       0.0  T
   2    -72.2003140 -0.134787E-05  0.235E-02    2.53       1.0  T
   3    -72.2003125  0.152892E-05  0.753E-03    2.52       2.0  T
   4    -72.2003146 -0.207533E-05  0.151E-03    2.53      10.2  T
   5    -72.2003146 -0.304651E-07  0.804E-04    2.53      19.2  T
   6    -72.2003146 -0.283501E-08  0.295E-04    2.53      52.3  T
     SCC iter.                  ...        0 min,  0.013 sec
     gradient                   ...        0 min,  0.024 sec
 * total energy  :   -71.3051084 Eh     change       -0.3487626E-04 Eh
   gradient norm :     0.0015459 Eh/α   predicted    -0.1395753E-04 ( -59.98%)
   displ. norm   :     0.2907104 α      lambda       -0.3576302E-04
   maximum displ.:     0.2083791 α      in ANC's #1, #3, #6, ...

........................................................................
.............................. CYCLE   31 ..............................
........................................................................

 iter      E             dE          RMSdq      gap      omega  full diag
   1    -72.1999662 -0.722000E+02  0.570E-02    2.52       0.0  T
   2    -72.1999686 -0.240911E-05  0.328E-02    2.53       1.0  T
   3    -72.1999660  0.254018E-05  0.972E-03    2.52       1.6  T
   4    -72.1999695 -0.348816E-05  0.208E-03    2.53       7.4  T
   5    -72.1999696 -0.529733E-07  0.109E-03    2.53      14.1  T
   6    -72.1999696 -0.651941E-08  0.399E-04    2.53      38.7  T
   7    -72.1999696 -0.401255E-08  0.135E-04    2.53     114.5  T
     SCC iter.                  ...        0 min,  0.015 sec
     gradient                   ...        0 min,  0.024 sec
 * total energy  :   -71.3051563 Eh     change       -0.4784608E-04 Eh
   gradient norm :     0.0015135 Eh/α   predicted    -0.1855530E-04 ( -61.22%)
   displ. norm   :     0.4156986 α      lambda       -0.5450548E-04
   maximum displ.:     0.2951481 α      in ANC's #1, #3, #6, ...

........................................................................
.............................. CYCLE   32 ..............................
........................................................................

 iter      E             dE          RMSdq      gap      omega  full diag
   1    -72.1992697 -0.721993E+02  0.792E-02    2.52       0.0  T
   2    -72.1992739 -0.425384E-05  0.456E-02    2.52       1.0  T
   3    -72.1992693  0.462836E-05  0.128E-02    2.52       1.2  T
   4    -72.1992757 -0.634702E-05  0.285E-03    2.52       5.4  T
   5    -72.1992758 -0.902392E-07  0.147E-03    2.52      10.5  T
   6    -72.1992758 -0.126562E-07  0.503E-04    2.52      30.7  T
   7    -72.1992758 -0.663522E-08  0.165E-04    2.52      93.6  T
     SCC iter.                  ...        0 min,  0.015 sec
     gradient                   ...        0 min,  0.039 sec
 * total energy  :   -71.3052286 Eh     change       -0.7230689E-04 Eh
   gradient norm :     0.0022083 Eh/α   predicted    -0.2935078E-04 ( -59.41%)
   displ. norm   :     0.4714600 α      lambda       -0.9511069E-04
   maximum displ.:     0.3366388 α      in ANC's #1, #3, #6, ...

........................................................................
.............................. CYCLE   33 ..............................
........................................................................

 iter      E             dE          RMSdq      gap      omega  full diag
   1    -72.1980362 -0.721980E+02  0.883E-02    2.52       0.0  T
   2    -72.1980409 -0.467542E-05  0.509E-02    2.52       1.0  T
   3    -72.1980367  0.422297E-05  0.126E-02    2.52       1.2  T
   4    -72.1980427 -0.606462E-05  0.317E-03    2.52       4.9  T
   5    -72.1980428 -0.976804E-07  0.160E-03    2.52       9.7  T
   6    -72.1980428 -0.177815E-07  0.532E-04    2.52      29.0  T
   7    -72.1980428 -0.720267E-08  0.178E-04    2.52      86.6  T
     SCC iter.                  ...        0 min,  0.015 sec
     gradient                   ...        0 min,  0.024 sec
 * total energy  :   -71.3053044 Eh     change       -0.7585835E-04 Eh
   gradient norm :     0.0041421 Eh/α   predicted    -0.5813098E-04 ( -23.37%)
   displ. norm   :     0.4532524 α      lambda       -0.1046119E-03
   maximum displ.:     0.3247764 α      in ANC's #1, #6, #3, ...

........................................................................
.............................. CYCLE   34 ..............................
........................................................................

 iter      E             dE          RMSdq      gap      omega  full diag
   1    -72.1975762 -0.721976E+02  0.835E-02    2.52       0.0  T
   2    -72.1975800 -0.385109E-05  0.481E-02    2.52       1.0  T
   3    -72.1975778  0.216719E-05  0.977E-03    2.52       1.6  T
   4    -72.1975814 -0.352213E-05  0.307E-03    2.52       5.0  T
   5    -72.1975815 -0.100321E-06  0.147E-03    2.52      10.5  T
   6    -72.1975815 -0.168940E-07  0.464E-04    2.52      33.3  T
   7    -72.1975815 -0.495987E-08  0.160E-04    2.52      96.3  T
     SCC iter.                  ...        0 min,  0.015 sec
     gradient                   ...        0 min,  0.038 sec
 * total energy  :   -71.3053811 Eh     change       -0.7669889E-04 Eh
   gradient norm :     0.0058316 Eh/α   predicted    -0.6305963E-04 ( -17.78%)
   displ. norm   :     0.3016381 α      lambda       -0.1458401E-03
   maximum displ.:     0.2099586 α      in ANC's #1, #6, #3, ...

........................................................................
.............................. CYCLE   35 ..............................
........................................................................

 iter      E             dE          RMSdq      gap      omega  full diag
   1    -72.2008111 -0.722008E+02  0.572E-02    2.52       0.0  T
   2    -72.2008139 -0.278206E-05  0.329E-02    2.52       1.0  T
   3    -72.2008132  0.702666E-06  0.655E-03    2.52       2.4  T
   4    -72.2008145 -0.133505E-05  0.246E-03    2.52       6.3  T
   5    -72.2008146 -0.112589E-06  0.116E-03    2.52      13.2  T
   6    -72.2008146 -0.955575E-08  0.364E-04    2.52      42.3  T
   7    -72.2008146 -0.234539E-08  0.118E-04    2.52     130.9  T
     SCC iter.                  ...        0 min,  0.015 sec
     gradient                   ...        0 min,  0.024 sec
 * total energy  :   -71.3054809 Eh     change       -0.9981128E-04 Eh
   gradient norm :     0.0053894 Eh/α   predicted    -0.7955895E-04 ( -20.29%)
   displ. norm   :     0.5520132 α      lambda       -0.1602024E-03
   maximum displ.:     0.4021460 α      in ANC's #1, #6, #3, ...

........................................................................
.............................. CYCLE   36 ..............................
........................................................................

 iter      E             dE          RMSdq      gap      omega  full diag
   1    -72.1985682 -0.721986E+02  0.102E-01    2.52       0.0  T
   2    -72.1985736 -0.543776E-05  0.589E-02    2.52       1.0  T
   3    -72.1985718  0.185830E-05  0.109E-02    2.52       1.4  T
   4    -72.1985756 -0.379165E-05  0.375E-03    2.52       4.1  T
   5    -72.1985757 -0.115869E-06  0.186E-03    2.52       8.3  T
   6    -72.1985757 -0.493653E-07  0.518E-04    2.52      29.8  T
   7    -72.1985757 -0.573804E-08  0.203E-04    2.52      75.9  T
     SCC iter.                  ...        0 min,  0.034 sec
     gradient                   ...        0 min,  0.024 sec
 * total energy  :   -71.3055973 Eh     change       -0.1163213E-03 Eh
   gradient norm :     0.0069790 Eh/α   predicted    -0.1045206E-03 ( -10.14%)
   displ. norm   :     0.3587082 α      lambda       -0.2282821E-03
   maximum displ.:     0.2411515 α      in ANC's #1, #6, #3, ...

........................................................................
.............................. CYCLE   37 ..............................
........................................................................

 iter      E             dE          RMSdq      gap      omega  full diag
   1    -72.2008306 -0.722008E+02  0.676E-02    2.52       0.0  T
   2    -72.2008346 -0.399158E-05  0.388E-02    2.52       1.0  T
   3    -72.2008315  0.309245E-05  0.116E-02    2.52       1.3  T
   4    -72.2008360 -0.444775E-05  0.271E-03    2.52       5.7  T
   5    -72.2008361 -0.940442E-07  0.133E-03    2.52      11.6  T
   6    -72.2008361 -0.132039E-07  0.528E-04    2.52      29.2  T
   7    -72.2008361 -0.719263E-08  0.131E-04    2.52     117.9  T
     SCC iter.                  ...        0 min,  0.015 sec
     gradient                   ...        0 min,  0.024 sec
 * total energy  :   -71.3057635 Eh     change       -0.1662778E-03 Eh
   gradient norm :     0.0058256 Eh/α   predicted    -0.1288356E-03 ( -22.52%)
   displ. norm   :     0.5802434 α      lambda       -0.2598645E-03
   maximum displ.:     0.3915729 α      in ANC's #1, #6, #3, ...

........................................................................
.............................. CYCLE   38 ..............................
........................................................................

 iter      E             dE          RMSdq      gap      omega  full diag
   1    -72.1989129 -0.721989E+02  0.103E-01    2.53       0.0  T
   2    -72.1989193 -0.636917E-05  0.595E-02    2.53       1.0  T
   3    -72.1989165  0.279126E-05  0.124E-02    2.53       1.2  T
   4    -72.1989212 -0.472148E-05  0.381E-03    2.53       4.1  T
   5    -72.1989213 -0.145156E-06  0.187E-03    2.53       8.2  T
   6    -72.1989214 -0.335518E-07  0.671E-04    2.53      23.0  T
   7    -72.1989214 -0.959528E-08  0.165E-04    2.53      93.8  T
     SCC iter.                  ...        0 min,  0.015 sec
     gradient                   ...        0 min,  0.024 sec
 * total energy  :   -71.3059584 Eh     change       -0.1948263E-03 Eh
   gradient norm :     0.0072769 Eh/α   predicted    -0.1736910E-03 ( -10.85%)
   displ. norm   :     0.4396028 α      lambda       -0.4519823E-03
   maximum displ.:     0.2013863 α      in ANC's #2, #6, #1, ...

........................................................................
.............................. CYCLE   39 ..............................
........................................................................

 iter      E             dE          RMSdq      gap      omega  full diag
   1    -72.2024218 -0.722024E+02  0.879E-02    2.53       0.0  T
   2    -72.2024269 -0.513303E-05  0.507E-02    2.53       1.0  T
   3    -72.2024270 -0.125571E-06  0.670E-03    2.53       2.3  T
   4    -72.2024279 -0.876089E-06  0.289E-03    2.54       5.3  T
   5    -72.2024281 -0.144221E-06  0.152E-03    2.53      10.2  T
   6    -72.2024281 -0.314903E-07  0.435E-04    2.53      35.5  T
   7    -72.2024281 -0.381144E-08  0.165E-04    2.53      93.6  T
     SCC iter.                  ...        0 min,  0.015 sec
     gradient                   ...        0 min,  0.038 sec
 * total energy  :   -71.3061916 Eh     change       -0.2332400E-03 Eh
   gradient norm :     0.0105472 Eh/α   predicted    -0.2696725E-03 (  15.62%)
   displ. norm   :     0.5808728 α      lambda       -0.3467547E-03
   maximum displ.:     0.3842774 α      in ANC's #1, #6, #3, ...

........................................................................
.............................. CYCLE   40 ..............................
........................................................................

 iter      E             dE          RMSdq      gap      omega  full diag
   1    -72.1959557 -0.721960E+02  0.101E-01    2.55       0.0  T
   2    -72.1959625 -0.678335E-05  0.587E-02    2.54       1.0  T
   3    -72.1959596  0.291095E-05  0.118E-02    2.55       1.3  T
   4    -72.1959642 -0.466121E-05  0.349E-03    2.54       4.4  T
   5    -72.1959644 -0.171327E-06  0.179E-03    2.54       8.6  T
   6    -72.1959644 -0.273469E-07  0.536E-04    2.54      28.8  T
   7    -72.1959644 -0.694592E-08  0.196E-04    2.54      78.7  T
     SCC iter.                  ...        0 min,  0.015 sec
     gradient                   ...        0 min,  0.024 sec
 * total energy  :   -71.3063919 Eh     change       -0.2002856E-03 Eh
   gradient norm :     0.0090936 Eh/α   predicted    -0.2318863E-03 (  15.78%)
   displ. norm   :     0.1785661 α      lambda       -0.3367172E-03
   maximum displ.:     0.1127339 α      in ANC's #5, #2, #7, ...

........................................................................
.............................. CYCLE   41 ..............................
........................................................................

 iter      E             dE          RMSdq      gap      omega  full diag
   1    -72.1989213 -0.721989E+02  0.529E-02    2.54       0.0  T
   2    -72.1989266 -0.534420E-05  0.312E-02    2.54       1.0  T
   3    -72.1989237  0.285829E-05  0.138E-02    2.54       1.1  T
   4    -72.1989280 -0.423938E-05  0.273E-03    2.54       5.7  T
   5    -72.1989282 -0.166597E-06  0.116E-03    2.55      13.3  T
   6    -72.1989282 -0.167909E-07  0.620E-04    2.54      24.9  T
   7    -72.1989282 -0.397773E-08  0.203E-04    2.54      75.9  T
     SCC iter.                  ...        0 min,  0.015 sec
     gradient                   ...        0 min,  0.039 sec
 * total energy  :   -71.3065431 Eh     change       -0.1512178E-03 Eh
   gradient norm :     0.0082135 Eh/α   predicted    -0.1737263E-03 (  14.88%)
   displ. norm   :     0.3344582 α      lambda       -0.2250051E-03
   maximum displ.:     0.1560695 α      in ANC's #2, #1, #6, ...

........................................................................
.............................. CYCLE   42 ..............................
........................................................................

 iter      E             dE          RMSdq      gap      omega  full diag
   1    -72.1990596 -0.721991E+02  0.598E-02    2.55       0.0  T
   2    -72.1990614 -0.183417E-05  0.347E-02    2.55       1.0  T
   3    -72.1990606  0.797235E-06  0.612E-03    2.55       2.5  T
   4    -72.1990618 -0.119494E-05  0.218E-03    2.55       7.1  T
   5    -72.1990619 -0.105674E-06  0.958E-04    2.55      16.1  T
   6    -72.1990619 -0.360197E-08  0.338E-04    2.55      45.7  T
     SCC iter.                  ...        0 min,  0.013 sec
     gradient                   ...        0 min,  0.024 sec
 * total energy  :   -71.3067123 Eh     change       -0.1691847E-03 Eh
   gradient norm :     0.0062300 Eh/α   predicted    -0.1250847E-03 ( -26.07%)
   displ. norm   :     0.3574438 α      lambda       -0.2105179E-03
   maximum displ.:     0.1928370 α      in ANC's #2, #1, #6, ...
 * RMSD in coord.:     0.8341959 α      energy gain  -0.1909515E-02 Eh

generating ANC from exact Hessian ...
Using Lindh-Hessian (1995)
 Shifting diagonal of input Hessian by    9.6130923739624896E-003
 Lowest  eigenvalues of input Hessian
    0.000000    0.000000    0.000000    0.000000    0.000000    0.000000
    0.010000    0.010237    0.011121    0.011854    0.012207    0.012341
    0.013604    0.015219    0.015796    0.017455    0.020390    0.021186
 Highest eigenvalues
    1.969005    2.071830    2.113452    2.201759    2.299081    2.399269


........................................................................
.............................. CYCLE   43 ..............................
........................................................................

 iter      E             dE          RMSdq      gap      omega  full diag
   1    -72.2002899 -0.722003E+02  0.635E-02    2.55       0.0  T
   2    -72.2002925 -0.256249E-05  0.367E-02    2.55       1.0  T
   3    -72.2002911  0.137185E-05  0.796E-03    2.55       1.9  T
   4    -72.2002931 -0.202848E-05  0.229E-03    2.55       6.7  T
   5    -72.2002932 -0.101407E-06  0.114E-03    2.55      13.5  T
   6    -72.2002932 -0.916079E-08  0.386E-04    2.55      39.9  T
   7    -72.2002932 -0.255177E-08  0.150E-04    2.55     103.2  T
     SCC iter.                  ...        0 min,  0.015 sec
     gradient                   ...        0 min,  0.024 sec
 * total energy  :   -71.3068504 Eh     change       -0.1380860E-03 Eh
   gradient norm :     0.0049127 Eh/α   predicted     0.0000000E+00 (-100.00%)
   displ. norm   :     0.0488199 α      lambda       -0.7376113E-04
   maximum displ.:     0.0273937 α      in ANC's #3, #2, #4, ...

........................................................................
.............................. CYCLE   44 ..............................
........................................................................

 iter      E             dE          RMSdq      gap      omega  full diag
   1    -72.2013227 -0.722013E+02  0.152E-02    2.54       0.0  T
   2    -72.2013232 -0.516613E-06  0.889E-03    2.54       1.7  T
   3    -72.2013230  0.185165E-06  0.358E-03    2.54       4.3  T
   4    -72.2013233 -0.272032E-06  0.865E-04    2.54      17.8  T
   5    -72.2013233 -0.204958E-07  0.292E-04    2.54      52.8  T
     SCC iter.                  ...        0 min,  0.011 sec
     gradient                   ...        0 min,  0.039 sec
 * total energy  :   -71.3069041 Eh     change       -0.5371323E-04 Eh
   gradient norm :     0.0019210 Eh/α   predicted    -0.3724536E-04 ( -30.66%)
   displ. norm   :     0.1345850 α      lambda       -0.5754726E-04
   maximum displ.:     0.0819123 α      in ANC's #3, #2, #4, ...

........................................................................
.............................. CYCLE   45 ..............................
........................................................................

 iter      E             dE          RMSdq      gap      omega  full diag
   1    -72.2025316 -0.722025E+02  0.270E-02    2.54       0.0  T
   2    -72.2025332 -0.158540E-05  0.157E-02    2.54       1.0  T
   3    -72.2025327  0.451093E-06  0.654E-03    2.54       2.4  T
   4    -72.2025335 -0.758983E-06  0.133E-03    2.54      11.6  T
   5    -72.2025335 -0.372908E-07  0.487E-04    2.54      31.7  T
   6    -72.2025335 -0.186049E-08  0.276E-04    2.54      55.9  T
     SCC iter.                  ...        0 min,  0.013 sec
     gradient                   ...        0 min,  0.024 sec
 * total energy  :   -71.3069518 Eh     change       -0.4771038E-04 Eh
   gradient norm :     0.0031752 Eh/α   predicted    -0.2901049E-04 ( -39.19%)
   displ. norm   :     0.0629925 α      lambda       -0.2847063E-04
   maximum displ.:     0.0360529 α      in ANC's #3, #2, #4, ...

........................................................................
.............................. CYCLE   46 ..............................
........................................................................

 iter      E             dE          RMSdq      gap      omega  full diag
   1    -72.2023786 -0.722024E+02  0.106E-02    2.54       0.0  T
   2    -72.2023786 -0.562704E-07  0.616E-03    2.54       2.5  T
   3    -72.2023786  0.488168E-07  0.156E-03    2.54       9.9  T
   4    -72.2023786 -0.704375E-07  0.331E-04    2.54      46.6  T
   5    -72.2023786 -0.844636E-09  0.183E-04    2.54      84.3  T
     SCC iter.                  ...        0 min,  0.011 sec
     gradient                   ...        0 min,  0.041 sec
 * total energy  :   -71.3069769 Eh     change       -0.2506267E-04 Eh
   gradient norm :     0.0026908 Eh/α   predicted    -0.1429213E-04 ( -42.97%)
   displ. norm   :     0.1782460 α      lambda       -0.7181765E-04
   maximum displ.:     0.0976562 α      in ANC's #3, #2, #4, ...

........................................................................
.............................. CYCLE   47 ..............................
........................................................................

 iter      E             dE          RMSdq      gap      omega  full diag
   1    -72.2016078 -0.722016E+02  0.301E-02    2.54       0.0  T
   2    -72.2016083 -0.461842E-06  0.175E-02    2.54       1.0  T
   3    -72.2016075  0.799272E-06  0.536E-03    2.54       2.9  T
   4    -72.2016085 -0.101689E-05  0.101E-03    2.54      15.2  T
   5    -72.2016085 -0.109392E-07  0.545E-04    2.54      28.3  T
   6    -72.2016085 -0.243507E-08  0.199E-04    2.54      77.4  T
     SCC iter.                  ...        0 min,  0.013 sec
     gradient                   ...        0 min,  0.024 sec
 * total energy  :   -71.3070262 Eh     change       -0.4935329E-04 Eh
   gradient norm :     0.0013392 Eh/α   predicted    -0.3706575E-04 ( -24.90%)
   displ. norm   :     0.2046519 α      lambda       -0.2842889E-04
   maximum displ.:     0.1164075 α      in ANC's #2, #3, #4, ...

........................................................................
.............................. CYCLE   48 ..............................
........................................................................

 iter      E             dE          RMSdq      gap      omega  full diag
   1    -72.2011691 -0.722012E+02  0.321E-02    2.54       0.0  T
   2    -72.2011700 -0.867574E-06  0.186E-02    2.54       1.0  T
   3    -72.2011687  0.130158E-05  0.696E-03    2.54       2.2  T
   4    -72.2011704 -0.168641E-05  0.125E-03    2.54      12.3  T
   5    -72.2011704 -0.224964E-07  0.646E-04    2.54      23.9  T
   6    -72.2011704 -0.296812E-08  0.270E-04    2.54      57.2  T
     SCC iter.                  ...        0 min,  0.013 sec
     gradient                   ...        0 min,  0.045 sec
 * total energy  :   -71.3070491 Eh     change       -0.2284661E-04 Eh
   gradient norm :     0.0020762 Eh/α   predicted    -0.1448169E-04 ( -36.61%)
   displ. norm   :     0.0392840 α      lambda       -0.1294293E-04
   maximum displ.:     0.0241677 α      in ANC's #2, #5, #1, ...

........................................................................
.............................. CYCLE   49 ..............................
........................................................................

 iter      E             dE          RMSdq      gap      omega  full diag
   1    -72.2015373 -0.722015E+02  0.712E-03    2.54       0.0  T
   2    -72.2015374 -0.838255E-07  0.409E-03    2.54       3.8  T
   3    -72.2015373  0.655193E-07  0.174E-03    2.54       8.9  T
   4    -72.2015374 -0.915025E-07  0.362E-04    2.54      42.7  T
   5    -72.2015374 -0.279078E-08  0.163E-04    2.54      94.6  T
     SCC iter.                  ...        0 min,  0.011 sec
     gradient                   ...        0 min,  0.024 sec
 * total energy  :   -71.3070604 Eh     change       -0.1138517E-04 Eh
   gradient norm :     0.0014623 Eh/α   predicted    -0.6482117E-05 ( -43.07%)
   displ. norm   :     0.1888715 α      lambda       -0.3602477E-04
   maximum displ.:     0.1115271 α      in ANC's #2, #5, #1, ...

........................................................................
.............................. CYCLE   50 ..............................
........................................................................

 iter      E             dE          RMSdq      gap      omega  full diag
   1    -72.2024868 -0.722025E+02  0.344E-02    2.54       0.0  T
   2    -72.2024885 -0.175396E-05  0.198E-02    2.54       1.0  T
   3    -72.2024871  0.139330E-05  0.786E-03    2.54       2.0  T
   4    -72.2024891 -0.192520E-05  0.161E-03    2.54       9.6  T
   5    -72.2024891 -0.536545E-07  0.744E-04    2.54      20.7  T
   6    -72.2024891 -0.208152E-08  0.354E-04    2.54      43.5  T
     SCC iter.                  ...        0 min,  0.013 sec
     gradient                   ...        0 min,  0.033 sec
 * total energy  :   -71.3070887 Eh     change       -0.2822012E-04 Eh
   gradient norm :     0.0017170 Eh/α   predicted    -0.1829887E-04 ( -35.16%)
   displ. norm   :     0.0859365 α      lambda       -0.9903137E-05
   maximum displ.:     0.0520197 α      in ANC's #2, #5, #1, ...

........................................................................
.............................. CYCLE   51 ..............................
........................................................................

 iter      E             dE          RMSdq      gap      omega  full diag
   1    -72.2019584 -0.722020E+02  0.151E-02    2.54       0.0  T
   2    -72.2019586 -0.131761E-06  0.870E-03    2.54       1.8  T
   3    -72.2019585  0.692431E-07  0.197E-03    2.54       7.8  T
   4    -72.2019586 -0.106734E-06  0.488E-04    2.54      31.6  T
   5    -72.2019586 -0.251239E-08  0.247E-04    2.54      62.5  T
     SCC iter.                  ...        0 min,  0.011 sec
     gradient                   ...        0 min,  0.024 sec
 * total energy  :   -71.3071013 Eh     change       -0.1261091E-04 Eh
   gradient norm :     0.0013120 Eh/α   predicted    -0.4968964E-05 ( -60.60%)
   displ. norm   :     0.1337364 α      lambda       -0.1804253E-04
   maximum displ.:     0.0732377 α      in ANC's #2, #1, #5, ...

........................................................................
.............................. CYCLE   52 ..............................
........................................................................

 iter      E             dE          RMSdq      gap      omega  full diag
   1    -72.2015335 -0.722015E+02  0.242E-02    2.54       0.0  T
   2    -72.2015337 -0.209343E-06  0.140E-02    2.54       1.1  T
   3    -72.2015336  0.120588E-06  0.212E-03    2.54       7.3  T
   4    -72.2015338 -0.185205E-06  0.728E-04    2.54      21.2  T
   5    -72.2015338 -0.901613E-08  0.309E-04    2.54      50.0  T
     SCC iter.                  ...        0 min,  0.011 sec
     gradient                   ...        0 min,  0.039 sec
 * total energy  :   -71.3071188 Eh     change       -0.1756867E-04 Eh
   gradient norm :     0.0006601 Eh/α   predicted    -0.9096445E-05 ( -48.22%)
   displ. norm   :     0.0824678 α      lambda       -0.5843831E-05
   maximum displ.:     0.0482198 α      in ANC's #1, #2, #5, ...

........................................................................
.............................. CYCLE   53 ..............................
........................................................................

 iter      E             dE          RMSdq      gap      omega  full diag
   1    -72.2013595 -0.722014E+02  0.151E-02    2.54       0.0  T
   2    -72.2013596 -0.855814E-07  0.877E-03    2.54       1.8  T
   3    -72.2013596  0.521645E-08  0.957E-04    2.54      16.1  T
   4    -72.2013596 -0.240565E-07  0.428E-04    2.54      36.0  T
     SCC iter.                  ...        0 min,  0.009 sec
     gradient                   ...        0 min,  0.024 sec
 * total energy  :   -71.3071247 Eh     change       -0.5867401E-05 Eh
   gradient norm :     0.0007046 Eh/α   predicted    -0.2931790E-05 ( -50.03%)
   displ. norm   :     0.0501117 α      lambda       -0.3577700E-05
   maximum displ.:     0.0332579 α      in ANC's #1, #2, #5, ...

........................................................................
.............................. CYCLE   54 ..............................
........................................................................

 iter      E             dE          RMSdq      gap      omega  full diag
   1    -72.2015448 -0.722015E+02  0.802E-03    2.54       0.0  T
   2    -72.2015449 -0.203464E-07  0.468E-03    2.54       3.3  T
   3    -72.2015448  0.837004E-08  0.705E-04    2.54      21.9  T
   4    -72.2015449 -0.150188E-07  0.205E-04    2.54      75.3  T
     SCC iter.                  ...        0 min,  0.009 sec
     gradient                   ...        0 min,  0.035 sec
 * total energy  :   -71.3071293 Eh     change       -0.4542250E-05 Eh
   gradient norm :     0.0004912 Eh/α   predicted    -0.1793425E-05 ( -60.52%)
   displ. norm   :     0.0640195 α      lambda       -0.5123693E-05
   maximum displ.:     0.0436346 α      in ANC's #1, #2, #4, ...

   *** GEOMETRY OPTIMIZATION CONVERGED AFTER 54 ITERATIONS ***

------------------------------------------------------------------------
 total energy gain   :        -0.0220128 Eh      -13.8132 kcal/mol
 total RMSD          :         1.7014086 a0        0.9003 Å
 total power (kW/mol):        -1.0702688 (step)  -18.8072 (real)
------------------------------------------------------------------------

 ANCopt (total)                0 d,  0 h,  0 min,  3.073 sec
 optimizer setup                ...        0 min,  0.000 sec (  0.002%)
 model hessian                  ...        0 min,  0.045 sec (  1.453%)
 ANC generation                 ...        0 min,  0.004 sec (  0.145%)
 coordinate transformation      ...        0 min,  0.000 sec (  0.014%)
 single point calculation       ...        0 min,  3.010 sec ( 97.939%)
 optimization log               ...        0 min,  0.007 sec (  0.229%)
 hessian update                 ...        0 min,  0.001 sec (  0.023%)
 rational function              ...        0 min,  0.004 sec (  0.139%)

================
 final structure:
================
42
 xtb: 6.7.1 (edcfbbe)
O           -6.00012692917703        0.36208556073827        0.15970387439300
C           -5.24202302778284        0.32979216702459        1.10643919206085
O           -5.67588137162511        0.33649662337327        2.36288304674996
C           -3.77493137171472        0.29555345689508        0.96571610626954
C           -3.28979774542237        0.48371577821382       -0.29307742755673
N           -1.98684948320456        0.49210221776128       -0.62222453565547
C           -1.03136204921676        0.37099574870727        0.37675400743105
C            0.32705315648887        0.46520668756843        0.08267226651129
C            1.32145938210799        0.34921778703572        1.05842329689138
N            2.65310448222977        0.53001342418384        0.77854482088847
C            3.08896749096678        1.03663273871710       -0.50420354292424
C            3.39017723186258       -0.10482265258014       -1.48229776247888
N            4.42289763434591       -0.92941131820679       -0.88416830204541
C            3.97975022897356       -1.48116026078266        0.38317434177251
C            3.67802626661249       -0.32557318398180        1.34520758396445
C            0.85852683411848        0.12886002835680        2.37630558381698
F            1.74159288089535        0.05566475820958        3.40435192146513
C           -0.46935388238086        0.02105007392523        2.68173183925483
C           -1.45110454811562        0.14332524339119        1.69540122375177
C           -2.86852093728683        0.05178405712650        2.08781812126416
O           -3.20742456823501       -0.20726605395840        3.22832129317526
C           -1.60227209573789        0.66855111708229       -1.99170108360336
C           -0.94442033760145       -0.47021986021829       -2.71992004919064
C           -2.34516005118957       -0.07047293376143       -3.06312214096761
H           -6.64530233375063        0.34642911235983        2.38144094532340
H           -3.99367227649837        0.64645204259516       -1.09842643812621
H            0.61725093343676        0.62559175432532       -0.94006942934413
H            4.02069489776618        1.58431700524555       -0.32969192242988
H            2.35384560574703        1.73137438033235       -0.90874839460663
H            3.76508967902539        0.29970392549867       -2.42491210525936
H            2.46304801494414       -0.67259921431898       -1.68430506155564
H            4.70616730511144       -1.66904253863540       -1.51837472083550
H            4.77897472257497       -2.10060566878105        0.79352576708838
H            3.07045970499143       -2.10209067002897        0.27756363849360
H            4.58393455389152        0.27298294414474        1.47610278257311
H            3.37763601062812       -0.72257776955448        2.30942400321545
H           -0.78338914413854       -0.13815541534163        3.70174251316543
H           -1.26180473812167        1.67602687930475       -2.21472929544812
H           -0.14910794790494       -0.24501008874029       -3.41434893234548
H           -0.80673571571475       -1.39296434199458       -2.17713658901830
H           -3.14190764618098       -0.73447297140710       -2.76650424271797
[...]
     DOI: 10.1002/anie.202004239
   
   for ALPB and GBSA implicit solvation:
   * S. Ehlert, M. Stahn, S. Spicher, S. Grimme, J. Chem. Theory Comput.,
     2021, 17, 4250-4261. DOI: 10.1021/acs.jctc.1c00471
   
   for ddCOSMO and CPCM-X implicit solvation:
   * M. Stahn, S. Ehlert, S. Grimme, J. Phys. Chem. A,
     2023, XX, XXXX-XXXX. DOI: 10.1021/acs.jpca.3c04382
   
   for DFT-D4:
   * E. Caldeweyher, C. Bannwarth and S. Grimme, J. Chem. Phys., 2017,
     147, 034112. DOI: 10.1063/1.4993215
   * E. Caldeweyher, S. Ehlert, A. Hansen, H. Neugebauer, S. Spicher,
     C. Bannwarth and S. Grimme, J. Chem. Phys., 2019, 150, 154122.
     DOI: 10.1063/1.5090222
   * E. Caldeweyher, J.-M. Mewes, S. Ehlert and S. Grimme, Phys. Chem. Chem. Phys.
     2020, 22, 8499-8512. DOI: 10.1039/D0CP00502A
   
   for sTDA-xTB:
   * S. Grimme and C. Bannwarth, J. Chem. Phys., 2016, 145, 054103.
     DOI: 10.1063/1.4959605
   
   in the mass-spec context:
   * V. Asgeirsson, C. Bauer and S. Grimme, Chem. Sci., 2017, 8, 4879.
     DOI: 10.1039/c7sc00601b
   * J. Koopman and S. Grimme, ACS Omega 2019, 4, 12, 15120-15133.
     DOI: 10.1021/acsomega.9b02011
   
   for metadynamics refer to:
   * S. Grimme, J. Chem. Theory Comput., 2019, 155, 2847-2862
     DOI: 10.1021/acs.jctc.9b00143
   
   for SPH calculations refer to:
   * S. Spicher and S. Grimme, J. Chem. Theory Comput., 2021, 17, 1701-1714
     DOI: 10.1021/acs.jctc.0c01306
   
   for ONIOM refer to:
   * C. Plett, A. Katbashev, S. Ehlert, S. Grimme, M. Bursch,
     Phys. Chem. Chem. Phys., 2023, 25, 17860-17868. DOI: 10.1039/D3CP02178E
   
   for DIPRO refer to:
   * J. Kohn, N. Gildemeister, S. Grimme, D. Fazzi, A. Hansen,
     J. Chem. Phys., 2023, just accepted.
   
   for PTB refer to:
   * S. Grimme, M. Mueller, A. Hansen, J. Chem. Phys., 2023, 158, 124111.
     DOI: 10.1063/5.0137838
   
   with help from (in alphabetical order)
   P. Atkinson, C. Bannwarth, F. Bohle, G. Brandenburg, E. Caldeweyher
   M. Checinski, S. Dohm, S. Ehlert, S. Ehrlich, I. Gerasimov, C. Hölzer
   A. Katbashev, J. Kohn, J. Koopman, C. Lavigne, S. Lehtola, F. März, M. Müller,
   F. Musil, H. Neugebauer, J. Pisarek, C. Plett, P. Pracht, F. Pultar,
   J. Seibert, P. Shushkov, S. Spicher, M. Stahn, M. Steiner, T. Strunk,
   J. Stückrath, T. Rose, and J. Unsleber
   
 * started run on 2025/05/15 at 16:10:40.742     
   ID    Z sym.   atoms
    1    8 O      1, 3, 21
    2    6 C      2, 4, 5, 7-9, 11, 12, 14-16, 18-20, 22-24
    3    7 N      6, 10, 13
    4    9 F      17
    5    1 H      25-42

           -------------------------------------------------
          |                Calculation Setup                |
           -------------------------------------------------

          program call               : xtb /rds/general/user/hgt20/home/callum/QDESCP/Ciprofloxacin_rdkit_conf_2/Ciprofloxacin_rdkit_conf_2.xyz --acc 1 --gfn 2 --chrg 0 --uhf 2 --etemp 300 --input /rds/general/user/hgt20/home/callum/QDESCP/Ciprofloxacin_rdkit_conf_2/Ciprofloxacin_rdkit_conf_2_xtb.inp -P 1
          hostname                   : login-c
          coordinate file            : /rds/general/user/hgt20/home/callum/QDESCP/Ciprofloxacin_rdkit_conf_2/Ciprofloxacin_rdkit_conf_2.xyz
          omp threads                :                     1


           -------------------------------------------------
          |                 G F N 2 - x T B                 |
           -------------------------------------------------

        Reference                      10.1021/acs.jctc.8b01176
      * Hamiltonian:
        H0-scaling (s, p, d)           1.850000    2.230000    2.230000
        zeta-weighting                 0.500000
      * Dispersion:
        s8                             2.700000
        a1                             0.520000
        a2                             5.000000
        s9                             5.000000
      * Repulsion:
        kExp                           1.500000    1.000000
        rExp                           1.000000
      * Coulomb:
        alpha                          2.000000
        third order                    shell-resolved
        anisotropic                    true
        a3                             3.000000
        a5                             4.000000
        cn-shift                       1.200000
        cn-exp                         4.000000
        max-rad                        5.000000


          ...................................................
          :                      SETUP                      :
          :.................................................:
          :  # basis functions                 114          :
          :  # atomic orbitals                 114          :
          :  # shells                           66          :
          :  # electrons                       126          :
          :  max. iterations                   250          :
          :  Hamiltonian                  GFN2-xTB          :
          :  restarted?                      false          :
          :  GBSA solvation                  false          :
          :  PC potential                    false          :
          :  electronic temp.          300.0000000     K    :
          :  accuracy                    1.0000000          :
          :  -> integral cutoff          0.2500000E+02      :
          :  -> integral neglect         0.1000000E-07      :
          :  -> SCF convergence          0.1000000E-05 Eh   :
          :  -> wf. convergence          0.1000000E-03 e    :
          :  Broyden damping             0.4000000          :
          :  net charge                          0          :
          :  unpaired electrons                  2          :
          ...................................................

 iter      E             dE          RMSdq      gap      omega  full diag
   1    -71.8167931 -0.718168E+02  0.403E+00    0.20       0.0  T
   2    -71.8194788 -0.268574E-02  0.309E+00    0.10       1.0  T
   3    -71.9274919 -0.108013E+00  0.230E+00    0.56       1.0  T
   4    -71.9717397 -0.442478E-01  0.143E+00    0.28       1.0  T
   5    -71.9591271  0.126126E-01  0.140E+00    0.32       1.0  T
   6    -72.0698673 -0.110740E+00  0.575E-01    0.23       1.0  T
   7    -72.0534396  0.164278E-01  0.706E-01    0.16       1.0  T
   8    -72.0798468 -0.264073E-01  0.502E-01    0.12       1.0  T
   9    -72.0868917 -0.704492E-02  0.329E-01    0.14       1.0  T
  10    -72.0934414 -0.654964E-02  0.119E-01    0.14       1.0  T
  11    -72.0941841 -0.742722E-03  0.632E-02    0.13       1.0  T
  12    -72.0943685 -0.184436E-03  0.362E-02    0.13       1.0  T
  13    -72.0944043 -0.357501E-04  0.257E-02    0.13       1.0  T
  14    -72.0944265 -0.222693E-04  0.205E-02    0.13       1.0  T
  15    -72.0944536 -0.270845E-04  0.881E-03    0.13       1.8  T
  16    -72.0944589 -0.529963E-05  0.210E-03    0.13       7.3  T
  17    -72.0944593 -0.401692E-06  0.230E-04    0.13      67.0  T
  18    -72.0944593  0.717500E-07  0.956E-04    0.13      16.1  T

   *** convergence criteria satisfied after 18 iterations ***

         #    Occupation            Energy/Eh            Energy/eV
      -------------------------------------------------------------
         1        2.0000           -0.8155127             -22.1912
       ...           ...                  ...                  ...
        58        2.0000           -0.4137043             -11.2575
        59        2.0000           -0.4046381             -11.0108
        60        2.0000           -0.3973931             -10.8136
        61        1.9721           -0.3771632             -10.2631
        62        1.6762           -0.3744898             -10.1904
        63        1.3517           -0.3732090             -10.1555
        64        0.9247           -0.2574650              -7.0060 (HOMO)
        65        0.0753           -0.2526999              -6.8763 (LUMO)
        66                         -0.2117690              -5.7625
        67                         -0.1958960              -5.3306
        68                         -0.1265358              -3.4432
        69                         -0.0871658              -2.3719
       ...                                ...                  ...
       114                          0.7220331              19.6475
      -------------------------------------------------------------
                  HL-Gap            0.0047651 Eh            0.1297 eV
             Fermi-level           -0.3144363 Eh           -8.5562 eV

 transition dipole moment (au) for excitation:          63          64
     X       Y       Z   
   1.2280   0.1075  -0.4143  total (au/Debye):    1.300   3.305
 dE (eV)             :    3.150
 oscillator strength :  0.18455E+00

 SCC (total)                   0 d,  0 h,  0 min,  0.087 sec
 SCC setup                      ...        0 min,  0.000 sec (  0.409%)
 Dispersion                     ...        0 min,  0.000 sec (  0.531%)
 classical contributions        ...        0 min,  0.000 sec (  0.167%)
 integral evaluation            ...        0 min,  0.008 sec (  9.447%)
 iterations                     ...        0 min,  0.044 sec ( 50.830%)
 molecular gradient             ...        0 min,  0.026 sec ( 29.996%)
 printout                       ...        0 min,  0.007 sec (  8.613%)

         :::::::::::::::::::::::::::::::::::::::::::::::::::::
         ::                     SUMMARY                     ::
         :::::::::::::::::::::::::::::::::::::::::::::::::::::
         :: total energy             -71.200043654213 Eh    ::
         :: gradient norm              0.085803792026 Eh/a0 ::
         :: HOMO-LUMO gap              0.129665881262 eV    ::
         ::.................................................::
         :: SCC energy               -72.094086737755 Eh    ::
         :: -> isotropic ES            0.101669061313 Eh    ::
         :: -> anisotropic ES          0.006104633375 Eh    ::
         :: -> anisotropic XC          0.017074821900 Eh    ::
         :: -> dispersion             -0.047005360088 Eh    ::
         :: repulsion energy           0.894043083542 Eh    ::
         :: add. restraining           0.000000000000 Eh    ::
         :: total charge               0.000000000261 e     ::
         :::::::::::::::::::::::::::::::::::::::::::::::::::::

           -------------------------------------------------
          |                Property Printout                |
           -------------------------------------------------

    * Orbital Energies and Occupations

         #    Occupation            Energy/Eh            Energy/eV
      -------------------------------------------------------------
         1        2.0000           -0.8155127             -22.1912
       ...           ...                  ...                  ...
        52        2.0000           -0.4586579             -12.4807
        53        2.0000           -0.4538390             -12.3496
        54        2.0000           -0.4507790             -12.2663
        55        2.0000           -0.4472238             -12.1696
        56        2.0000           -0.4393707             -11.9559
        57        2.0000           -0.4329024             -11.7799
        58        2.0000           -0.4137043             -11.2575
        59        2.0000           -0.4046381             -11.0108
        60        2.0000           -0.3973931             -10.8136
        61        1.9721           -0.3771632             -10.2631
        62        1.6762           -0.3744898             -10.1904
        63        1.3517           -0.3732090             -10.1555
        64        0.9247           -0.2574650              -7.0060 (HOMO)
        65        0.0753           -0.2526999              -6.8763 (LUMO)
        66                         -0.2117690              -5.7625
        67                         -0.1958960              -5.3306
        68                         -0.1265358              -3.4432
        69                         -0.0871658              -2.3719
        70                         -0.0673922              -1.8338
        71                         -0.0252374              -0.6867
        72                         -0.0127793              -0.3477
        73                          0.0153668               0.4182
        74                          0.0418863               1.1398
        75                          0.0461025               1.2545
       ...                                ...                  ...
       114                          0.7220331              19.6475
      -------------------------------------------------------------
                  HL-Gap            0.0047651 Eh            0.1297 eV
             Fermi-level           -0.3144363 Eh           -8.5562 eV

     #   Z          covCN         q      C6AA      α(0)
     1   8 O        0.857    -0.451    22.718     6.390
     2   6 C        2.704     0.356    20.950     7.492
     3   8 O        1.660    -0.359    20.071     6.048
     4   6 C        2.956    -0.070    29.755     8.947
     5   6 C        2.883    -0.009    28.230     8.711
     6   7 N        2.746    -0.021    21.660     6.912
     7   6 C        2.934     0.053    26.807     8.491
     8   6 C        2.929    -0.105    30.657     9.080
     9   6 C        2.903     0.033    27.258     8.561
    10   7 N        2.738    -0.051    22.234     7.003
    11   6 C        3.768    -0.011    20.815     6.502
    12   6 C        3.749     0.013    20.423     6.445
    13   7 N        2.684    -0.240    26.269     7.612
    14   6 C        3.750     0.012    20.435     6.447
    15   6 C        3.765    -0.013    20.850     6.508
    16   6 C        2.784     0.142    24.900     8.173
    17   9 F        0.787    -0.232    11.568     4.018
    18   6 C        2.922    -0.072    29.793     8.951
    19   6 C        2.983    -0.015    28.373     8.738
    20   6 C        2.830     0.196    23.823     7.998
    21   8 O        0.857    -0.351    20.718     6.103
    22   6 C        3.811     0.032    20.035     6.371
    23   6 C        3.806    -0.068    21.799     6.647
    24   6 C        3.806    -0.069    21.824     6.650
    25   1 H        0.805     0.326     0.648     1.264
    26   1 H        0.925     0.071     2.079     2.255
    27   1 H        0.926     0.037     2.483     2.464
    28   1 H        0.924     0.067     2.116     2.275
    29   1 H        0.925     0.058     2.220     2.330
    30   1 H        0.924     0.044     2.395     2.420
    31   1 H        0.922     0.021     2.717     2.578
    32   1 H        0.860     0.144     1.443     1.882
    33   1 H        0.924     0.048     2.347     2.396
    34   1 H        0.922     0.021     2.725     2.582
    35   1 H        0.924     0.064     2.149     2.292
    36   1 H        0.925     0.081     1.969     2.194
    37   1 H        0.926     0.076     2.019     2.222
    38   1 H        0.925     0.041     2.432     2.439
    39   1 H        0.926     0.041     2.441     2.443
    40   1 H        0.926     0.049     2.327     2.386
    41   1 H        0.926     0.060     2.194     2.316
    42   1 H        0.926     0.050     2.315     2.379

 Mol. C6AA /au·bohr⁶  :      20025.951552
 Mol. C8AA /au·bohr⁸  :     469361.330261
 Mol. α(0) /au        :        215.916438


Wiberg/Mayer (AO) data.
largest (>0.10) Wiberg bond orders for each atom

 ---------------------------------------------------------------------------
     #   Z sym  total        # sym  WBO       # sym  WBO       # sym  WBO
 ---------------------------------------------------------------------------
     1   8 O    1.960 --     2 C    1.660     3 O    0.158
     2   6 C    3.891 --     1 O    1.660     3 O    1.136     4 C    1.035
     3   8 O    2.205 --     2 C    1.136    25 H    0.868     1 O    0.158
     4   6 C    3.858 --     5 C    1.451    20 C    1.077     2 C    1.035
     5   6 C    3.858 --     4 C    1.451     6 N    1.187    26 H    0.948
     6   7 N    3.552 --     5 C    1.187     7 C    1.115    22 C    0.988
     7   6 C    3.939 --     8 C    1.377    19 C    1.266     6 N    1.115
     8   6 C    3.877 --     7 C    1.377     9 C    1.253    27 H    0.956
     9   6 C    3.902 --    16 C    1.277     8 C    1.253    10 N    1.149
    10   7 N    3.307 --     9 C    1.149    11 C    1.006    15 C    0.996
    11   6 C    3.971 --    10 N    1.006    12 C    0.978    29 H    0.967
                            28 H    0.962
    12   6 C    3.971 --    13 N    1.021    11 C    0.978    30 H    0.973
                            31 H    0.960
    13   7 N    3.075 --    12 C    1.021    14 C    1.020    32 H    0.951
    14   6 C    3.967 --    13 N    1.020    15 C    0.976    33 H    0.972
                            34 H    0.963
    15   6 C    3.960 --    10 N    0.996    14 C    0.976    36 H    0.965
                            35 H    0.964
    16   6 C    3.795 --    18 C    1.393     9 C    1.277    17 F    0.945
    17   9 F    1.069 --    16 C    0.945
    18   6 C    3.920 --    16 C    1.393    19 C    1.292    37 H    0.960
    19   6 C    3.831 --    18 C    1.292     7 C    1.266    20 C    1.040
    20   6 C    3.878 --    21 O    1.565     4 C    1.077    19 C    1.040
    21   8 O    1.872 --    20 C    1.565
    22   6 C    3.924 --     6 N    0.988    24 C    0.975    23 C    0.960
                            38 H    0.959
    23   6 C    3.938 --    24 C    0.983    39 H    0.980    40 H    0.979
                            22 C    0.960
    24   6 C    3.943 --    23 C    0.983    42 H    0.980    41 H    0.975
                            22 C    0.975
    25   1 H    0.892 --     3 O    0.868
    26   1 H    0.987 --     5 C    0.948
    27   1 H    0.997 --     8 C    0.956
    28   1 H    0.988 --    11 C    0.962
    29   1 H    0.996 --    11 C    0.967
    30   1 H    0.997 --    12 C    0.973
    31   1 H    0.995 --    12 C    0.960
    32   1 H    0.974 --    13 N    0.951
    33   1 H    0.997 --    14 C    0.972
    34   1 H    0.996 --    14 C    0.963
    35   1 H    0.989 --    15 C    0.964
    36   1 H    0.993 --    15 C    0.965
    37   1 H    0.993 --    18 C    0.960
    38   1 H    0.995 --    22 C    0.959
    39   1 H    0.998 --    23 C    0.980
    40   1 H    0.998 --    23 C    0.979
    41   1 H    0.996 --    24 C    0.975
    42   1 H    0.997 --    24 C    0.980
 ---------------------------------------------------------------------------

Topologies differ in total number of bonds
Writing topology from bond orders to xtbtopo.mol

molecular dipole:
                 x           y           z       tot (Debye)
 q only:        3.302       0.026      -2.483
   full:        3.029      -0.182      -2.810      10.512
molecular quadrupole (traceless):
                xx          xy          yy          xz          yz          zz
 q only:       -4.759      -2.241       9.721       4.213      -0.188      -4.961
  q+dip:       -4.922      -4.219      11.947       1.198      -1.008      -7.026
   full:       -6.712      -5.185      14.721       1.515      -0.031      -8.009


           -------------------------------------------------
          | TOTAL ENERGY              -71.200043654213 Eh   |
          | GRADIENT NORM               0.085803792026 Eh/α |
          | HOMO-LUMO GAP               0.129665881262 eV   |
           -------------------------------------------------

------------------------------------------------------------------------
 * finished run on 2025/05/15 at 16:10:40.843     
------------------------------------------------------------------------
 total:
 * wall-time:     0 d,  0 h,  0 min,  0.100 sec
 *  cpu-time:     0 d,  0 h,  0 min,  0.095 sec
 * ratio c/w:     0.943 speedup
 SCF:
 * wall-time:     0 d,  0 h,  0 min,  0.087 sec
 *  cpu-time:     0 d,  0 h,  0 min,  0.083 sec
 * ratio c/w:     0.949 speedup


