42
 energy: -71.307129252795 gnorm: 0.000491096874 xtb: 6.7.1 (edcfbbe)
O           -6.00012692917703        0.36208556073827        0.15970387439300
C           -5.24202302778284        0.32979216702459        1.10643919206085
O           -5.67588137162511        0.33649662337327        2.36288304674996
C           -3.77493137171472        0.29555345689508        0.96571610626954
C           -3.28979774542237        0.48371577821382       -0.29307742755673
N           -1.98684948320456        0.49210221776128       -0.62222453565547
C           -1.03136204921676        0.37099574870727        0.37675400743105
C            0.32705315648887        0.46520668756843        0.08267226651129
C            1.32145938210799        0.34921778703572        1.05842329689138
N            2.65310448222977        0.53001342418384        0.77854482088847
C            3.08896749096678        1.03663273871710       -0.50420354292424
C            3.39017723186258       -0.10482265258014       -1.48229776247888
N            4.42289763434591       -0.92941131820679       -0.88416830204541
C            3.97975022897356       -1.48116026078266        0.38317434177251
C            3.67802626661249       -0.32557318398180        1.34520758396445
C            0.85852683411848        0.12886002835680        2.37630558381698
F            1.74159288089535        0.05566475820958        3.40435192146513
C           -0.46935388238086        0.02105007392523        2.68173183925483
C           -1.45110454811562        0.14332524339119        1.69540122375177
C           -2.86852093728683        0.05178405712650        2.08781812126416
O           -3.20742456823501       -0.20726605395840        3.22832129317526
C           -1.60227209573789        0.66855111708229       -1.99170108360336
C           -0.94442033760145       -0.47021986021829       -2.71992004919064
C           -2.34516005118957       -0.07047293376143       -3.06312214096761
H           -6.64530233375063        0.34642911235983        2.38144094532340
H           -3.99367227649837        0.64645204259516       -1.09842643812621
H            0.61725093343676        0.62559175432532       -0.94006942934413
H            4.02069489776618        1.58431700524555       -0.32969192242988
H            2.35384560574703        1.73137438033235       -0.90874839460663
H            3.76508967902539        0.29970392549867       -2.42491210525936
H            2.46304801494414       -0.67259921431898       -1.68430506155564
H            4.70616730511144       -1.66904253863540       -1.51837472083550
H            4.77897472257497       -2.10060566878105        0.79352576708838
H            3.07045970499143       -2.10209067002897        0.27756363849360
H            4.58393455389152        0.27298294414474        1.47610278257311
H            3.37763601062812       -0.72257776955448        2.30942400321545
H           -0.78338914413854       -0.13815541534163        3.70174251316543
H           -1.26180473812167        1.67602687930475       -2.21472929544812
H           -0.14910794790494       -0.24501008874029       -3.41434893234548
H           -0.80673571571475       -1.39296434199458       -2.17713658901830
H           -3.14190764618098       -0.73447297140710       -2.76650424271797
H           -2.52770881572571        0.44131943017216       -3.99508619341408
