29
 energy: -55.285019276313 gnorm: 0.000485776858 xtb: 6.7.1 (edcfbbe)
O           -3.38249664621308        2.21650471856302        0.49507332949981
C           -3.17546362011588        0.83736421827826        0.60441930091729
C           -2.58704299657489        0.25631597918891       -0.68560023181316
C           -2.31449486123698       -1.25427809706754       -0.62176935835853
C           -0.79935427044531       -1.31440333421084       -0.36392308670793
C           -0.33245593982866       -0.05328963781990       -1.12148777382628
N            0.92139017514520        0.40896370475998       -0.59429138796923
C            1.40389469332303        1.65083715854879       -0.40533199837467
N            2.60362836565662        1.58754581412987        0.11191107319972
C            2.83836861416968        0.25497713126807        0.22837375615989
C            4.10094493918573       -0.29394104601517        0.78369232583768
N            4.94984533746603        0.68785668741392        1.15238644292708
O            4.33059662167695       -1.47703918721682        0.89327092356810
N            1.83117588386232       -0.48157508364310       -0.19245842002725
O           -1.32631131961411        0.90705705343162       -0.93194022658947
O           -0.24898365742944       -2.49967081548806       -0.83847999237193
O           -2.64396594702663       -1.84251149573601       -1.84541421553771
H           -2.57651153620215        2.60768177931287        0.13570062800558
H           -2.49562339014372        0.61119481651881        1.44091682595716
H           -4.15036692476960        0.38934181432584        0.80471704453846
H           -3.25135769712688        0.47344055961679       -1.52968602579918
H           -2.87668757163112       -1.72650119858575        0.19610973634445
H           -0.59582393988742       -1.17216303253537        0.70759738188290
H           -0.20955253427325       -0.29219292117660       -2.19385791471938
H            0.85982233174201        2.53851932548526       -0.64885065098957
H            4.67991532915833        1.64846364726013        1.02598959380706
H            5.84459539040901        0.45283828382553        1.54656755313958
H            0.70144324885238       -2.48457204888303       -0.65194750941011
H           -2.09892807812802       -2.63686479354946       -1.94098712329071
