41
 energy: -72.629754312323 gnorm: 0.000506134449 xtb: 6.7.1 (edcfbbe)
C           -1.43834776518495       -1.80238569685692        0.67827160855569
C           -0.42003468053871       -0.78628214052910        0.29256840767447
C            0.85061407817465       -0.68513664661577        0.77938018853905
C            1.54399341803878        0.30056602854206        0.00279782574974
C            0.63156690761227        0.77008446520588       -0.95742785266187
N           -0.58945107678777        0.12674438208881       -0.74816704853837
C           -1.73293988817857        0.40413146597213       -1.48354342461538
C           -3.02925470913641        0.24952644148810       -0.77072547680365
C           -4.13623054090036       -0.23166527960790       -1.46416875396536
C           -5.37070617692914       -0.30433518227991       -0.84903635657803
C           -5.50361611053323        0.13691546312758        0.45965300244444
Cl          -7.04352310101296        0.05562899032606        1.23444675869510
C           -4.41782604790103        0.65418061313352        1.15154955985047
C           -3.18214714209455        0.70728909601696        0.53569510056305
O           -1.67563289733258        0.81787900461476       -2.61982439728155
C            0.99248046555716        1.74768207850572       -1.87130550683979
C            2.28293854503256        2.22570100906973       -1.81909322082293
C            3.21182189915771        1.75343610024935       -0.87677936172284
O            4.45218314975418        2.31529830872480       -0.96087546676337
C            5.44535171076830        1.87838973761927       -0.06699950474372
C            2.84644812573424        0.78989672885459        0.04850300967336
C            1.45482102285608       -1.50554710355135        1.87988087488433
C            2.04277769326032       -2.73520925939737        1.22813172507237
O            3.32863630974675       -2.56276234458706        0.90506286486352
O            1.43870845844713       -3.74371534036042        0.97945751798971
H           -2.04057838102515       -1.47531267664768        1.52627699688383
H           -0.92488891263728       -2.72159505334209        0.95342902593419
H           -2.10802266687310       -2.01769615345288       -0.14991054569791
H           -4.01390017727333       -0.55334583433750       -2.48723257663695
H           -6.22733577430351       -0.69041901930839       -1.37830905598878
H           -4.54400181503049        1.01330818531681        2.16083044386159
H           -2.33713226778490        1.12416443439829        1.06380214510556
H            0.29387839944827        2.10904436194435       -2.60750179537718
H            2.61828569720206        2.97759043001805       -2.51494509653808
H            5.17524353153658        2.09475874068991        0.97208780290811
H            5.64074808863070        0.80639766264601       -0.17503130756278
H            6.34344974415198        2.43620043863584       -0.32760031532178
H            3.53629680553299        0.40707915371810        0.78237743993999
H            0.69225169731594       -1.80664433590700        2.59681182049805
H            2.24430236882559       -0.94279242369168        2.37515043413415
H            3.66877201467282       -3.33684883043189        0.42911251064283
