33
 energy: -45.170021772520 gnorm: 0.000564644464 xtb: 6.7.1 (edcfbbe)
C           -2.98098670982951        0.63457650018113       -1.86885431786808
C           -3.33968498760994       -0.01514175530957       -0.53567226838647
C           -2.46292187013319       -1.25334469431876       -0.25556640183967
C           -0.99796319981787       -0.93938507235681       -0.16702806276160
C           -0.41450009692576       -0.58418279129121        1.04328640604965
C            0.92896295872065       -0.26886911361215        1.12161594119606
C            1.73197111075328       -0.30853793284413       -0.01097007506255
C            3.20830885833381        0.02256353065675        0.06693939460392
C            3.31676388646028        1.47627530553737        0.47643476178172
O            3.25558091971511        1.66161143796554        1.80141555510825
O            3.41359733841228        2.39499012120655       -0.29301031100656
C            3.95139852548337       -0.91316550311161        1.02035148980038
C            1.15564295237062       -0.66848796672825       -1.22092926500501
C           -0.18886667739576       -0.98310207021532       -1.29555466485202
C           -3.24415035674423        1.00695019770351        0.59334089422997
H           -3.06526553433209       -0.08225232664108       -2.68275295839996
H           -3.65334252845133        1.46467692004733       -2.07504500197407
H           -1.96268853117437        1.01625650651793       -1.84557589939377
H           -4.37681807932203       -0.36744550052272       -0.59246330426259
H           -2.62902457500997       -1.97862197858310       -1.05530963123848
H           -2.79419743335153       -1.70275825942234        0.68337051172532
H           -1.01763192941134       -0.55779769807896        1.93925826216304
H            1.35504920191153        0.01434176292859        2.07253397282962
H            3.63578813692477       -0.05452846838135       -0.93758068212307
H            3.28884618942804        2.60917065214407        2.00591684149908
H            5.01437376606824       -0.68304531113948        1.02232116212300
H            3.57320846886073       -0.81289632903160        2.03310034962902
H            3.81636769217402       -1.94259752752034        0.69684502095756
H            1.76310950088414       -0.70686436607406       -2.11374202000241
H           -0.61334252952704       -1.27202286099293       -2.24604172602328
H           -3.50716165851537        0.55456897152576        1.54717760350124
H           -3.92636003720643        1.83441230981344        0.40933562611925
H           -2.23416277174235        1.40505330994757        0.66265279688257
