29
 energy: -55.287716089346 gnorm: 0.000281610105 xtb: 6.7.1 (edcfbbe)
O           -1.87124930475885       -1.36999289153476        2.50531797378600
C           -1.58165687352275       -0.14388615008513        1.86266719338859
C           -2.05844710362936       -0.29253845480526        0.41714073930648
C           -1.33005899094712       -1.46157124350897       -0.28079601831564
C           -1.01829084918192       -0.90169496385093       -1.67916252466640
C           -0.93158936924989        0.60999606239694       -1.39441613473816
N            0.41774367646751        0.98290260227738       -1.02356013018621
C            1.22200675982276        1.94223826707938       -1.52473740871634
N            2.35264140204658        1.97233389615883       -0.87011512075243
C            2.20627017783120        0.99595178919439        0.06535738535080
C            3.24933525682677        0.68218170888458        1.07234691521302
N            4.38412069348155        1.37810794958601        0.85073475370629
O            3.09459339822127       -0.10150263762293        1.98250038146309
N            1.04562410205168        0.38243539250827       -0.01131130064585
O           -1.81574094230592        0.87977347958273       -0.35018098035947
O           -2.04100209983897       -1.15345112036637       -2.59318257024770
O           -2.12246060073072       -2.61330614312805       -0.39291085062889
H           -1.45967554154693       -1.36330170874330        3.37557616861994
H           -2.11165790083873        0.68864386471751        2.34254615389300
H           -0.50443361342163        0.06186166548923        1.86387146172502
H           -3.14091636897098       -0.47811841794828        0.41202123530653
H           -0.39067204060322       -1.67636373044504        0.24261045105876
H           -0.06144422150732       -1.28197715228506       -2.06442644728139
H           -1.22004653475607        1.20611709880984       -2.26596213469914
H            0.95458815829040        2.57457181384617       -2.34550128542217
H            4.41841994962511        2.04051638555962        0.09450834985916
H            5.16222139285724        1.27728551293983        1.47983151069344
H           -2.51403792064446       -1.93692072838007       -2.27372887681881
H           -2.33438469106373       -2.90039214632859        0.50306111011132
