33
 energy: -50.358205795120 gnorm: 0.000411531149 xtb: 6.7.1 (edcfbbe)
C           -5.26328926066396       -0.63095289286326       -1.51974210959819
N           -3.98562545027112       -0.82541313075321       -0.87659724577484
C           -3.28610709318572        0.12629869424433       -0.19817449983701
N           -2.27131131329020       -0.34919574227521        0.58147904654574
C           -1.20922651384507        0.52227415124807        1.03082195734241
C           -0.04921262489590        0.55724920582379        0.04128605888068
S            0.64544227492022       -1.10894112876460       -0.22709187596461
C            1.85383397213511       -1.15500984402112        1.15952824495378
C            2.93230224676126       -0.16538875851104        0.95702074976388
C            4.11534551121240       -0.29691011300312        0.27102754348205
C            4.72797016762636       -1.44059268499844       -0.44929968269129
N            4.72344469278622        0.92784070630757        0.36752121838170
C            3.89776291096138        1.73366352210234        1.07861315343108
N            2.81593933121546        1.10923737061979        1.44122993542845
N           -3.48969949723215        1.39689297572712       -0.20528091356947
C           -4.38512699874039        2.12022407341672       -0.79236175697257
N           -5.10130793113495        2.90132254912842       -1.25070366970628
H           -5.30842300631431       -1.24979870368366       -2.41595658327179
H           -5.37567375327947        0.41214804401989       -1.80614256338793
H           -6.09217757086966       -0.90124455755758       -0.85763401497980
H           -3.74384138510077       -1.78519750515464       -0.67809559499756
H           -1.95820954602046       -1.29190879106237        0.38706641276658
H           -1.62645690182112        1.52446504233179        1.14257090182300
H           -0.86386097810300        0.16547745921633        2.00502835671114
H           -0.39020619495255        0.90418172503788       -0.93340751203351
H            0.75953069413627        1.19176000810667        0.40322760608873
H            2.23294298084138       -2.17476952816245        1.17170555217109
H            1.30515862277939       -0.94445074633126        2.07556714917113
H            5.54713310514039       -1.87050784618227        0.12915046476171
H            3.98227235005209       -2.21120181756624       -0.62202057787079
H            5.12261815070097       -1.11779084865784       -1.41189098247513
H            5.61933010573594        1.16866471207635       -0.02415207835060
H            4.11882890270089        2.75727440014068        1.30310730972391
