----- Optimization -----
      -----------------------------------------------------------      
     |                   =====================                   |     
     |                           x T B                           |     
     |                   =====================                   |     
     |                         S. Grimme                         |     
     |          Mulliken Center for Theoretical Chemistry        |     
     |                    University of Bonn                     |     
      -----------------------------------------------------------      

   * xtb version 6.7.1 (edcfbbe) compiled by 'conda@3ef47c1a292c' on 2024-11-25

   xtb is free software: you can redistribute it and/or modify it under
   the terms of the GNU Lesser General Public License as published by
   the Free Software Foundation, either version 3 of the License, or
   (at your option) any later version.
   
   xtb is distributed in the hope that it will be useful,
   but WITHOUT ANY WARRANTY; without even the implied warranty of
   MERCHANTABILITY or FITNESS FOR A PARTICULAR PURPOSE.  See the
   GNU Lesser General Public License for more details.
   
   Cite this work as:
   * C. Bannwarth, E. Caldeweyher, S. Ehlert, A. Hansen, P. Pracht,
     J. Seibert, S. Spicher, S. Grimme, WIREs Comput. Mol. Sci., 2020, 11,
     e01493. DOI: 10.1002/wcms.1493
   
   for GFN2-xTB:
   * C. Bannwarth, S. Ehlert and S. Grimme., J. Chem. Theory Comput., 2019,
     15, 1652-1671. DOI: 10.1021/acs.jctc.8b01176
   for GFN1-xTB:
   * S. Grimme, C. Bannwarth, P. Shushkov, J. Chem. Theory Comput., 2017,
     13, 1989-2009. DOI: 10.1021/acs.jctc.7b00118
   for GFN0-xTB:
   * P. Pracht, E. Caldeweyher, S. Ehlert, S. Grimme, ChemRxiv, 2019, preprint.
     DOI: 10.26434/chemrxiv.8326202.v1
   for GFN-FF:
   * S. Spicher and S. Grimme, Angew. Chem. Int. Ed., 2020, 59, 15665-15673.
     DOI: 10.1002/anie.202004239
   
   for ALPB and GBSA implicit solvation:
   * S. Ehlert, M. Stahn, S. Spicher, S. Grimme, J. Chem. Theory Comput.,
     2021, 17, 4250-4261. DOI: 10.1021/acs.jctc.1c00471
   
   for ddCOSMO and CPCM-X implicit solvation:
   * M. Stahn, S. Ehlert, S. Grimme, J. Phys. Chem. A,
     2023, XX, XXXX-XXXX. DOI: 10.1021/acs.jpca.3c04382
   
   for DFT-D4:
   * E. Caldeweyher, C. Bannwarth and S. Grimme, J. Chem. Phys., 2017,
     147, 034112. DOI: 10.1063/1.4993215
   * E. Caldeweyher, S. Ehlert, A. Hansen, H. Neugebauer, S. Spicher,
     C. Bannwarth and S. Grimme, J. Chem. Phys., 2019, 150, 154122.
     DOI: 10.1063/1.5090222
   * E. Caldeweyher, J.-M. Mewes, S. Ehlert and S. Grimme, Phys. Chem. Chem. Phys.
     2020, 22, 8499-8512. DOI: 10.1039/D0CP00502A
   
   for sTDA-xTB:
   * S. Grimme and C. Bannwarth, J. Chem. Phys., 2016, 145, 054103.
     DOI: 10.1063/1.4959605
   
   in the mass-spec context:
   * V. Asgeirsson, C. Bauer and S. Grimme, Chem. Sci., 2017, 8, 4879.
     DOI: 10.1039/c7sc00601b
   * J. Koopman and S. Grimme, ACS Omega 2019, 4, 12, 15120-15133.
     DOI: 10.1021/acsomega.9b02011
   
   for metadynamics refer to:
   * S. Grimme, J. Chem. Theory Comput., 2019, 155, 2847-2862
     DOI: 10.1021/acs.jctc.9b00143
   
   for SPH calculations refer to:
   * S. Spicher and S. Grimme, J. Chem. Theory Comput., 2021, 17, 1701-1714
     DOI: 10.1021/acs.jctc.0c01306
   
   for ONIOM refer to:
   * C. Plett, A. Katbashev, S. Ehlert, S. Grimme, M. Bursch,
     Phys. Chem. Chem. Phys., 2023, 25, 17860-17868. DOI: 10.1039/D3CP02178E
   
   for DIPRO refer to:
   * J. Kohn, N. Gildemeister, S. Grimme, D. Fazzi, A. Hansen,
     J. Chem. Phys., 2023, just accepted.
   
   for PTB refer to:
   * S. Grimme, M. Mueller, A. Hansen, J. Chem. Phys., 2023, 158, 124111.
     DOI: 10.1063/5.0137838
   
   with help from (in alphabetical order)
   P. Atkinson, C. Bannwarth, F. Bohle, G. Brandenburg, E. Caldeweyher
   M. Checinski, S. Dohm, S. Ehlert, S. Ehrlich, I. Gerasimov, C. Hölzer
   A. Katbashev, J. Kohn, J. Koopman, C. Lavigne, S. Lehtola, F. März, M. Müller,
   F. Musil, H. Neugebauer, J. Pisarek, C. Plett, P. Pracht, F. Pultar,
   J. Seibert, P. Shushkov, S. Spicher, M. Stahn, M. Steiner, T. Strunk,
   J. Stückrath, T. Rose, and J. Unsleber
   
 * started run on 2025/05/15 at 16:19:25.185     
   ID    Z sym.   atoms
    1    6 C      1, 3, 5, 6, 8-11, 13, 16
    2    7 N      2, 4, 12, 14, 15, 17
    3   16 S      7
    4    1 H      18-33

           -------------------------------------------------
          |                Calculation Setup                |
           -------------------------------------------------

          program call               : xtb /rds/general/user/hgt20/home/callum/QDESCP/Cimetadine_rdkit_conf_5/Cimetadine_rdkit_conf_5.xyz --opt normal --acc 1 --gfn 2 --chrg 0 --uhf 0 -P 1
          hostname                   : login-c
          coordinate file            : /rds/general/user/hgt20/home/callum/QDESCP/Cimetadine_rdkit_conf_5/Cimetadine_rdkit_conf_5.xyz
          omp threads                :                     1


           -------------------------------------------------
          |                 G F N 2 - x T B                 |
           -------------------------------------------------

        Reference                      10.1021/acs.jctc.8b01176
      * Hamiltonian:
        H0-scaling (s, p, d)           1.850000    2.230000    2.230000
        zeta-weighting                 0.500000
      * Dispersion:
        s8                             2.700000
        a1                             0.520000
        a2                             5.000000
        s9                             5.000000
      * Repulsion:
        kExp                           1.500000    1.000000
        rExp                           1.000000
      * Coulomb:
        alpha                          2.000000
        third order                    shell-resolved
        anisotropic                    true
        a3                             3.000000
        a5                             4.000000
        cn-shift                       1.200000
        cn-exp                         4.000000
        max-rad                        5.000000


          ...................................................
          :                      SETUP                      :
          :.................................................:
          :  # basis functions                  90          :
          :  # atomic orbitals                  89          :
          :  # shells                           51          :
          :  # electrons                        92          :
          :  max. iterations                   250          :
          :  Hamiltonian                  GFN2-xTB          :
          :  restarted?                      false          :
          :  GBSA solvation                  false          :
          :  PC potential                    false          :
          :  electronic temp.          300.0000000     K    :
          :  accuracy                    1.0000000          :
          :  -> integral cutoff          0.2500000E+02      :
          :  -> integral neglect         0.1000000E-07      :
          :  -> SCF convergence          0.1000000E-05 Eh   :
          :  -> wf. convergence          0.1000000E-03 e    :
          :  Broyden damping             0.4000000          :
          :  net charge                          0          :
          :  unpaired electrons                  0          :
          ...................................................

 iter      E             dE          RMSdq      gap      omega  full diag
   1    -50.8956099 -0.508956E+02  0.432E+00    3.82       0.0  T
   2    -50.9894815 -0.938716E-01  0.274E+00    3.94       1.0  T
   3    -50.9872490  0.223253E-02  0.157E+00    3.93       1.0  T
   4    -51.0053085 -0.180595E-01  0.730E-01    3.84       1.0  T
   5    -51.0171130 -0.118046E-01  0.193E-01    3.77       1.0  T
   6    -51.0171301 -0.170375E-04  0.115E-01    3.82       1.0  T
   7    -51.0173166 -0.186569E-03  0.334E-02    3.83       1.0  T
   8    -51.0173262 -0.960815E-05  0.142E-02    3.84       1.2  T
   9    -51.0173272 -0.970010E-06  0.575E-03    3.84       3.0  T
  10    -51.0173274 -0.169884E-06  0.218E-03    3.84       8.0  T
  11    -51.0173274 -0.496054E-07  0.101E-03    3.84      17.3  T
  12    -51.0173274 -0.732356E-08  0.393E-04    3.84      44.3  T
  13    -51.0173274 -0.471516E-09  0.114E-04    3.84     152.5  T

   *** convergence criteria satisfied after 13 iterations ***

         #    Occupation            Energy/Eh            Energy/eV
      -------------------------------------------------------------
         1        2.0000           -0.7153945             -19.4669
       ...           ...                  ...                  ...
        40        2.0000           -0.3994284             -10.8690
        41        2.0000           -0.3921557             -10.6711
        42        2.0000           -0.3901840             -10.6174
        43        2.0000           -0.3864180             -10.5150
        44        2.0000           -0.3800086             -10.3406
        45        2.0000           -0.3701091             -10.0712
        46        2.0000           -0.3662177              -9.9653 (HOMO)
        47                         -0.2252608              -6.1297 (LUMO)
        48                         -0.2199099              -5.9841
        49                         -0.2116833              -5.7602
        50                         -0.1804971              -4.9116
        51                         -0.1516689              -4.1271
       ...                                ...                  ...
        89                          1.1686358              31.8002
      -------------------------------------------------------------
                  HL-Gap            0.1409569 Eh            3.8356 eV
             Fermi-level           -0.2957392 Eh           -8.0475 eV

 SCC (total)                   0 d,  0 h,  0 min,  0.039 sec
 SCC setup                      ...        0 min,  0.000 sec (  0.697%)
 Dispersion                     ...        0 min,  0.000 sec (  0.751%)
 classical contributions        ...        0 min,  0.000 sec (  0.237%)
 integral evaluation            ...        0 min,  0.005 sec ( 13.450%)
 iterations                     ...        0 min,  0.019 sec ( 47.822%)
 molecular gradient             ...        0 min,  0.014 sec ( 36.699%)
 printout                       ...        0 min,  0.000 sec (  0.327%)

         :::::::::::::::::::::::::::::::::::::::::::::::::::::
         ::                     SUMMARY                     ::
         :::::::::::::::::::::::::::::::::::::::::::::::::::::
         :: total energy             -50.342082440141 Eh    ::
         :: gradient norm              0.060683688448 Eh/a0 ::
         :: HOMO-LUMO gap              3.835632152848 eV    ::
         ::.................................................::
         :: SCC energy               -51.017272953927 Eh    ::
         :: -> isotropic ES            0.056873845116 Eh    ::
         :: -> anisotropic ES          0.011123104545 Eh    ::
         :: -> anisotropic XC          0.045038802236 Eh    ::
         :: -> dispersion             -0.031557507075 Eh    ::
         :: repulsion energy           0.675190513786 Eh    ::
         :: add. restraining           0.000000000000 Eh    ::
         :: total charge               0.000000000000 e     ::
         :::::::::::::::::::::::::::::::::::::::::::::::::::::

      ----------------------------------------------------------- 
     |                   =====================                   |
     |                        A N C O P T                        |
     |                   =====================                   |
     |               Approximate Normal Coordinate               |
     |                Rational Function Optimizer                |
      ----------------------------------------------------------- 
      ----------------------------------------------------------- 
     |                   =====================                   |
     |                        A N C O P T                        |
     |                   =====================                   |
     |               Approximate Normal Coordinate               |
     |                Rational Function Optimizer                |
      ----------------------------------------------------------- 

          ...................................................
          :                      SETUP                      :
          :.................................................:
          :   optimization level            normal          :
          :   max. optcycles                   200          :
          :   ANC micro-cycles                  20          :
          :   degrees of freedom                93          :
          :.................................................:
          :   RF solver                   davidson          :
          :   write xtbopt.log                true          :
          :   linear?                        false          :
          :   energy convergence         0.5000000E-05 Eh   :
          :   grad. convergence          0.1000000E-02 Eh/α :
          :   maxmium RF displ.          1.0000000          :
          :   Hlow (freq-cutoff)         0.1000000E-01      :
          :   Hmax (freq-cutoff)         5.0000000          :
          :   S6 in model hess.         20.0000000          :
          ...................................................

generating ANC from exact Hessian ...
Using Lindh-Hessian (1995)
 Shifting diagonal of input Hessian by    9.8080419078305104E-003
 Lowest  eigenvalues of input Hessian
    0.000000    0.000000    0.000000    0.000000    0.000000    0.000000
    0.010000    0.010076    0.010253    0.010790    0.011260    0.012721
    0.012775    0.014347    0.015959    0.017261    0.018541    0.020877
 Highest eigenvalues
    1.874900    2.029802    2.035467    2.124449    2.270814    2.736895


........................................................................
.............................. CYCLE    1 ..............................
........................................................................

 iter      E             dE          RMSdq      gap      omega  full diag
   1    -51.0173274 -0.510173E+02  0.545E-05    3.84       0.0  T
   2    -51.0173274 -0.751754E-11  0.320E-05    3.84     543.8  T
   3    -51.0173274  0.142109E-13  0.198E-05    3.84     880.7  T
     SCC iter.                  ...        0 min,  0.005 sec
     gradient                   ...        0 min,  0.014 sec
 * total energy  :   -50.3420824 Eh     change       -0.6969003E-10 Eh
   gradient norm :     0.0606834 Eh/α   predicted     0.0000000E+00 (-100.00%)
   displ. norm   :     0.3813613 α      lambda       -0.1123701E-01
   maximum displ.:     0.1336539 α      in ANC's #6, #20, #22, ...

........................................................................
.............................. CYCLE    2 ..............................
........................................................................

 iter      E             dE          RMSdq      gap      omega  full diag
   1    -51.0396028 -0.510396E+02  0.495E-01    3.84       0.0  T
   2    -51.0398047 -0.201902E-03  0.281E-01    3.87       1.0  T
   3    -51.0394486  0.356107E-03  0.122E-01    3.89       1.0  T
   4    -51.0398756 -0.426990E-03  0.258E-02    3.88       1.0  T
   5    -51.0398897 -0.141360E-04  0.787E-03    3.89       2.2  T
   6    -51.0398900 -0.239668E-06  0.395E-03    3.88       4.4  T
   7    -51.0398902 -0.233731E-06  0.131E-03    3.88      13.3  T
   8    -51.0398902 -0.180051E-07  0.556E-04    3.88      31.3  T
   9    -51.0398902 -0.151827E-08  0.216E-04    3.88      80.6  T
     SCC iter.                  ...        0 min,  0.012 sec
     gradient                   ...        0 min,  0.067 sec
 * total energy  :   -50.3481730 Eh     change       -0.6090599E-02 Eh
   gradient norm :     0.0446554 Eh/α   predicted    -0.6436246E-02 (   5.68%)
   displ. norm   :     0.5164486 α      lambda       -0.1131070E-01
   maximum displ.:     0.2096481 α      in ANC's #6, #9, #22, ...

........................................................................
.............................. CYCLE    3 ..............................
........................................................................

 iter      E             dE          RMSdq      gap      omega  full diag
   1    -51.0857471 -0.510857E+02  0.621E-01    3.85       0.0  T
   2    -51.0860109 -0.263815E-03  0.351E-01    3.83       1.0  T
   3    -51.0852805  0.730488E-03  0.200E-01    3.85       1.0  T
   4    -51.0862605 -0.980004E-03  0.204E-02    3.85       1.0  T
   5    -51.0862646 -0.417937E-05  0.890E-03    3.85       2.0  T
   6    -51.0862647 -0.266862E-07  0.369E-03    3.85       4.7  T
   7    -51.0862649 -0.228702E-06  0.135E-03    3.85      12.9  T
   8    -51.0862649 -0.204494E-07  0.511E-04    3.85      34.0  T
   9    -51.0862649 -0.121503E-08  0.177E-04    3.85      98.1  T
     SCC iter.                  ...        0 min,  0.012 sec
     gradient                   ...        0 min,  0.014 sec
 * total energy  :   -50.3485513 Eh     change       -0.3782843E-03 Eh
   gradient norm :     0.0814826 Eh/α   predicted    -0.7163748E-02 (1793.75%)
   displ. norm   :     0.1944875 α      lambda       -0.5809654E-02
   maximum displ.:     0.0958322 α      in ANC's #8, #20, #6, ...

........................................................................
.............................. CYCLE    4 ..............................
........................................................................

 iter      E             dE          RMSdq      gap      omega  full diag
   1    -51.0658216 -0.510658E+02  0.186E-01    3.88       0.0  T
   2    -51.0658739 -0.522866E-04  0.111E-01    3.85       1.0  T
   3    -51.0657894  0.844634E-04  0.738E-02    3.84       1.0  T
   4    -51.0659150 -0.125631E-03  0.966E-03    3.84       1.8  T
   5    -51.0659167 -0.171496E-05  0.481E-03    3.84       3.6  T
   6    -51.0659170 -0.236981E-06  0.209E-03    3.84       8.3  T
   7    -51.0659170 -0.713690E-08  0.736E-04    3.84      23.6  T
   8    -51.0659170 -0.108342E-07  0.269E-04    3.84      64.8  T
     SCC iter.                  ...        0 min,  0.053 sec
     gradient                   ...        0 min,  0.015 sec
 * total energy  :   -50.3523635 Eh     change       -0.3812147E-02 Eh
   gradient norm :     0.0185344 Eh/α   predicted    -0.3014714E-02 ( -20.92%)
   displ. norm   :     0.2858588 α      lambda       -0.2335538E-02
   maximum displ.:     0.1647007 α      in ANC's #6, #8, #20, ...

........................................................................
.............................. CYCLE    5 ..............................
........................................................................

 iter      E             dE          RMSdq      gap      omega  full diag
   1    -51.0557755 -0.510558E+02  0.307E-01    3.88       0.0  T
   2    -51.0558679 -0.923305E-04  0.172E-01    3.83       1.0  T
   3    -51.0558532  0.146540E-04  0.330E-02    3.81       1.0  T
   4    -51.0558803 -0.271064E-04  0.130E-02    3.81       1.3  T
   5    -51.0558841 -0.381502E-05  0.517E-03    3.81       3.4  T
   6    -51.0558844 -0.308708E-06  0.223E-03    3.81       7.8  T
   7    -51.0558845 -0.449167E-07  0.645E-04    3.81      27.0  T
   8    -51.0558845 -0.387406E-08  0.352E-04    3.81      49.4  T
     SCC iter.                  ...        0 min,  0.011 sec
     gradient                   ...        0 min,  0.065 sec
 * total energy  :   -50.3535634 Eh     change       -0.1199977E-02 Eh
   gradient norm :     0.0260118 Eh/α   predicted    -0.1263197E-02 (   5.27%)
   displ. norm   :     0.1827104 α      lambda       -0.8153316E-03
   maximum displ.:     0.1092992 α      in ANC's #8, #9, #16, ...

........................................................................
.............................. CYCLE    6 ..............................
........................................................................

 iter      E             dE          RMSdq      gap      omega  full diag
   1    -51.0590376 -0.510590E+02  0.866E-02    3.79       0.0  T
   2    -51.0590514 -0.138195E-04  0.487E-02    3.76       1.0  T
   3    -51.0590397  0.116794E-04  0.299E-02    3.76       1.0  T
   4    -51.0590568 -0.170828E-04  0.739E-03    3.76       2.4  T
   5    -51.0590581 -0.124552E-05  0.196E-03    3.76       8.9  T
   6    -51.0590581 -0.119529E-07  0.910E-04    3.76      19.1  T
   7    -51.0590581 -0.793417E-08  0.300E-04    3.76      58.1  T
     SCC iter.                  ...        0 min,  0.010 sec
     gradient                   ...        0 min,  0.014 sec
 * total energy  :   -50.3542328 Eh     change       -0.6693161E-03 Eh
   gradient norm :     0.0193637 Eh/α   predicted    -0.4212773E-03 ( -37.06%)
   displ. norm   :     0.3745366 α      lambda       -0.1159075E-02
   maximum displ.:     0.2337787 α      in ANC's #8, #9, #6, ...

........................................................................
.............................. CYCLE    7 ..............................
........................................................................

 iter      E             dE          RMSdq      gap      omega  full diag
   1    -51.0644397 -0.510644E+02  0.163E-01    3.74       0.0  T
   2    -51.0644743 -0.346297E-04  0.919E-02    3.70       1.0  T
   3    -51.0644381  0.361565E-04  0.462E-02    3.69       1.0  T
   4    -51.0644840 -0.458243E-04  0.120E-02    3.69       1.5  T
   5    -51.0644871 -0.316306E-05  0.349E-03    3.69       5.0  T
   6    -51.0644872 -0.389187E-07  0.152E-03    3.69      11.5  T
   7    -51.0644872 -0.219656E-07  0.541E-04    3.69      32.2  T
   8    -51.0644872 -0.159005E-09  0.240E-04    3.69      72.4  T
     SCC iter.                  ...        0 min,  0.062 sec
     gradient                   ...        0 min,  0.014 sec
 * total energy  :   -50.3549947 Eh     change       -0.7619192E-03 Eh
   gradient norm :     0.0102755 Eh/α   predicted    -0.6608351E-03 ( -13.27%)
   displ. norm   :     0.2168778 α      lambda       -0.3341468E-03
   maximum displ.:     0.1358905 α      in ANC's #8, #6, #9, ...

........................................................................
.............................. CYCLE    8 ..............................
........................................................................

 iter      E             dE          RMSdq      gap      omega  full diag
   1    -51.0671692 -0.510672E+02  0.106E-01    3.70       0.0  T
   2    -51.0671743 -0.518660E-05  0.593E-02    3.69       1.0  T
   3    -51.0671746 -0.281150E-06  0.760E-03    3.68       2.3  T
   4    -51.0671754 -0.794886E-06  0.418E-03    3.68       4.2  T
   5    -51.0671757 -0.261480E-06  0.174E-03    3.68      10.0  T
   6    -51.0671757 -0.283448E-07  0.639E-04    3.68      27.2  T
   7    -51.0671757 -0.441093E-08  0.326E-04    3.68      53.4  T
     SCC iter.                  ...        0 min,  0.010 sec
     gradient                   ...        0 min,  0.014 sec
 * total energy  :   -50.3552290 Eh     change       -0.2343510E-03 Eh
   gradient norm :     0.0069050 Eh/α   predicted    -0.1749440E-03 ( -25.35%)
   displ. norm   :     0.1667138 α      lambda       -0.1801940E-03
   maximum displ.:     0.0924089 α      in ANC's #8, #6, #9, ...

........................................................................
.............................. CYCLE    9 ..............................
........................................................................

 iter      E             dE          RMSdq      gap      omega  full diag
   1    -51.0700570 -0.510701E+02  0.809E-02    3.70       0.0  T
   2    -51.0700589 -0.188582E-05  0.455E-02    3.70       1.0  T
   3    -51.0700593 -0.447818E-06  0.422E-03    3.69       4.1  T
   4    -51.0700595 -0.201384E-06  0.218E-03    3.69       8.0  T
   5    -51.0700596 -0.232740E-07  0.701E-04    3.69      24.8  T
   6    -51.0700596 -0.405777E-08  0.388E-04    3.69      44.9  T
     SCC iter.                  ...        0 min,  0.008 sec
     gradient                   ...        0 min,  0.014 sec
 * total energy  :   -50.3553478 Eh     change       -0.1188072E-03 Eh
   gradient norm :     0.0040681 Eh/α   predicted    -0.9260356E-04 ( -22.06%)
   displ. norm   :     0.1471628 α      lambda       -0.9071609E-04
   maximum displ.:     0.0721286 α      in ANC's #6, #8, #13, ...

........................................................................
.............................. CYCLE   10 ..............................
........................................................................

 iter      E             dE          RMSdq      gap      omega  full diag
   1    -51.0686281 -0.510686E+02  0.774E-02    3.71       0.0  T
   2    -51.0686305 -0.243794E-05  0.433E-02    3.71       1.0  T
   3    -51.0686274  0.309223E-05  0.122E-02    3.70       1.4  T
   4    -51.0686315 -0.403645E-05  0.249E-03    3.71       7.0  T
   5    -51.0686316 -0.781105E-07  0.110E-03    3.71      15.9  T
   6    -51.0686316 -0.409881E-08  0.361E-04    3.71      48.2  T
   7    -51.0686316 -0.129102E-08  0.181E-04    3.71      95.9  T
     SCC iter.                  ...        0 min,  0.010 sec
     gradient                   ...        0 min,  0.060 sec
 * total energy  :   -50.3553943 Eh     change       -0.4643119E-04 Eh
   gradient norm :     0.0050823 Eh/α   predicted    -0.4634229E-04 (  -0.19%)
   displ. norm   :     0.0819386 α      lambda       -0.6486585E-04
   maximum displ.:     0.0391439 α      in ANC's #4, #13, #6, ...

........................................................................
.............................. CYCLE   11 ..............................
........................................................................

 iter      E             dE          RMSdq      gap      omega  full diag
   1    -51.0707350 -0.510707E+02  0.245E-02    3.72       0.0  T
   2    -51.0707363 -0.129718E-05  0.140E-02    3.72       1.2  T
   3    -51.0707356  0.664016E-06  0.654E-03    3.73       2.7  T
   4    -51.0707365 -0.854663E-06  0.205E-03    3.73       8.5  T
   5    -51.0707366 -0.860181E-07  0.713E-04    3.73      24.4  T
   6    -51.0707366 -0.395979E-08  0.273E-04    3.73      63.7  T
     SCC iter.                  ...        0 min,  0.008 sec
     gradient                   ...        0 min,  0.014 sec
 * total energy  :   -50.3554304 Eh     change       -0.3607874E-04 Eh
   gradient norm :     0.0040706 Eh/α   predicted    -0.3265161E-04 (  -9.50%)
   displ. norm   :     0.0595904 α      lambda       -0.3018952E-04
   maximum displ.:     0.0303399 α      in ANC's #4, #11, #7, ...

........................................................................
.............................. CYCLE   12 ..............................
........................................................................

 iter      E             dE          RMSdq      gap      omega  full diag
   1    -51.0701450 -0.510701E+02  0.149E-02    3.73       0.0  T
   2    -51.0701451 -0.159548E-06  0.824E-03    3.73       2.1  T
   3    -51.0701449  0.279918E-06  0.376E-03    3.73       4.6  T
   4    -51.0701452 -0.340438E-06  0.104E-03    3.73      16.7  T
   5    -51.0701452 -0.114234E-07  0.376E-04    3.73      46.3  T
   6    -51.0701452 -0.505807E-09  0.125E-04    3.73     139.7  T
     SCC iter.                  ...        0 min,  0.008 sec
     gradient                   ...        0 min,  0.066 sec
 * total energy  :   -50.3554550 Eh     change       -0.2464003E-04 Eh
   gradient norm :     0.0034230 Eh/α   predicted    -0.1514915E-04 ( -38.52%)
   displ. norm   :     0.1335227 α      lambda       -0.6106587E-04
   maximum displ.:     0.0661865 α      in ANC's #4, #11, #8, ...

........................................................................
.............................. CYCLE   13 ..............................
........................................................................

 iter      E             dE          RMSdq      gap      omega  full diag
   1    -51.0688084 -0.510688E+02  0.351E-02    3.73       0.0  T
   2    -51.0688091 -0.662520E-06  0.192E-02    3.73       1.0  T
   3    -51.0688079  0.114637E-05  0.754E-03    3.73       2.3  T
   4    -51.0688093 -0.139949E-05  0.246E-03    3.73       7.1  T
   5    -51.0688094 -0.572756E-07  0.798E-04    3.73      21.8  T
   6    -51.0688094 -0.384659E-08  0.245E-04    3.73      71.2  T
     SCC iter.                  ...        0 min,  0.008 sec
     gradient                   ...        0 min,  0.014 sec
 * total energy  :   -50.3554931 Eh     change       -0.3811661E-04 Eh
   gradient norm :     0.0025558 Eh/α   predicted    -0.3107770E-04 ( -18.47%)
   displ. norm   :     0.0928093 α      lambda       -0.2658206E-04
   maximum displ.:     0.0454054 α      in ANC's #4, #10, #7, ...

........................................................................
.............................. CYCLE   14 ..............................
........................................................................

 iter      E             dE          RMSdq      gap      omega  full diag
   1    -51.0680254 -0.510680E+02  0.210E-02    3.73       0.0  T
   2    -51.0680256 -0.155264E-06  0.116E-02    3.73       1.5  T
   3    -51.0680256 -0.215364E-07  0.205E-03    3.73       8.5  T
   4    -51.0680256 -0.106304E-08  0.101E-03    3.73      17.3  T
   5    -51.0680256 -0.168910E-07  0.264E-04    3.73      66.0  T
   6    -51.0680256 -0.107138E-08  0.119E-04    3.73     145.8  T
     SCC iter.                  ...        0 min,  0.008 sec
     gradient                   ...        0 min,  0.014 sec
 * total energy  :   -50.3555139 Eh     change       -0.2079693E-04 Eh
   gradient norm :     0.0033941 Eh/α   predicted    -0.1340701E-04 ( -35.53%)
   displ. norm   :     0.1807593 α      lambda       -0.5879958E-04
   maximum displ.:     0.0888416 α      in ANC's #4, #3, #7, ...

........................................................................
.............................. CYCLE   15 ..............................
........................................................................

 iter      E             dE          RMSdq      gap      omega  full diag
   1    -51.0674120 -0.510674E+02  0.448E-02    3.73       0.0  T
   2    -51.0674128 -0.815081E-06  0.246E-02    3.73       1.0  T
   3    -51.0674128 -0.510481E-07  0.443E-03    3.73       3.9  T
   4    -51.0674129 -0.723508E-07  0.238E-03    3.73       7.3  T
   5    -51.0674130 -0.775572E-07  0.880E-04    3.73      19.8  T
   6    -51.0674130 -0.150886E-07  0.282E-04    3.73      61.6  T
     SCC iter.                  ...        0 min,  0.008 sec
     gradient                   ...        0 min,  0.065 sec
 * total energy  :   -50.3555547 Eh     change       -0.4083036E-04 Eh
   gradient norm :     0.0038511 Eh/α   predicted    -0.3036299E-04 ( -25.64%)
   displ. norm   :     0.1489385 α      lambda       -0.4641218E-04
   maximum displ.:     0.0642166 α      in ANC's #4, #3, #7, ...

........................................................................
.............................. CYCLE   16 ..............................
........................................................................

 iter      E             dE          RMSdq      gap      omega  full diag
   1    -51.0675039 -0.510675E+02  0.364E-02    3.74       0.0  T
   2    -51.0675046 -0.677544E-06  0.201E-02    3.74       1.0  T
   3    -51.0675044  0.223905E-06  0.474E-03    3.74       3.7  T
   4    -51.0675047 -0.301818E-06  0.238E-03    3.74       7.3  T
   5    -51.0675048 -0.908606E-07  0.845E-04    3.74      20.6  T
   6    -51.0675048 -0.879502E-08  0.223E-04    3.74      77.9  T
     SCC iter.                  ...        0 min,  0.008 sec
     gradient                   ...        0 min,  0.014 sec
 * total energy  :   -50.3555899 Eh     change       -0.3518675E-04 Eh
   gradient norm :     0.0032860 Eh/α   predicted    -0.2372263E-04 ( -32.58%)
   displ. norm   :     0.1675058 α      lambda       -0.6559961E-04
   maximum displ.:     0.0707088 α      in ANC's #1, #3, #7, ...

........................................................................
.............................. CYCLE   17 ..............................
........................................................................

 iter      E             dE          RMSdq      gap      omega  full diag
   1    -51.0689239 -0.510689E+02  0.461E-02    3.74       0.0  T
   2    -51.0689253 -0.145377E-05  0.255E-02    3.75       1.0  T
   3    -51.0689251  0.215893E-06  0.544E-03    3.75       3.2  T
   4    -51.0689255 -0.345415E-06  0.278E-03    3.75       6.3  T
   5    -51.0689256 -0.138237E-06  0.106E-03    3.75      16.4  T
   6    -51.0689256 -0.110404E-07  0.301E-04    3.75      57.9  T
   7    -51.0689256 -0.146737E-08  0.133E-04    3.75     130.5  T
     SCC iter.                  ...        0 min,  0.011 sec
     gradient                   ...        0 min,  0.060 sec
 * total energy  :   -50.3556320 Eh     change       -0.4202926E-04 Eh
   gradient norm :     0.0024082 Eh/α   predicted    -0.3372265E-04 ( -19.76%)
   displ. norm   :     0.3868361 α      lambda       -0.8670818E-04
   maximum displ.:     0.1568448 α      in ANC's #7, #3, #1, ...

........................................................................
.............................. CYCLE   18 ..............................
........................................................................

 iter      E             dE          RMSdq      gap      omega  full diag
   1    -51.0665057 -0.510665E+02  0.951E-02    3.76       0.0  T
   2    -51.0665093 -0.353114E-05  0.531E-02    3.76       1.0  T
   3    -51.0665096 -0.387209E-06  0.851E-03    3.76       2.0  T
   4    -51.0665099 -0.295201E-06  0.459E-03    3.77       3.8  T
   5    -51.0665102 -0.254482E-06  0.182E-03    3.76       9.5  T
   6    -51.0665103 -0.664133E-07  0.592E-04    3.76      29.4  T
   7    -51.0665103 -0.408225E-08  0.261E-04    3.76      66.6  T
     SCC iter.                  ...        0 min,  0.010 sec
     gradient                   ...        0 min,  0.014 sec
 * total energy  :   -50.3556034 Eh     change        0.2858847E-04 Eh
   gradient norm :     0.0092166 Eh/α   predicted    -0.4984226E-04 (-274.34%)
   displ. norm   :     0.1679407 α      lambda       -0.2058908E-03
   maximum displ.:     0.0762094 α      in ANC's #4, #10, #7, ...

........................................................................
.............................. CYCLE   19 ..............................
........................................................................

 iter      E             dE          RMSdq      gap      omega  full diag
   1    -51.0695154 -0.510695E+02  0.448E-02    3.76       0.0  T
   2    -51.0695169 -0.152469E-05  0.249E-02    3.75       1.0  T
   3    -51.0695170 -0.105348E-06  0.496E-03    3.75       3.5  T
   4    -51.0695172 -0.142247E-06  0.210E-03    3.75       8.3  T
   5    -51.0695172 -0.266335E-07  0.830E-04    3.75      21.0  T
   6    -51.0695172 -0.785278E-08  0.340E-04    3.75      51.3  T
     SCC iter.                  ...        0 min,  0.059 sec
     gradient                   ...        0 min,  0.014 sec
 * total energy  :   -50.3556959 Eh     change       -0.9249065E-04 Eh
   gradient norm :     0.0028627 Eh/α   predicted    -0.1058482E-03 (  14.44%)
   displ. norm   :     0.1210420 α      lambda       -0.3910012E-04
   maximum displ.:     0.0562617 α      in ANC's #1, #7, #3, ...

........................................................................
.............................. CYCLE   20 ..............................
........................................................................

 iter      E             dE          RMSdq      gap      omega  full diag
   1    -51.0695666 -0.510696E+02  0.315E-02    3.75       0.0  T
   2    -51.0695669 -0.311780E-06  0.176E-02    3.75       1.0  T
   3    -51.0695668  0.276193E-07  0.293E-03    3.75       5.9  T
   4    -51.0695670 -0.104464E-06  0.146E-03    3.75      11.9  T
   5    -51.0695670 -0.254502E-07  0.520E-04    3.75      33.5  T
   6    -51.0695670 -0.522324E-08  0.163E-04    3.75     107.1  T
     SCC iter.                  ...        0 min,  0.009 sec
     gradient                   ...        0 min,  0.014 sec
 * total energy  :   -50.3557321 Eh     change       -0.3626441E-04 Eh
   gradient norm :     0.0022584 Eh/α   predicted    -0.1983838E-04 ( -45.30%)
   displ. norm   :     0.5713711 α      lambda       -0.1601149E-03
   maximum displ.:     0.2646981 α      in ANC's #1, #7, #3, ...
 * RMSD in coord.:     0.4804626 α      energy gain  -0.1364968E-01 Eh

generating ANC from exact Hessian ...
Using Lindh-Hessian (1995)
 Shifting diagonal of input Hessian by    9.8205035415047919E-003
 Lowest  eigenvalues of input Hessian
    0.000000    0.000000    0.000000    0.000000    0.000000    0.000000
    0.010000    0.010021    0.010128    0.010694    0.010997    0.011700
    0.012781    0.014524    0.016213    0.016973    0.017286    0.018841
 Highest eigenvalues
    1.927372    2.077136    2.156189    2.191291    2.283446    2.880690


........................................................................
.............................. CYCLE   21 ..............................
........................................................................

 iter      E             dE          RMSdq      gap      omega  full diag
   1    -51.0655381 -0.510655E+02  0.149E-01    3.74       0.0  T
   2    -51.0655463 -0.819828E-05  0.835E-02    3.74       1.0  T
   3    -51.0655465 -0.192411E-06  0.133E-02    3.74       1.3  T
   4    -51.0655479 -0.148780E-05  0.697E-03    3.74       2.5  T
   5    -51.0655486 -0.630359E-06  0.268E-03    3.74       6.5  T
   6    -51.0655487 -0.123293E-06  0.834E-04    3.74      20.9  T
   7    -51.0655487 -0.563418E-08  0.441E-04    3.74      39.5  T
     SCC iter.                  ...        0 min,  0.010 sec
     gradient                   ...        0 min,  0.014 sec
 * total energy  :   -50.3557403 Eh     change       -0.8181455E-05 Eh
   gradient norm :     0.0089455 Eh/α   predicted     0.0000000E+00 (-100.00%)
   displ. norm   :     0.0428745 α      lambda       -0.1879241E-03
   maximum displ.:     0.0172797 α      in ANC's #1, #11, #5, ...

........................................................................
.............................. CYCLE   22 ..............................
........................................................................

 iter      E             dE          RMSdq      gap      omega  full diag
   1    -51.0688117 -0.510688E+02  0.599E-02    3.74       0.0  T
   2    -51.0688140 -0.230668E-05  0.333E-02    3.74       1.0  T
   3    -51.0688143 -0.336618E-06  0.364E-03    3.74       4.8  T
   4    -51.0688145 -0.145674E-06  0.184E-03    3.74       9.5  T
   5    -51.0688145 -0.441630E-07  0.963E-04    3.74      18.1  T
   6    -51.0688145 -0.536296E-08  0.318E-04    3.74      54.7  T
     SCC iter.                  ...        0 min,  0.008 sec
     gradient                   ...        0 min,  0.065 sec
 * total energy  :   -50.3558305 Eh     change       -0.9021088E-04 Eh
   gradient norm :     0.0031487 Eh/α   predicted    -0.9528636E-04 (   5.63%)
   displ. norm   :     0.0863749 α      lambda       -0.1677275E-03
   maximum displ.:     0.0455567 α      in ANC's #4, #6, #5, ...

........................................................................
.............................. CYCLE   23 ..............................
........................................................................

 iter      E             dE          RMSdq      gap      omega  full diag
   1    -51.0722151 -0.510722E+02  0.129E-01    3.74       0.0  T
   2    -51.0722224 -0.729356E-05  0.716E-02    3.74       1.0  T
   3    -51.0722239 -0.152686E-05  0.646E-03    3.74       2.7  T
   4    -51.0722246 -0.678369E-06  0.336E-03    3.73       5.2  T
   5    -51.0722248 -0.186544E-06  0.143E-03    3.74      12.1  T
   6    -51.0722248 -0.116932E-07  0.375E-04    3.74      46.5  T
   7    -51.0722248 -0.321987E-08  0.110E-04    3.74     157.6  T
     SCC iter.                  ...        0 min,  0.010 sec
     gradient                   ...        0 min,  0.014 sec
 * total energy  :   -50.3557240 Eh     change        0.1065397E-03 Eh
   gradient norm :     0.0074512 Eh/α   predicted    -0.8449381E-04 (-179.31%)
   displ. norm   :     0.0549450 α      lambda       -0.2698041E-03
   maximum displ.:     0.0233574 α      in ANC's #4, #6, #5, ...

........................................................................
.............................. CYCLE   24 ..............................
........................................................................

 iter      E             dE          RMSdq      gap      omega  full diag
   1    -51.0699563 -0.510700E+02  0.890E-02    3.73       0.0  T
   2    -51.0699597 -0.349084E-05  0.495E-02    3.74       1.0  T
   3    -51.0699604 -0.612486E-06  0.484E-03    3.74       3.6  T
   4    -51.0699608 -0.420404E-06  0.255E-03    3.74       6.8  T
   5    -51.0699609 -0.113904E-06  0.984E-04    3.74      17.7  T
   6    -51.0699609 -0.306490E-08  0.224E-04    3.74      77.6  T
     SCC iter.                  ...        0 min,  0.059 sec
     gradient                   ...        0 min,  0.014 sec
 * total energy  :   -50.3558628 Eh     change       -0.1388102E-03 Eh
   gradient norm :     0.0012813 Eh/α   predicted    -0.1353118E-03 (  -2.52%)
   displ. norm   :     0.0265880 α      lambda       -0.5669559E-05
   maximum displ.:     0.0153482 α      in ANC's #1, #11, #4, ...

........................................................................
.............................. CYCLE   25 ..............................
........................................................................

 iter      E             dE          RMSdq      gap      omega  full diag
   1    -51.0695582 -0.510696E+02  0.108E-02    3.74       0.0  T
   2    -51.0695583 -0.110661E-06  0.609E-03    3.74       2.9  T
   3    -51.0695583  0.248979E-07  0.138E-03    3.74      12.6  T
   4    -51.0695583 -0.467159E-07  0.464E-04    3.74      37.5  T
   5    -51.0695583 -0.257552E-08  0.240E-04    3.74      72.7  T
     SCC iter.                  ...        0 min,  0.007 sec
     gradient                   ...        0 min,  0.014 sec
 * total energy  :   -50.3558700 Eh     change       -0.7247560E-05 Eh
   gradient norm :     0.0009325 Eh/α   predicted    -0.2838954E-05 ( -60.83%)
   displ. norm   :     0.1550283 α      lambda       -0.2504968E-04
   maximum displ.:     0.0879519 α      in ANC's #1, #11, #4, ...

........................................................................
.............................. CYCLE   26 ..............................
........................................................................

 iter      E             dE          RMSdq      gap      omega  full diag
   1    -51.0690388 -0.510690E+02  0.447E-02    3.74       0.0  T
   2    -51.0690409 -0.214184E-05  0.252E-02    3.73       1.0  T
   3    -51.0690406  0.275894E-06  0.633E-03    3.73       2.8  T
   4    -51.0690413 -0.670970E-06  0.187E-03    3.73       9.3  T
   5    -51.0690413 -0.250333E-07  0.950E-04    3.73      18.3  T
   6    -51.0690413 -0.573966E-08  0.404E-04    3.73      43.1  T
     SCC iter.                  ...        0 min,  0.055 sec
     gradient                   ...        0 min,  0.014 sec
 * total energy  :   -50.3558929 Eh     change       -0.2289452E-04 Eh
   gradient norm :     0.0016499 Eh/α   predicted    -0.1265884E-04 ( -44.71%)
   displ. norm   :     0.0921084 α      lambda       -0.8908084E-05
   maximum displ.:     0.0557825 α      in ANC's #1, #11, #4, ...

........................................................................
.............................. CYCLE   27 ..............................
........................................................................

 iter      E             dE          RMSdq      gap      omega  full diag
   1    -51.0690630 -0.510691E+02  0.217E-02    3.73       0.0  T
   2    -51.0690634 -0.361301E-06  0.123E-02    3.73       1.4  T
   3    -51.0690633  0.440032E-07  0.262E-03    3.73       6.7  T
   4    -51.0690634 -0.116287E-06  0.869E-04    3.73      20.0  T
   5    -51.0690634 -0.298058E-08  0.404E-04    3.73      43.1  T
     SCC iter.                  ...        0 min,  0.007 sec
     gradient                   ...        0 min,  0.014 sec
 * total energy  :   -50.3559037 Eh     change       -0.1078974E-04 Eh
   gradient norm :     0.0019537 Eh/α   predicted    -0.4470858E-05 ( -58.56%)
   displ. norm   :     0.1940707 α      lambda       -0.1853327E-04
   maximum displ.:     0.1212382 α      in ANC's #1, #4, #11, ...

........................................................................
.............................. CYCLE   28 ..............................
........................................................................

 iter      E             dE          RMSdq      gap      omega  full diag
   1    -51.0691859 -0.510692E+02  0.424E-02    3.73       0.0  T
   2    -51.0691867 -0.853404E-06  0.241E-02    3.73       1.0  T
   3    -51.0691867 -0.105019E-07  0.383E-03    3.73       4.6  T
   4    -51.0691869 -0.175555E-06  0.158E-03    3.73      11.0  T
   5    -51.0691869 -0.679055E-08  0.809E-04    3.73      21.5  T
   6    -51.0691869 -0.120392E-07  0.270E-04    3.73      64.5  T
     SCC iter.                  ...        0 min,  0.008 sec
     gradient                   ...        0 min,  0.053 sec
 * total energy  :   -50.3559247 Eh     change       -0.2101973E-04 Eh
   gradient norm :     0.0019438 Eh/α   predicted    -0.9421534E-05 ( -55.18%)
   displ. norm   :     0.2548821 α      lambda       -0.2494648E-04
   maximum displ.:     0.1678573 α      in ANC's #1, #4, #11, ...

........................................................................
.............................. CYCLE   29 ..............................
........................................................................

 iter      E             dE          RMSdq      gap      omega  full diag
   1    -51.0693769 -0.510694E+02  0.560E-02    3.73       0.0  T
   2    -51.0693779 -0.965951E-06  0.318E-02    3.73       1.0  T
   3    -51.0693780 -0.159633E-06  0.388E-03    3.73       4.5  T
   4    -51.0693781 -0.774461E-07  0.214E-03    3.73       8.1  T
   5    -51.0693782 -0.489878E-07  0.919E-04    3.73      18.9  T
   6    -51.0693782 -0.178180E-07  0.246E-04    3.73      70.8  T
     SCC iter.                  ...        0 min,  0.009 sec
     gradient                   ...        0 min,  0.014 sec
 * total energy  :   -50.3559525 Eh     change       -0.2772197E-04 Eh
   gradient norm :     0.0026126 Eh/α   predicted    -0.1283273E-04 ( -53.71%)
   displ. norm   :     0.1571693 α      lambda       -0.2845375E-04
   maximum displ.:     0.1092972 α      in ANC's #1, #4, #11, ...

........................................................................
.............................. CYCLE   30 ..............................
........................................................................

 iter      E             dE          RMSdq      gap      omega  full diag
   1    -51.0699294 -0.510699E+02  0.361E-02    3.72       0.0  T
   2    -51.0699298 -0.376829E-06  0.204E-02    3.73       1.0  T
   3    -51.0699298  0.668502E-07  0.327E-03    3.73       5.3  T
   4    -51.0699299 -0.169308E-06  0.164E-03    3.73      10.6  T
   5    -51.0699300 -0.373339E-07  0.436E-04    3.73      39.9  T
   6    -51.0699300 -0.172598E-08  0.174E-04    3.73      99.8  T
     SCC iter.                  ...        0 min,  0.056 sec
     gradient                   ...        0 min,  0.014 sec
 * total energy  :   -50.3559763 Eh     change       -0.2381889E-04 Eh
   gradient norm :     0.0023042 Eh/α   predicted    -0.1457721E-04 ( -38.80%)
   displ. norm   :     0.3208295 α      lambda       -0.4578697E-04
   maximum displ.:     0.2202283 α      in ANC's #1, #4, #11, ...

........................................................................
.............................. CYCLE   31 ..............................
........................................................................

 iter      E             dE          RMSdq      gap      omega  full diag
   1    -51.0688340 -0.510688E+02  0.744E-02    3.72       0.0  T
   2    -51.0688356 -0.159315E-05  0.421E-02    3.72       1.0  T
   3    -51.0688355  0.614504E-07  0.621E-03    3.72       2.8  T
   4    -51.0688360 -0.501372E-06  0.330E-03    3.72       5.3  T
   5    -51.0688362 -0.154799E-06  0.839E-04    3.72      20.8  T
   6    -51.0688362 -0.710857E-08  0.397E-04    3.72      43.9  T
     SCC iter.                  ...        0 min,  0.008 sec
     gradient                   ...        0 min,  0.014 sec
 * total energy  :   -50.3560040 Eh     change       -0.2774629E-04 Eh
   gradient norm :     0.0036959 Eh/α   predicted    -0.2523822E-04 (  -9.04%)
   displ. norm   :     0.1428530 α      lambda       -0.5173642E-04
   maximum displ.:     0.1047425 α      in ANC's #1, #5, #7, ...

........................................................................
.............................. CYCLE   32 ..............................
........................................................................

 iter      E             dE          RMSdq      gap      omega  full diag
   1    -51.0700074 -0.510700E+02  0.403E-02    3.72       0.0  T
   2    -51.0700084 -0.991365E-06  0.224E-02    3.72       1.0  T
   3    -51.0700081  0.229297E-06  0.483E-03    3.72       3.6  T
   4    -51.0700085 -0.383839E-06  0.235E-03    3.72       7.4  T
   5    -51.0700086 -0.933860E-07  0.895E-04    3.72      19.5  T
   6    -51.0700086 -0.410008E-08  0.329E-04    3.72      53.0  T
     SCC iter.                  ...        0 min,  0.053 sec
     gradient                   ...        0 min,  0.014 sec
 * total energy  :   -50.3560342 Eh     change       -0.3021278E-04 Eh
   gradient norm :     0.0015769 Eh/α   predicted    -0.2639770E-04 ( -12.63%)
   displ. norm   :     0.2906741 α      lambda       -0.2065790E-04
   maximum displ.:     0.2121659 α      in ANC's #1, #4, #5, ...

........................................................................
.............................. CYCLE   33 ..............................
........................................................................

 iter      E             dE          RMSdq      gap      omega  full diag
   1    -51.0687125 -0.510687E+02  0.744E-02    3.72       0.0  T
   2    -51.0687143 -0.178409E-05  0.417E-02    3.72       1.0  T
   3    -51.0687142  0.122977E-06  0.655E-03    3.72       2.7  T
   4    -51.0687148 -0.684534E-06  0.320E-03    3.72       5.4  T
   5    -51.0687150 -0.117474E-06  0.973E-04    3.72      17.9  T
   6    -51.0687150 -0.118292E-07  0.473E-04    3.72      36.8  T
     SCC iter.                  ...        0 min,  0.008 sec
     gradient                   ...        0 min,  0.014 sec
 * total energy  :   -50.3560502 Eh     change       -0.1596247E-04 Eh
   gradient norm :     0.0027921 Eh/α   predicted    -0.1072090E-04 ( -32.84%)
   displ. norm   :     0.0548315 α      lambda       -0.1978933E-04
   maximum displ.:     0.0442282 α      in ANC's #1, #5, #3, ...

........................................................................
.............................. CYCLE   34 ..............................
........................................................................

 iter      E             dE          RMSdq      gap      omega  full diag
   1    -51.0694869 -0.510695E+02  0.186E-02    3.72       0.0  T
   2    -51.0694872 -0.207715E-06  0.102E-02    3.72       1.7  T
   3    -51.0694871  0.764098E-07  0.246E-03    3.72       7.1  T
   4    -51.0694872 -0.131241E-06  0.903E-04    3.72      19.3  T
   5    -51.0694872 -0.100968E-07  0.384E-04    3.72      45.3  T
     SCC iter.                  ...        0 min,  0.052 sec
     gradient                   ...        0 min,  0.014 sec
 * total energy  :   -50.3560652 Eh     change       -0.1496097E-04 Eh
   gradient norm :     0.0019428 Eh/α   predicted    -0.9926064E-05 ( -33.65%)
   displ. norm   :     0.2715707 α      lambda       -0.2682832E-04
   maximum displ.:     0.2179882 α      in ANC's #1, #5, #3, ...

........................................................................
.............................. CYCLE   35 ..............................
........................................................................

 iter      E             dE          RMSdq      gap      omega  full diag
   1    -51.0699034 -0.510699E+02  0.764E-02    3.73       0.0  T
   2    -51.0699059 -0.252016E-05  0.421E-02    3.73       1.0  T
   3    -51.0699057  0.223460E-06  0.730E-03    3.73       2.4  T
   4    -51.0699066 -0.931791E-06  0.338E-03    3.73       5.1  T
   5    -51.0699067 -0.135629E-06  0.128E-03    3.73      13.6  T
   6    -51.0699067 -0.221503E-07  0.466E-04    3.73      37.3  T
   7    -51.0699067 -0.288525E-08  0.233E-04    3.73      74.7  T
     SCC iter.                  ...        0 min,  0.010 sec
     gradient                   ...        0 min,  0.014 sec
 * total energy  :   -50.3560917 Eh     change       -0.2654720E-04 Eh
   gradient norm :     0.0024080 Eh/α   predicted    -0.1385626E-04 ( -47.81%)
   displ. norm   :     0.2565105 α      lambda       -0.2403204E-04
   maximum displ.:     0.2045822 α      in ANC's #1, #5, #3, ...

........................................................................
.............................. CYCLE   36 ..............................
........................................................................

 iter      E             dE          RMSdq      gap      omega  full diag
   1    -51.0688874 -0.510689E+02  0.683E-02    3.73       0.0  T
   2    -51.0688893 -0.186980E-05  0.378E-02    3.73       1.0  T
   3    -51.0688890  0.277771E-06  0.669E-03    3.73       2.6  T
   4    -51.0688898 -0.782798E-06  0.331E-03    3.73       5.3  T
   5    -51.0688899 -0.148455E-06  0.993E-04    3.73      17.5  T
   6    -51.0688900 -0.116477E-07  0.398E-04    3.73      43.7  T
     SCC iter.                  ...        0 min,  0.008 sec
     gradient                   ...        0 min,  0.014 sec
 * total energy  :   -50.3561103 Eh     change       -0.1864005E-04 Eh
   gradient norm :     0.0026773 Eh/α   predicted    -0.1280732E-04 ( -31.29%)
   displ. norm   :     0.3334436 α      lambda       -0.3470663E-04
   maximum displ.:     0.2732511 α      in ANC's #1, #5, #3, ...

........................................................................
.............................. CYCLE   37 ..............................
........................................................................

 iter      E             dE          RMSdq      gap      omega  full diag
   1    -51.0681424 -0.510681E+02  0.873E-02    3.74       0.0  T
   2    -51.0681457 -0.329712E-05  0.479E-02    3.74       1.0  T
   3    -51.0681451  0.590359E-06  0.913E-03    3.74       1.9  T
   4    -51.0681465 -0.136352E-05  0.468E-03    3.74       3.7  T
   5    -51.0681468 -0.333076E-06  0.126E-03    3.74      13.8  T
   6    -51.0681468 -0.147567E-07  0.434E-04    3.74      40.1  T
   7    -51.0681468 -0.181517E-08  0.225E-04    3.74      77.4  T
     SCC iter.                  ...        0 min,  0.010 sec
     gradient                   ...        0 min,  0.014 sec
 * total energy  :   -50.3561333 Eh     change       -0.2297958E-04 Eh
   gradient norm :     0.0031038 Eh/α   predicted    -0.1928373E-04 ( -16.08%)
   displ. norm   :     0.1557534 α      lambda       -0.3080973E-04
   maximum displ.:     0.1324499 α      in ANC's #1, #3, #5, ...

........................................................................
.............................. CYCLE   38 ..............................
........................................................................

 iter      E             dE          RMSdq      gap      omega  full diag
   1    -51.0696238 -0.510696E+02  0.420E-02    3.75       0.0  T
   2    -51.0696247 -0.869277E-06  0.227E-02    3.75       1.0  T
   3    -51.0696249 -0.179863E-06  0.336E-03    3.75       5.2  T
   4    -51.0696249 -0.255917E-07  0.172E-03    3.75      10.1  T
   5    -51.0696249 -0.204758E-07  0.755E-04    3.75      23.1  T
   6    -51.0696249 -0.135501E-07  0.211E-04    3.75      82.3  T
     SCC iter.                  ...        0 min,  0.009 sec
     gradient                   ...        0 min,  0.014 sec
 * total energy  :   -50.3561515 Eh     change       -0.1813382E-04 Eh
   gradient norm :     0.0024874 Eh/α   predicted    -0.1578118E-04 ( -12.97%)
   displ. norm   :     0.3584121 α      lambda       -0.3047569E-04
   maximum displ.:     0.2990476 α      in ANC's #1, #5, #3, ...

........................................................................
.............................. CYCLE   39 ..............................
........................................................................

 iter      E             dE          RMSdq      gap      omega  full diag
   1    -51.0682517 -0.510683E+02  0.951E-02    3.76       0.0  T
   2    -51.0682553 -0.359591E-05  0.520E-02    3.75       1.0  T
   3    -51.0682556 -0.272722E-06  0.806E-03    3.75       2.2  T
   4    -51.0682560 -0.419645E-06  0.517E-03    3.75       3.4  T
   5    -51.0682565 -0.510174E-06  0.102E-03    3.75      17.1  T
   6    -51.0682566 -0.914741E-08  0.392E-04    3.75      44.4  T
   7    -51.0682566 -0.496918E-09  0.205E-04    3.75      85.1  T
     SCC iter.                  ...        0 min,  0.010 sec
     gradient                   ...        0 min,  0.014 sec
 * total energy  :   -50.3561722 Eh     change       -0.2069629E-04 Eh
   gradient norm :     0.0037729 Eh/α   predicted    -0.1719977E-04 ( -16.89%)
   displ. norm   :     0.2443039 α      lambda       -0.3602871E-04
   maximum displ.:     0.2068720 α      in ANC's #1, #4, #2, ...

........................................................................
.............................. CYCLE   40 ..............................
........................................................................

 iter      E             dE          RMSdq      gap      omega  full diag
   1    -51.0689973 -0.510690E+02  0.622E-02    3.76       0.0  T
   2    -51.0689987 -0.148904E-05  0.337E-02    3.75       1.0  T
   3    -51.0689984  0.370633E-06  0.705E-03    3.75       2.5  T
   4    -51.0689991 -0.738717E-06  0.354E-03    3.75       4.9  T
   5    -51.0689993 -0.179136E-06  0.738E-04    3.75      23.6  T
   6    -51.0689993 -0.647136E-08  0.263E-04    3.75      66.3  T
     SCC iter.                  ...        0 min,  0.041 sec
     gradient                   ...        0 min,  0.014 sec
 * total energy  :   -50.3561999 Eh     change       -0.2777223E-04 Eh
   gradient norm :     0.0028175 Eh/α   predicted    -0.1909159E-04 ( -31.26%)
   displ. norm   :     0.3082585 α      lambda       -0.4599181E-04
   maximum displ.:     0.2646560 α      in ANC's #1, #2, #8, ...

........................................................................
.............................. CYCLE   41 ..............................
........................................................................

 iter      E             dE          RMSdq      gap      omega  full diag
   1    -51.0696752 -0.510697E+02  0.830E-02    3.75       0.0  T
   2    -51.0696780 -0.278767E-05  0.450E-02    3.75       1.0  T
   3    -51.0696784 -0.361249E-06  0.700E-03    3.74       2.5  T
   4    -51.0696786 -0.205649E-06  0.425E-03    3.74       4.1  T
   5    -51.0696789 -0.319915E-06  0.120E-03    3.74      14.5  T
   6    -51.0696789 -0.267129E-07  0.367E-04    3.74      47.5  T
   7    -51.0696789 -0.479467E-09  0.183E-04    3.74      95.1  T
     SCC iter.                  ...        0 min,  0.010 sec
     gradient                   ...        0 min,  0.014 sec
 * total energy  :   -50.3562312 Eh     change       -0.3126220E-04 Eh
   gradient norm :     0.0028908 Eh/α   predicted    -0.2518605E-04 ( -19.44%)
   displ. norm   :     0.4312159 α      lambda       -0.4141594E-04
   maximum displ.:     0.3653612 α      in ANC's #1, #2, #4, ...

........................................................................
.............................. CYCLE   42 ..............................
........................................................................

 iter      E             dE          RMSdq      gap      omega  full diag
   1    -51.0690242 -0.510690E+02  0.100E-01    3.74       0.0  T
   2    -51.0690280 -0.379918E-05  0.540E-02    3.74       1.0  T
   3    -51.0690289 -0.963564E-06  0.774E-03    3.74       2.2  T
   4    -51.0690289  0.186535E-07  0.342E-03    3.74       5.1  T
   5    -51.0690291 -0.174545E-06  0.120E-03    3.74      14.5  T
   6    -51.0690291 -0.303977E-07  0.432E-04    3.74      40.3  T
   7    -51.0690291  0.989573E-10  0.196E-04    3.74      88.9  T
     SCC iter.                  ...        0 min,  0.055 sec
     gradient                   ...        0 min,  0.014 sec
 * total energy  :   -50.3562556 Eh     change       -0.2444096E-04 Eh
   gradient norm :     0.0032682 Eh/α   predicted    -0.2456415E-04 (   0.50%)
   displ. norm   :     0.2107267 α      lambda       -0.5169217E-04
   maximum displ.:     0.1715239 α      in ANC's #1, #2, #6, ...
 * RMSD in coord.:     0.6836168 α      energy gain  -0.5235101E-03 Eh

generating ANC from exact Hessian ...
Using Lindh-Hessian (1995)
 Shifting diagonal of input Hessian by    9.8330752341275838E-003
 Lowest  eigenvalues of input Hessian
    0.000000    0.000000    0.000000    0.000000    0.000000    0.000000
    0.010000    0.010058    0.010122    0.010644    0.010942    0.011663
    0.012763    0.014022    0.016635    0.017550    0.018523    0.019378
 Highest eigenvalues
    1.930246    2.075953    2.182339    2.192507    2.303942    2.892588


........................................................................
.............................. CYCLE   43 ..............................
........................................................................

 iter      E             dE          RMSdq      gap      omega  full diag
   1    -51.0729620 -0.510730E+02  0.495E-02    3.74       0.0  T
   2    -51.0729638 -0.182723E-05  0.272E-02    3.73       1.0  T
   3    -51.0729586  0.516379E-05  0.167E-02    3.73       1.0  T
   4    -51.0729655 -0.692616E-05  0.314E-03    3.73       5.5  T
   5    -51.0729656 -0.572177E-07  0.123E-03    3.73      14.2  T
   6    -51.0729656 -0.132965E-07  0.340E-04    3.73      51.2  T
   7    -51.0729656 -0.110261E-08  0.161E-04    3.73     108.2  T
     SCC iter.                  ...        0 min,  0.010 sec
     gradient                   ...        0 min,  0.059 sec
 * total energy  :   -50.3562732 Eh     change       -0.1753058E-04 Eh
   gradient norm :     0.0061710 Eh/α   predicted     0.0000000E+00 (-100.00%)
   displ. norm   :     0.0296404 α      lambda       -0.1978562E-04
   maximum displ.:     0.0138932 α      in ANC's #1, #5, #7, ...

........................................................................
.............................. CYCLE   44 ..............................
........................................................................

 iter      E             dE          RMSdq      gap      omega  full diag
   1    -51.0708690 -0.510709E+02  0.288E-02    3.73       0.0  T
   2    -51.0708697 -0.674218E-06  0.162E-02    3.73       1.1  T
   3    -51.0708686  0.103250E-05  0.675E-03    3.73       2.6  T
   4    -51.0708699 -0.129634E-05  0.105E-03    3.73      16.6  T
   5    -51.0708699 -0.172184E-07  0.412E-04    3.73      42.2  T
   6    -51.0708699 -0.389001E-09  0.207E-04    3.73      84.0  T
     SCC iter.                  ...        0 min,  0.008 sec
     gradient                   ...        0 min,  0.014 sec
 * total energy  :   -50.3562966 Eh     change       -0.2339609E-04 Eh
   gradient norm :     0.0023892 Eh/α   predicted    -0.2057603E-04 ( -12.05%)
   displ. norm   :     0.0469014 α      lambda       -0.3749446E-04
   maximum displ.:     0.0177098 α      in ANC's #7, #10, #16, ...

........................................................................
.............................. CYCLE   45 ..............................
........................................................................

 iter      E             dE          RMSdq      gap      omega  full diag
   1    -51.0691122 -0.510691E+02  0.325E-02    3.74       0.0  T
   2    -51.0691129 -0.774577E-06  0.183E-02    3.73       1.0  T
   3    -51.0691115  0.143507E-05  0.791E-03    3.74       2.2  T
   4    -51.0691133 -0.179553E-05  0.122E-03    3.74      14.3  T
   5    -51.0691133 -0.251005E-07  0.469E-04    3.73      37.1  T
   6    -51.0691133 -0.485400E-09  0.233E-04    3.73      74.8  T
     SCC iter.                  ...        0 min,  0.008 sec
     gradient                   ...        0 min,  0.053 sec
 * total energy  :   -50.3562914 Eh     change        0.5106737E-05 Eh
   gradient norm :     0.0053448 Eh/α   predicted    -0.1879318E-04 (-468.01%)
   displ. norm   :     0.0280770 α      lambda       -0.4480052E-04
   maximum displ.:     0.0145717 α      in ANC's #1, #5, #4, ...

........................................................................
.............................. CYCLE   46 ..............................
........................................................................

 iter      E             dE          RMSdq      gap      omega  full diag
   1    -51.0700915 -0.510701E+02  0.368E-02    3.73       0.0  T
   2    -51.0700921 -0.620015E-06  0.204E-02    3.73       1.0  T
   3    -51.0700922 -0.100065E-06  0.224E-03    3.74       7.8  T
   4    -51.0700923 -0.114310E-06  0.869E-04    3.74      20.0  T
   5    -51.0700923 -0.117919E-07  0.346E-04    3.74      50.3  T
     SCC iter.                  ...        0 min,  0.007 sec
     gradient                   ...        0 min,  0.014 sec
 * total energy  :   -50.3563177 Eh     change       -0.2628693E-04 Eh
   gradient norm :     0.0018454 Eh/α   predicted    -0.2242279E-04 ( -14.70%)
   displ. norm   :     0.0434611 α      lambda       -0.9292529E-05
   maximum displ.:     0.0254281 α      in ANC's #1, #7, #5, ...

........................................................................
.............................. CYCLE   47 ..............................
........................................................................

 iter      E             dE          RMSdq      gap      omega  full diag
   1    -51.0707387 -0.510707E+02  0.234E-02    3.74       0.0  T
   2    -51.0707390 -0.269898E-06  0.131E-02    3.74       1.3  T
   3    -51.0707390 -0.264033E-07  0.163E-03    3.74      10.7  T
   4    -51.0707391 -0.602394E-07  0.694E-04    3.74      25.1  T
   5    -51.0707391 -0.607047E-08  0.290E-04    3.74      59.9  T
     SCC iter.                  ...        0 min,  0.007 sec
     gradient                   ...        0 min,  0.014 sec
 * total energy  :   -50.3563280 Eh     change       -0.1023028E-04 Eh
   gradient norm :     0.0009035 Eh/α   predicted    -0.4650402E-05 ( -54.54%)
   displ. norm   :     0.0963621 α      lambda       -0.1241013E-04
   maximum displ.:     0.0565736 α      in ANC's #1, #7, #5, ...

........................................................................
.............................. CYCLE   48 ..............................
........................................................................

 iter      E             dE          RMSdq      gap      omega  full diag
   1    -51.0708957 -0.510709E+02  0.365E-02    3.74       0.0  T
   2    -51.0708963 -0.618667E-06  0.205E-02    3.74       1.0  T
   3    -51.0708960  0.260831E-06  0.420E-03    3.74       4.1  T
   4    -51.0708965 -0.481757E-06  0.139E-03    3.74      12.5  T
   5    -51.0708965 -0.250920E-07  0.544E-04    3.74      32.0  T
   6    -51.0708965 -0.102019E-08  0.220E-04    3.74      79.1  T
     SCC iter.                  ...        0 min,  0.008 sec
     gradient                   ...        0 min,  0.014 sec
 * total energy  :   -50.3563413 Eh     change       -0.1334937E-04 Eh
   gradient norm :     0.0012161 Eh/α   predicted    -0.6234990E-05 ( -53.29%)
   displ. norm   :     0.1262488 α      lambda       -0.1159068E-04
   maximum displ.:     0.0783114 α      in ANC's #1, #7, #5, ...

........................................................................
.............................. CYCLE   49 ..............................
........................................................................

 iter      E             dE          RMSdq      gap      omega  full diag
   1    -51.0709727 -0.510710E+02  0.402E-02    3.74       0.0  T
   2    -51.0709735 -0.774011E-06  0.225E-02    3.74       1.0  T
   3    -51.0709736 -0.132285E-06  0.266E-03    3.74       6.5  T
   4    -51.0709737 -0.607045E-07  0.168E-03    3.74      10.4  T
   5    -51.0709737 -0.493672E-07  0.600E-04    3.74      29.0  T
   6    -51.0709738 -0.317530E-08  0.166E-04    3.74     104.7  T
     SCC iter.                  ...        0 min,  0.008 sec
     gradient                   ...        0 min,  0.066 sec
 * total energy  :   -50.3563549 Eh     change       -0.1358927E-04 Eh
   gradient norm :     0.0015509 Eh/α   predicted    -0.5837612E-05 ( -57.04%)
   displ. norm   :     0.2486614 α      lambda       -0.2028726E-04
   maximum displ.:     0.1597010 α      in ANC's #1, #7, #9, ...

........................................................................
.............................. CYCLE   50 ..............................
........................................................................

 iter      E             dE          RMSdq      gap      omega  full diag
   1    -51.0703445 -0.510703E+02  0.720E-02    3.74       0.0  T
   2    -51.0703470 -0.248586E-05  0.401E-02    3.74       1.0  T
   3    -51.0703473 -0.367939E-06  0.529E-03    3.74       3.3  T
   4    -51.0703475 -0.199737E-06  0.334E-03    3.74       5.2  T
   5    -51.0703477 -0.193821E-06  0.111E-03    3.74      15.6  T
   6    -51.0703477 -0.127497E-07  0.308E-04    3.74      56.5  T
   7    -51.0703477 -0.341828E-09  0.135E-04    3.74     128.8  T
     SCC iter.                  ...        0 min,  0.010 sec
     gradient                   ...        0 min,  0.014 sec
 * total energy  :   -50.3563775 Eh     change       -0.2257529E-04 Eh
   gradient norm :     0.0019605 Eh/α   predicted    -0.1042474E-04 ( -53.82%)
   displ. norm   :     0.3251485 α      lambda       -0.2731324E-04
   maximum displ.:     0.2149822 α      in ANC's #1, #7, #9, ...

........................................................................
.............................. CYCLE   51 ..............................
........................................................................

 iter      E             dE          RMSdq      gap      omega  full diag
   1    -51.0700625 -0.510701E+02  0.807E-02    3.74       0.0  T
   2    -51.0700657 -0.322236E-05  0.444E-02    3.73       1.0  T
   3    -51.0700663 -0.591374E-06  0.652E-03    3.73       2.7  T
   4    -51.0700665 -0.130659E-06  0.329E-03    3.73       5.3  T
   5    -51.0700666 -0.106672E-06  0.149E-03    3.73      11.7  T
   6    -51.0700666 -0.412623E-07  0.444E-04    3.73      39.2  T
   7    -51.0700666 -0.207842E-08  0.226E-04    3.73      77.2  T
     SCC iter.                  ...        0 min,  0.010 sec
     gradient                   ...        0 min,  0.053 sec
 * total energy  :   -50.3564059 Eh     change       -0.2845240E-04 Eh
   gradient norm :     0.0029335 Eh/α   predicted    -0.1429881E-04 ( -49.74%)
   displ. norm   :     0.1853870 α      lambda       -0.2981460E-04
   maximum displ.:     0.1296617 α      in ANC's #1, #9, #2, ...

........................................................................
.............................. CYCLE   52 ..............................
........................................................................

 iter      E             dE          RMSdq      gap      omega  full diag
   1    -51.0700856 -0.510701E+02  0.454E-02    3.73       0.0  T
   2    -51.0700867 -0.108491E-05  0.247E-02    3.73       1.0  T
   3    -51.0700864  0.236395E-06  0.556E-03    3.73       3.1  T
   4    -51.0700868 -0.403360E-06  0.282E-03    3.73       6.2  T
   5    -51.0700869 -0.126799E-06  0.868E-04    3.73      20.0  T
   6    -51.0700870 -0.784988E-08  0.255E-04    3.73      68.2  T
     SCC iter.                  ...        0 min,  0.008 sec
     gradient                   ...        0 min,  0.014 sec
 * total energy  :   -50.3564307 Eh     change       -0.2475770E-04 Eh
   gradient norm :     0.0024719 Eh/α   predicted    -0.1542058E-04 ( -37.71%)
   displ. norm   :     0.1755644 α      lambda       -0.4133677E-04
   maximum displ.:     0.1234940 α      in ANC's #1, #2, #9, ...

........................................................................
.............................. CYCLE   53 ..............................
........................................................................

 iter      E             dE          RMSdq      gap      omega  full diag
   1    -51.0714585 -0.510715E+02  0.437E-02    3.73       0.0  T
   2    -51.0714594 -0.911005E-06  0.236E-02    3.72       1.0  T
   3    -51.0714579  0.147207E-05  0.891E-03    3.72       2.0  T
   4    -51.0714597 -0.179588E-05  0.293E-03    3.72       5.9  T
   5    -51.0714598 -0.798794E-07  0.731E-04    3.72      23.8  T
   6    -51.0714598 -0.333696E-08  0.224E-04    3.72      77.8  T
     SCC iter.                  ...        0 min,  0.017 sec
     gradient                   ...        0 min,  0.052 sec
 * total energy  :   -50.3564590 Eh     change       -0.2831235E-04 Eh
   gradient norm :     0.0017836 Eh/α   predicted    -0.2130626E-04 ( -24.75%)
   displ. norm   :     0.4168264 α      lambda       -0.3461438E-04
   maximum displ.:     0.2982203 α      in ANC's #1, #2, #9, ...

........................................................................
.............................. CYCLE   54 ..............................
........................................................................

 iter      E             dE          RMSdq      gap      omega  full diag
   1    -51.0687661 -0.510688E+02  0.103E-01    3.72       0.0  T
   2    -51.0687710 -0.495442E-05  0.557E-02    3.71       1.0  T
   3    -51.0687714 -0.373975E-06  0.944E-03    3.71       1.8  T
   4    -51.0687715 -0.109512E-06  0.631E-03    3.71       2.8  T
   5    -51.0687723 -0.773601E-06  0.158E-03    3.71      11.0  T
   6    -51.0687723 -0.275543E-07  0.419E-04    3.71      41.6  T
   7    -51.0687723 -0.269360E-09  0.178E-04    3.71      97.9  T
     SCC iter.                  ...        0 min,  0.010 sec
     gradient                   ...        0 min,  0.014 sec
 * total energy  :   -50.3564791 Eh     change       -0.2006778E-04 Eh
   gradient norm :     0.0050153 Eh/α   predicted    -0.1864447E-04 (  -7.09%)
   displ. norm   :     0.0591112 α      lambda       -0.2678142E-04
   maximum displ.:     0.0397773 α      in ANC's #1, #2, #6, ...

........................................................................
.............................. CYCLE   55 ..............................
........................................................................

 iter      E             dE          RMSdq      gap      omega  full diag
   1    -51.0702017 -0.510702E+02  0.145E-02    3.72       0.0  T
   2    -51.0702019 -0.167533E-06  0.766E-03    3.72       2.3  T
   3    -51.0702019 -0.120805E-07  0.159E-03    3.72      11.0  T
   4    -51.0702019 -0.732443E-08  0.803E-04    3.72      21.7  T
   5    -51.0702019 -0.436926E-08  0.380E-04    3.72      45.8  T
     SCC iter.                  ...        0 min,  0.058 sec
     gradient                   ...        0 min,  0.014 sec
 * total energy  :   -50.3564999 Eh     change       -0.2082510E-04 Eh
   gradient norm :     0.0029087 Eh/α   predicted    -0.1343813E-04 ( -35.47%)
   displ. norm   :     0.2320818 α      lambda       -0.4259886E-04
   maximum displ.:     0.1731786 α      in ANC's #1, #2, #6, ...

........................................................................
.............................. CYCLE   56 ..............................
........................................................................

 iter      E             dE          RMSdq      gap      omega  full diag
   1    -51.0715026 -0.510715E+02  0.458E-02    3.72       0.0  T
   2    -51.0715037 -0.101943E-05  0.238E-02    3.72       1.0  T
   3    -51.0715034  0.234483E-06  0.584E-03    3.72       3.0  T
   4    -51.0715038 -0.330525E-06  0.346E-03    3.72       5.0  T
   5    -51.0715039 -0.164764E-06  0.892E-04    3.72      19.5  T
   6    -51.0715039 -0.129317E-07  0.275E-04    3.72      63.2  T
     SCC iter.                  ...        0 min,  0.008 sec
     gradient                   ...        0 min,  0.014 sec
 * total energy  :   -50.3565318 Eh     change       -0.3186791E-04 Eh
   gradient norm :     0.0018094 Eh/α   predicted    -0.2244809E-04 ( -29.56%)
   displ. norm   :     0.5603635 α      lambda       -0.4483879E-04
   maximum displ.:     0.4269396 α      in ANC's #1, #2, #6, ...

........................................................................
.............................. CYCLE   57 ..............................
........................................................................

 iter      E             dE          RMSdq      gap      omega  full diag
   1    -51.0704315 -0.510704E+02  0.122E-01    3.73       0.0  T
   2    -51.0704376 -0.608007E-05  0.640E-02    3.73       1.0  T
   3    -51.0704343  0.329721E-05  0.169E-02    3.74       1.0  T
   4    -51.0704391 -0.479585E-05  0.839E-03    3.74       2.1  T
   5    -51.0704399 -0.821437E-06  0.169E-03    3.74      10.3  T
   6    -51.0704400 -0.485392E-07  0.679E-04    3.74      25.6  T
   7    -51.0704400 -0.479549E-08  0.360E-04    3.74      48.3  T
     SCC iter.                  ...        0 min,  0.010 sec
     gradient                   ...        0 min,  0.047 sec
 * total energy  :   -50.3565755 Eh     change       -0.4371995E-04 Eh
   gradient norm :     0.0031688 Eh/α   predicted    -0.2555148E-04 ( -41.56%)
   displ. norm   :     0.1853746 α      lambda       -0.2933564E-04
   maximum displ.:     0.1469640 α      in ANC's #1, #2, #4, ...

........................................................................
.............................. CYCLE   58 ..............................
........................................................................

 iter      E             dE          RMSdq      gap      omega  full diag
   1    -51.0707659 -0.510708E+02  0.468E-02    3.74       0.0  T
   2    -51.0707671 -0.114635E-05  0.247E-02    3.74       1.0  T
   3    -51.0707671 -0.502063E-07  0.470E-03    3.74       3.7  T
   4    -51.0707673 -0.206371E-06  0.260E-03    3.74       6.7  T
   5    -51.0707674 -0.912829E-07  0.753E-04    3.74      23.1  T
   6    -51.0707674 -0.916890E-08  0.274E-04    3.74      63.5  T
     SCC iter.                  ...        0 min,  0.008 sec
     gradient                   ...        0 min,  0.014 sec
 * total energy  :   -50.3565957 Eh     change       -0.2017479E-04 Eh
   gradient norm :     0.0029412 Eh/α   predicted    -0.1517305E-04 ( -24.79%)
[...]
   MERCHANTABILITY or FITNESS FOR A PARTICULAR PURPOSE.  See the
   GNU Lesser General Public License for more details.
   
   Cite this work as:
   * C. Bannwarth, E. Caldeweyher, S. Ehlert, A. Hansen, P. Pracht,
     J. Seibert, S. Spicher, S. Grimme, WIREs Comput. Mol. Sci., 2020, 11,
     e01493. DOI: 10.1002/wcms.1493
   
   for GFN2-xTB:
   * C. Bannwarth, S. Ehlert and S. Grimme., J. Chem. Theory Comput., 2019,
     15, 1652-1671. DOI: 10.1021/acs.jctc.8b01176
   for GFN1-xTB:
   * S. Grimme, C. Bannwarth, P. Shushkov, J. Chem. Theory Comput., 2017,
     13, 1989-2009. DOI: 10.1021/acs.jctc.7b00118
   for GFN0-xTB:
   * P. Pracht, E. Caldeweyher, S. Ehlert, S. Grimme, ChemRxiv, 2019, preprint.
     DOI: 10.26434/chemrxiv.8326202.v1
   for GFN-FF:
   * S. Spicher and S. Grimme, Angew. Chem. Int. Ed., 2020, 59, 15665-15673.
     DOI: 10.1002/anie.202004239
   
   for ALPB and GBSA implicit solvation:
   * S. Ehlert, M. Stahn, S. Spicher, S. Grimme, J. Chem. Theory Comput.,
     2021, 17, 4250-4261. DOI: 10.1021/acs.jctc.1c00471
   
   for ddCOSMO and CPCM-X implicit solvation:
   * M. Stahn, S. Ehlert, S. Grimme, J. Phys. Chem. A,
     2023, XX, XXXX-XXXX. DOI: 10.1021/acs.jpca.3c04382
   
   for DFT-D4:
   * E. Caldeweyher, C. Bannwarth and S. Grimme, J. Chem. Phys., 2017,
     147, 034112. DOI: 10.1063/1.4993215
   * E. Caldeweyher, S. Ehlert, A. Hansen, H. Neugebauer, S. Spicher,
     C. Bannwarth and S. Grimme, J. Chem. Phys., 2019, 150, 154122.
     DOI: 10.1063/1.5090222
   * E. Caldeweyher, J.-M. Mewes, S. Ehlert and S. Grimme, Phys. Chem. Chem. Phys.
     2020, 22, 8499-8512. DOI: 10.1039/D0CP00502A
   
   for sTDA-xTB:
   * S. Grimme and C. Bannwarth, J. Chem. Phys., 2016, 145, 054103.
     DOI: 10.1063/1.4959605
   
   in the mass-spec context:
   * V. Asgeirsson, C. Bauer and S. Grimme, Chem. Sci., 2017, 8, 4879.
     DOI: 10.1039/c7sc00601b
   * J. Koopman and S. Grimme, ACS Omega 2019, 4, 12, 15120-15133.
     DOI: 10.1021/acsomega.9b02011
   
   for metadynamics refer to:
   * S. Grimme, J. Chem. Theory Comput., 2019, 155, 2847-2862
     DOI: 10.1021/acs.jctc.9b00143
   
   for SPH calculations refer to:
   * S. Spicher and S. Grimme, J. Chem. Theory Comput., 2021, 17, 1701-1714
     DOI: 10.1021/acs.jctc.0c01306
   
   for ONIOM refer to:
   * C. Plett, A. Katbashev, S. Ehlert, S. Grimme, M. Bursch,
     Phys. Chem. Chem. Phys., 2023, 25, 17860-17868. DOI: 10.1039/D3CP02178E
   
   for DIPRO refer to:
   * J. Kohn, N. Gildemeister, S. Grimme, D. Fazzi, A. Hansen,
     J. Chem. Phys., 2023, just accepted.
   
   for PTB refer to:
   * S. Grimme, M. Mueller, A. Hansen, J. Chem. Phys., 2023, 158, 124111.
     DOI: 10.1063/5.0137838
   
   with help from (in alphabetical order)
   P. Atkinson, C. Bannwarth, F. Bohle, G. Brandenburg, E. Caldeweyher
   M. Checinski, S. Dohm, S. Ehlert, S. Ehrlich, I. Gerasimov, C. Hölzer
   A. Katbashev, J. Kohn, J. Koopman, C. Lavigne, S. Lehtola, F. März, M. Müller,
   F. Musil, H. Neugebauer, J. Pisarek, C. Plett, P. Pracht, F. Pultar,
   J. Seibert, P. Shushkov, S. Spicher, M. Stahn, M. Steiner, T. Strunk,
   J. Stückrath, T. Rose, and J. Unsleber
   
 * started run on 2025/05/15 at 16:19:35.123     
   ID    Z sym.   atoms
    1    6 C      1, 3, 5, 6, 8-11, 13, 16
    2    7 N      2, 4, 12, 14, 15, 17
    3   16 S      7
    4    1 H      18-33

           -------------------------------------------------
          |                Calculation Setup                |
           -------------------------------------------------

          program call               : xtb /rds/general/user/hgt20/home/callum/QDESCP/Cimetadine_rdkit_conf_5/Cimetadine_rdkit_conf_5.xyz --acc 1 --gfn 2 --chrg 0 --uhf 2 --etemp 300 --input /rds/general/user/hgt20/home/callum/QDESCP/Cimetadine_rdkit_conf_5/Cimetadine_rdkit_conf_5_xtb.inp -P 1
          hostname                   : login-c
          coordinate file            : /rds/general/user/hgt20/home/callum/QDESCP/Cimetadine_rdkit_conf_5/Cimetadine_rdkit_conf_5.xyz
          omp threads                :                     1


           -------------------------------------------------
          |                 G F N 2 - x T B                 |
           -------------------------------------------------

        Reference                      10.1021/acs.jctc.8b01176
      * Hamiltonian:
        H0-scaling (s, p, d)           1.850000    2.230000    2.230000
        zeta-weighting                 0.500000
      * Dispersion:
        s8                             2.700000
        a1                             0.520000
        a2                             5.000000
        s9                             5.000000
      * Repulsion:
        kExp                           1.500000    1.000000
        rExp                           1.000000
      * Coulomb:
        alpha                          2.000000
        third order                    shell-resolved
        anisotropic                    true
        a3                             3.000000
        a5                             4.000000
        cn-shift                       1.200000
        cn-exp                         4.000000
        max-rad                        5.000000


          ...................................................
          :                      SETUP                      :
          :.................................................:
          :  # basis functions                  90          :
          :  # atomic orbitals                  89          :
          :  # shells                           51          :
          :  # electrons                        92          :
          :  max. iterations                   250          :
          :  Hamiltonian                  GFN2-xTB          :
          :  restarted?                      false          :
          :  GBSA solvation                  false          :
          :  PC potential                    false          :
          :  electronic temp.          300.0000000     K    :
          :  accuracy                    1.0000000          :
          :  -> integral cutoff          0.2500000E+02      :
          :  -> integral neglect         0.1000000E-07      :
          :  -> SCF convergence          0.1000000E-05 Eh   :
          :  -> wf. convergence          0.1000000E-03 e    :
          :  Broyden damping             0.4000000          :
          :  net charge                          0          :
          :  unpaired electrons                  2          :
          ...................................................

 iter      E             dE          RMSdq      gap      omega  full diag
   1    -50.6196451 -0.506196E+02  0.419E+00    0.48       0.0  T
   2    -50.5756555  0.439896E-01  0.327E+00    2.25       1.0  T
   3    -50.6360013 -0.603458E-01  0.256E+00    0.63       1.0  T
   4    -50.6547922 -0.187909E-01  0.207E+00    0.88       1.0  T
   5    -50.7286356 -0.738434E-01  0.176E+00    0.26       1.0  T
   6    -50.8828868 -0.154251E+00  0.242E+00    0.14       1.0  T
   7    -50.8846271 -0.174025E-02  0.240E+00    0.14       1.0  T
   8    -50.8870327 -0.240559E-02  0.254E+00    0.19       1.0  T
   9    -50.7476450  0.139388E+00  0.163E+00    0.38       1.0  T
  10    -50.9166929 -0.169048E+00  0.417E-01    0.10       1.0  T
  11    -50.8980100  0.186829E-01  0.765E-01    0.09       1.0  T
  12    -50.9197080 -0.216980E-01  0.200E-01    0.08       1.0  T
  13    -50.8313459  0.883621E-01  0.105E+00    0.11       1.0  T
  14    -50.9151154 -0.837695E-01  0.306E-01    0.08       1.0  T
  15    -50.9013136  0.138018E-01  0.493E-01    0.10       1.0  T
  16    -50.9197919 -0.184784E-01  0.172E-01    0.09       1.0  T
  17    -50.9201165 -0.324590E-03  0.743E-02    0.08       1.0  T
  18    -50.9201569 -0.403248E-04  0.303E-02    0.08       1.0  T
  19    -50.9201107  0.462022E-04  0.262E-02    0.08       1.0  T
  20    -50.9201631 -0.524263E-04  0.489E-03    0.08       3.6  T
  21    -50.9201641 -0.968377E-06  0.321E-03    0.08       5.4  T
  22    -50.9201644 -0.358289E-06  0.292E-03    0.08       6.0  T
  23    -50.9201647 -0.239593E-06  0.253E-04    0.08      68.7  T
  24    -50.9201647 -0.235637E-08  0.167E-04    0.08     104.1  T

   *** convergence criteria satisfied after 24 iterations ***

         #    Occupation            Energy/Eh            Energy/eV
      -------------------------------------------------------------
         1        2.0000           -0.7195412             -19.5797
       ...           ...                  ...                  ...
        41        2.0000           -0.3943668             -10.7313
        42        2.0000           -0.3917143             -10.6591
        43        1.9985           -0.3835185             -10.4361
        44        1.9075           -0.3795315             -10.3276
        45        1.8651           -0.3791275             -10.3166
        46        1.2289           -0.3762083             -10.2371
        47        0.8258           -0.2171271              -5.9083 (HOMO)
        48        0.1742           -0.2141707              -5.8279 (LUMO)
        49        0.0000           -0.2050750              -5.5804
        50                         -0.1741926              -4.7400
        51                         -0.1451281              -3.9491
        52                         -0.1395275              -3.7967
       ...                                ...                  ...
        89                          1.2425778              33.8123
      -------------------------------------------------------------
                  HL-Gap            0.0029564 Eh            0.0804 eV
             Fermi-level           -0.2965055 Eh           -8.0683 eV

 transition dipole moment (au) for excitation:          46          47
     X       Y       Z   
  -0.0332  -0.3568   0.1767  total (au/Debye):    0.400   1.016
 dE (eV)             :    4.329
 oscillator strength :  0.23946E-01

 SCC (total)                   0 d,  0 h,  0 min,  0.159 sec
 SCC setup                      ...        0 min,  0.000 sec (  0.152%)
 Dispersion                     ...        0 min,  0.000 sec (  0.169%)
 classical contributions        ...        0 min,  0.000 sec (  0.060%)
 integral evaluation            ...        0 min,  0.052 sec ( 32.854%)
 iterations                     ...        0 min,  0.034 sec ( 21.295%)
 molecular gradient             ...        0 min,  0.067 sec ( 42.250%)
 printout                       ...        0 min,  0.005 sec (  3.216%)

         :::::::::::::::::::::::::::::::::::::::::::::::::::::
         ::                     SUMMARY                     ::
         :::::::::::::::::::::::::::::::::::::::::::::::::::::
         :: total energy             -50.206754150824 Eh    ::
         :: gradient norm              0.110179058712 Eh/a0 ::
         :: HOMO-LUMO gap              0.080449037889 eV    ::
         ::.................................................::
         :: SCC energy               -50.920221194672 Eh    ::
         :: -> isotropic ES            0.050326799744 Eh    ::
         :: -> anisotropic ES          0.006893246738 Eh    ::
         :: -> anisotropic XC          0.036411527410 Eh    ::
         :: -> dispersion             -0.031375760786 Eh    ::
         :: repulsion energy           0.713467043848 Eh    ::
         :: add. restraining           0.000000000000 Eh    ::
         :: total charge               0.000000000002 e     ::
         :::::::::::::::::::::::::::::::::::::::::::::::::::::

           -------------------------------------------------
          |                Property Printout                |
           -------------------------------------------------

    * Orbital Energies and Occupations

         #    Occupation            Energy/Eh            Energy/eV
      -------------------------------------------------------------
         1        2.0000           -0.7195412             -19.5797
       ...           ...                  ...                  ...
        35        2.0000           -0.4622591             -12.5787
        36        2.0000           -0.4584297             -12.4745
        37        2.0000           -0.4520219             -12.3001
        38        2.0000           -0.4441845             -12.0869
        39        2.0000           -0.4313758             -11.7383
        40        2.0000           -0.4018192             -10.9341
        41        2.0000           -0.3943668             -10.7313
        42        2.0000           -0.3917143             -10.6591
        43        1.9985           -0.3835185             -10.4361
        44        1.9075           -0.3795315             -10.3276
        45        1.8651           -0.3791275             -10.3166
        46        1.2289           -0.3762083             -10.2371
        47        0.8258           -0.2171271              -5.9083 (HOMO)
        48        0.1742           -0.2141707              -5.8279 (LUMO)
        49        0.0000           -0.2050750              -5.5804
        50                         -0.1741926              -4.7400
        51                         -0.1451281              -3.9491
        52                         -0.1395275              -3.7967
        53                         -0.0966886              -2.6310
        54                         -0.0328488              -0.8939
        55                         -0.0166919              -0.4542
        56                         -0.0050284              -0.1368
        57                          0.0045235               0.1231
        58                          0.0203642               0.5541
       ...                                ...                  ...
        89                          1.2425778              33.8123
      -------------------------------------------------------------
                  HL-Gap            0.0029564 Eh            0.0804 eV
             Fermi-level           -0.2965055 Eh           -8.0683 eV

     #   Z          covCN         q      C6AA      α(0)
     1   6 C        3.685    -0.038    21.465     6.633
     2   7 N        2.692    -0.192    25.164     7.450
     3   6 C        2.773     0.193    23.884     8.004
     4   7 N        2.708    -0.184    24.991     7.425
     5   6 C        3.771     0.009    20.453     6.445
     6   6 C        3.795    -0.029    21.106     6.542
     7  16 S        2.009    -0.175   148.444    20.506
     8   6 C        3.797    -0.029    21.094     6.540
     9   6 C        3.238     0.043    26.152     8.294
    10   6 C        3.063     0.014    27.635     8.620
    11   6 C        3.753    -0.108    22.629     6.783
    12   7 N        2.818    -0.116    23.531     7.205
    13   6 C        3.127     0.095    25.714     8.303
    14   7 N        1.914    -0.282    28.150     7.866
    15   7 N        1.842    -0.230    26.877     7.683
    16   6 C        1.851     0.166    27.157     8.418
    17   7 N        0.912    -0.333    28.554     7.728
    18   1 H        0.925     0.053     2.279     2.361
    19   1 H        0.925     0.077     2.007     2.216
    20   1 H        0.924     0.044     2.401     2.423
    21   1 H        0.860     0.161     1.331     1.807
    22   1 H        0.860     0.170     1.275     1.769
    23   1 H        0.924     0.079     1.985     2.203
    24   1 H        0.924     0.054     2.273     2.358
    25   1 H        0.925     0.056     2.252     2.347
    26   1 H        0.925     0.071     2.078     2.254
    27   1 H        0.925     0.044     2.392     2.419
    28   1 H        0.925     0.051     2.309     2.376
    29   1 H        0.924     0.045     2.385     2.415
    30   1 H        0.925     0.055     2.260     2.351
    31   1 H        0.925     0.046     2.368     2.406
    32   1 H        0.860     0.159     1.342     1.815
    33   1 H        0.926     0.033     2.544     2.494

 Mol. C6AA /au·bohr⁶  :      13071.452583
 Mol. C8AA /au·bohr⁸  :     324842.863737
 Mol. α(0) /au        :        176.460103


Wiberg/Mayer (AO) data.
largest (>0.10) Wiberg bond orders for each atom

 ---------------------------------------------------------------------------
     #   Z sym  total        # sym  WBO       # sym  WBO       # sym  WBO
 ---------------------------------------------------------------------------
     1   6 C    3.963 --     2 N    1.012    18 H    0.979    20 H    0.973
                            19 H    0.966
     2   7 N    3.288 --     3 C    1.150     1 C    1.012    21 H    0.942
     3   6 C    3.761 --    15 N    1.328     2 N    1.150     4 N    1.139
     4   7 N    3.298 --     3 C    1.139     5 C    1.010    22 H    0.933
     5   6 C    3.958 --     4 N    1.010     6 C    0.977    24 H    0.966
                            23 H    0.957
     6   6 C    3.947 --     5 C    0.977    25 H    0.973     7 S    0.958
                            26 H    0.952
     7  16 S    2.228 --     6 C    0.958     8 C    0.836
     8   6 C    3.918 --     9 C    1.059    27 H    0.971    28 H    0.965
                             7 S    0.836
     9   6 C    3.889 --    10 C    1.366    14 N    1.256     8 C    1.059
    10   6 C    3.771 --     9 C    1.366    12 N    1.155    11 C    1.035
    11   6 C    3.994 --    10 C    1.035    30 H    0.981    31 H    0.972
                            29 H    0.966
    12   7 N    3.524 --    13 C    1.222    10 C    1.155    32 H    0.945
                            14 N    0.113
    13   6 C    3.910 --    14 N    1.546    12 N    1.222    33 H    0.965
    14   7 N    3.036 --    13 C    1.546     9 C    1.256    12 N    0.113
    15   7 N    3.082 --    16 C    1.382     3 C    1.328    17 N    0.169
    16   6 C    3.874 --    17 N    2.422    15 N    1.382
    17   7 N    2.664 --    16 C    2.422    15 N    0.169
    18   1 H    0.994 --     1 C    0.979
    19   1 H    0.993 --     1 C    0.966
    20   1 H    0.991 --     1 C    0.973
    21   1 H    0.972 --     2 N    0.942
    22   1 H    0.969 --     4 N    0.933
    23   1 H    0.992 --     5 C    0.957
    24   1 H    0.994 --     5 C    0.966
    25   1 H    0.996 --     6 C    0.973
    26   1 H    0.987 --     6 C    0.952
    27   1 H    0.997 --     8 C    0.971
    28   1 H    0.993 --     8 C    0.965
    29   1 H    0.990 --    11 C    0.966
    30   1 H    0.996 --    11 C    0.981
    31   1 H    0.992 --    11 C    0.972
    32   1 H    0.975 --    12 N    0.945
    33   1 H    0.998 --    13 C    0.965
 ---------------------------------------------------------------------------

Topologies differ in total number of bonds
Writing topology from bond orders to xtbtopo.mol

molecular dipole:
                 x           y           z       tot (Debye)
 q only:        1.714      -1.890       0.198
   full:        2.689      -2.076       0.343       8.679
molecular quadrupole (traceless):
                xx          xy          yy          xz          yz          zz
 q only:        5.582      28.628      -5.867      -6.618       4.766       0.285
  q+dip:       12.252      38.298      -9.395     -10.054       3.517      -2.857
   full:       12.199      39.081      -9.931      -9.570       4.011      -2.268


           -------------------------------------------------
          | TOTAL ENERGY              -50.206754150824 Eh   |
          | GRADIENT NORM               0.110179058712 Eh/α |
          | HOMO-LUMO GAP               0.080449037889 eV   |
           -------------------------------------------------

------------------------------------------------------------------------
 * finished run on 2025/05/15 at 16:19:35.293     
------------------------------------------------------------------------
 total:
 * wall-time:     0 d,  0 h,  0 min,  0.170 sec
 *  cpu-time:     0 d,  0 h,  0 min,  0.068 sec
 * ratio c/w:     0.400 speedup
 SCF:
 * wall-time:     0 d,  0 h,  0 min,  0.159 sec
 *  cpu-time:     0 d,  0 h,  0 min,  0.059 sec
 * ratio c/w:     0.369 speedup


