66
 energy: -102.676262498009 gnorm: 0.000910962970 xtb: 6.7.1 (edcfbbe)
C           -3.72490215550764        0.04367382404616        4.52580032746966
C           -4.98636777173818       -0.78838311541786        4.32731467720772
C           -4.95656512512222       -1.63042938507733        3.04302589123430
C           -4.92379423587713       -0.78959568888901        1.81798119102116
N           -5.97220833204468       -0.32215635453030        1.17377894758229
C           -5.52349618373914        0.40041991953605        0.12176479692348
C           -6.43026100250651        1.08361552379629       -0.83177938325182
C           -4.13940391546814        0.38139023663228        0.10992304393678
N           -3.78821191334023       -0.38488592573673        1.20938108197750
N           -2.47850629246059       -0.61477015738386        1.51403635151569
C           -1.52623779341873       -0.08700649043317        0.70175428757995
C           -0.11257982404916       -0.32639576882804        1.04221803496890
C            0.34649325134179       -1.27467508143180        1.98183282931156
C            1.71706942981130       -1.42237775337932        2.18759581111276
C            2.62556609885029       -0.64304018159325        1.49467554473591
C            2.17259173014568        0.29066691307212        0.58388149479834
S            3.34416042050036        1.35216646652500       -0.26780585399646
O            3.22175543607709        2.67601666167694        0.26586564534248
N            2.69090090685413        1.33773836803442       -1.80183743634554
C            3.06363350733744        0.18819174465423       -2.59504190776201
C            4.42667473208995        0.37545686819557       -3.26207086091926
N            4.43058999539825        1.59795586524602       -4.05033826396552
C            4.15514457965455        2.73389336202806       -3.18606562393717
C            2.77645040865657        2.57337153495415       -2.55022555339692
C            5.66789558119737        1.77099270761333       -4.79491787310179
C            5.76607760013075        0.80761851281032       -5.97263705239938
O            4.63179940117648        0.71281136922043       -0.18923217787788
C            0.82441919900653        0.44721961900800        0.35880360340046
O           -0.57901573039311       -2.01848541095279        2.65086057896748
C           -0.16166100543046       -3.05341597859549        3.53285669045538
C           -1.41381177075491       -3.74440033596518        4.05090269966305
N           -1.78683743291443        0.62405332101183       -0.33697787992876
C           -3.08760657255537        0.92195075031458       -0.74096145770262
O           -3.29274578473169        1.58251999769605       -1.73577047318533
H           -3.60413916890892        0.76710154357055        3.72272951485321
H           -2.83833192235011       -0.58851283761551        4.56522021607687
H           -3.78475952044035        0.59365387860272        5.46194586281690
H           -5.85298783354938       -0.12773872829326        4.28555602443843
H           -5.11531378839214       -1.46020019908147        5.17856476692013
H           -5.86198239603469       -2.23656285475907        3.00135398837504
H           -4.09224288115798       -2.30062681072633        3.05702073486323
H           -5.84374255891077        1.52781686199348       -1.63089215983015
H           -6.99477418251445        1.86081203965679       -0.31832571143704
H           -7.14283596071056        0.37143061762014       -1.24418134392573
H           -2.25750086568701       -1.20656645751223        2.30396974567718
H            2.08606902758049       -2.14485434567464        2.89701293845905
H            3.68731806713141       -0.75187654686908        1.64853574245137
H            3.08398437367105       -0.67859512631611       -1.93213837890191
H            2.29080243467423        0.04669690562546       -3.35591917244411
H            5.20185987780276        0.39942050844657       -2.47742035108150
H            4.61612210198489       -0.47228124373283       -3.92158225949267
H            4.17487197995221        3.64564103962002       -3.78741431882504
H            4.90471538348839        2.82443145440622       -2.37829036122246
H            2.57884941599152        3.38685854644895       -1.85286718942289
H            2.00386860819572        2.54874611563829       -3.32332480672807
H            6.55182766098355        1.65844863590955       -4.14267758817136
H            5.66778859688789        2.79265690063256       -5.18372024451690
H            4.84429262831723        0.83755632579143       -6.54682907679775
H            5.94041635496736       -0.21316550667416       -5.64393008346198
H            6.59168254322227        1.10104817228490       -6.61605173605053
H            0.46448409725274        1.16539398456371       -0.35938650033650
H            0.46941432879429       -3.76925457098868        2.99310660394532
H            0.40911219891187       -2.62650511986107        4.36663050370999
H           -1.99661998307432       -4.13643269471060        3.22082745384560
H           -1.13270301958073       -4.56794454699708        4.70014793650286
H           -2.02695503470138       -3.04860187882310        4.61863751826132
