----- Optimization -----
      -----------------------------------------------------------      
     |                   =====================                   |     
     |                           x T B                           |     
     |                   =====================                   |     
     |                         S. Grimme                         |     
     |          Mulliken Center for Theoretical Chemistry        |     
     |                    University of Bonn                     |     
      -----------------------------------------------------------      

   * xtb version 6.7.1 (edcfbbe) compiled by 'conda@3ef47c1a292c' on 2024-11-25

   xtb is free software: you can redistribute it and/or modify it under
   the terms of the GNU Lesser General Public License as published by
   the Free Software Foundation, either version 3 of the License, or
   (at your option) any later version.
   
   xtb is distributed in the hope that it will be useful,
   but WITHOUT ANY WARRANTY; without even the implied warranty of
   MERCHANTABILITY or FITNESS FOR A PARTICULAR PURPOSE.  See the
   GNU Lesser General Public License for more details.
   
   Cite this work as:
   * C. Bannwarth, E. Caldeweyher, S. Ehlert, A. Hansen, P. Pracht,
     J. Seibert, S. Spicher, S. Grimme, WIREs Comput. Mol. Sci., 2020, 11,
     e01493. DOI: 10.1002/wcms.1493
   
   for GFN2-xTB:
   * C. Bannwarth, S. Ehlert and S. Grimme., J. Chem. Theory Comput., 2019,
     15, 1652-1671. DOI: 10.1021/acs.jctc.8b01176
   for GFN1-xTB:
   * S. Grimme, C. Bannwarth, P. Shushkov, J. Chem. Theory Comput., 2017,
     13, 1989-2009. DOI: 10.1021/acs.jctc.7b00118
   for GFN0-xTB:
   * P. Pracht, E. Caldeweyher, S. Ehlert, S. Grimme, ChemRxiv, 2019, preprint.
     DOI: 10.26434/chemrxiv.8326202.v1
   for GFN-FF:
   * S. Spicher and S. Grimme, Angew. Chem. Int. Ed., 2020, 59, 15665-15673.
     DOI: 10.1002/anie.202004239
   
   for ALPB and GBSA implicit solvation:
   * S. Ehlert, M. Stahn, S. Spicher, S. Grimme, J. Chem. Theory Comput.,
     2021, 17, 4250-4261. DOI: 10.1021/acs.jctc.1c00471
   
   for ddCOSMO and CPCM-X implicit solvation:
   * M. Stahn, S. Ehlert, S. Grimme, J. Phys. Chem. A,
     2023, XX, XXXX-XXXX. DOI: 10.1021/acs.jpca.3c04382
   
   for DFT-D4:
   * E. Caldeweyher, C. Bannwarth and S. Grimme, J. Chem. Phys., 2017,
     147, 034112. DOI: 10.1063/1.4993215
   * E. Caldeweyher, S. Ehlert, A. Hansen, H. Neugebauer, S. Spicher,
     C. Bannwarth and S. Grimme, J. Chem. Phys., 2019, 150, 154122.
     DOI: 10.1063/1.5090222
   * E. Caldeweyher, J.-M. Mewes, S. Ehlert and S. Grimme, Phys. Chem. Chem. Phys.
     2020, 22, 8499-8512. DOI: 10.1039/D0CP00502A
   
   for sTDA-xTB:
   * S. Grimme and C. Bannwarth, J. Chem. Phys., 2016, 145, 054103.
     DOI: 10.1063/1.4959605
   
   in the mass-spec context:
   * V. Asgeirsson, C. Bauer and S. Grimme, Chem. Sci., 2017, 8, 4879.
     DOI: 10.1039/c7sc00601b
   * J. Koopman and S. Grimme, ACS Omega 2019, 4, 12, 15120-15133.
     DOI: 10.1021/acsomega.9b02011
   
   for metadynamics refer to:
   * S. Grimme, J. Chem. Theory Comput., 2019, 155, 2847-2862
     DOI: 10.1021/acs.jctc.9b00143
   
   for SPH calculations refer to:
   * S. Spicher and S. Grimme, J. Chem. Theory Comput., 2021, 17, 1701-1714
     DOI: 10.1021/acs.jctc.0c01306
   
   for ONIOM refer to:
   * C. Plett, A. Katbashev, S. Ehlert, S. Grimme, M. Bursch,
     Phys. Chem. Chem. Phys., 2023, 25, 17860-17868. DOI: 10.1039/D3CP02178E
   
   for DIPRO refer to:
   * J. Kohn, N. Gildemeister, S. Grimme, D. Fazzi, A. Hansen,
     J. Chem. Phys., 2023, just accepted.
   
   for PTB refer to:
   * S. Grimme, M. Mueller, A. Hansen, J. Chem. Phys., 2023, 158, 124111.
     DOI: 10.1063/5.0137838
   
   with help from (in alphabetical order)
   P. Atkinson, C. Bannwarth, F. Bohle, G. Brandenburg, E. Caldeweyher
   M. Checinski, S. Dohm, S. Ehlert, S. Ehrlich, I. Gerasimov, C. Hölzer
   A. Katbashev, J. Kohn, J. Koopman, C. Lavigne, S. Lehtola, F. März, M. Müller,
   F. Musil, H. Neugebauer, J. Pisarek, C. Plett, P. Pracht, F. Pultar,
   J. Seibert, P. Shushkov, S. Spicher, M. Stahn, M. Steiner, T. Strunk,
   J. Stückrath, T. Rose, and J. Unsleber
   
 * started run on 2025/05/15 at 16:29:06.951     
   ID    Z sym.   atoms
    1    6 C      1-4, 6-8, 11-16, 20, 21, 23-26, 28, 30, 31, 33
    2    7 N      5, 9, 10, 19, 22, 32
    3   16 S      17
    4    8 O      18, 27, 29, 34
    5    1 H      35-66

           -------------------------------------------------
          |                Calculation Setup                |
           -------------------------------------------------

          program call               : xtb /rds/general/user/hgt20/home/callum/QDESCP/Vardenafil_rdkit_conf_10/Vardenafil_rdkit_conf_10.xyz --opt normal --acc 1 --gfn 2 --chrg 0 --uhf 0 -P 1
          hostname                   : login-c
          coordinate file            : /rds/general/user/hgt20/home/callum/QDESCP/Vardenafil_rdkit_conf_10/Vardenafil_rdkit_conf_10.xyz
          omp threads                :                     1


           -------------------------------------------------
          |                 G F N 2 - x T B                 |
           -------------------------------------------------

        Reference                      10.1021/acs.jctc.8b01176
      * Hamiltonian:
        H0-scaling (s, p, d)           1.850000    2.230000    2.230000
        zeta-weighting                 0.500000
      * Dispersion:
        s8                             2.700000
        a1                             0.520000
        a2                             5.000000
        s9                             5.000000
      * Repulsion:
        kExp                           1.500000    1.000000
        rExp                           1.000000
      * Coulomb:
        alpha                          2.000000
        third order                    shell-resolved
        anisotropic                    true
        a3                             3.000000
        a5                             4.000000
        cn-shift                       1.200000
        cn-exp                         4.000000
        max-rad                        5.000000


          ...................................................
          :                      SETUP                      :
          :.................................................:
          :  # basis functions                 174          :
          :  # atomic orbitals                 173          :
          :  # shells                          101          :
          :  # electrons                       184          :
          :  max. iterations                   250          :
          :  Hamiltonian                  GFN2-xTB          :
          :  restarted?                      false          :
          :  GBSA solvation                  false          :
          :  PC potential                    false          :
          :  electronic temp.          300.0000000     K    :
          :  accuracy                    1.0000000          :
          :  -> integral cutoff          0.2500000E+02      :
          :  -> integral neglect         0.1000000E-07      :
          :  -> SCF convergence          0.1000000E-05 Eh   :
          :  -> wf. convergence          0.1000000E-03 e    :
          :  Broyden damping             0.4000000          :
          :  net charge                          0          :
          :  unpaired electrons                  0          :
          ...................................................

 iter      E             dE          RMSdq      gap      omega  full diag
   1   -103.6107118 -0.103611E+03  0.412E+00    2.35       0.0  T
   2   -103.8372367 -0.226525E+00  0.264E+00    1.65       1.0  T
   3   -103.8599383 -0.227016E-01  0.137E+00    1.80       1.0  T
   4   -103.8713130 -0.113747E-01  0.492E-01    1.22       1.0  T
   5   -103.8813028 -0.998974E-02  0.187E-01    1.30       1.0  T
   6   -103.8816324 -0.329640E-03  0.959E-02    1.29       1.0  T
   7   -103.8817783 -0.145876E-03  0.572E-02    1.33       1.0  T
   8   -103.8818534 -0.751757E-04  0.283E-02    1.33       1.0  T
   9   -103.8818633 -0.983833E-05  0.102E-02    1.34       1.2  T
  10   -103.8818659 -0.262761E-05  0.492E-03    1.34       2.5  T
  11   -103.8818662 -0.287111E-06  0.214E-03    1.34       5.8  T
  12   -103.8818663 -0.889839E-07  0.637E-04    1.34      19.3  T
  13   -103.8818663 -0.121077E-07  0.304E-04    1.34      40.5  T

   *** convergence criteria satisfied after 13 iterations ***

         #    Occupation            Energy/Eh            Energy/eV
      -------------------------------------------------------------
         1        2.0000           -0.7727878             -21.0286
       ...           ...                  ...                  ...
        86        2.0000           -0.4119349             -11.2093
        87        2.0000           -0.4086884             -11.1210
        88        2.0000           -0.3931050             -10.6969
        89        2.0000           -0.3817897             -10.3890
        90        2.0000           -0.3792019             -10.3186
        91        2.0000           -0.3721059             -10.1255
        92        2.0000           -0.3515284              -9.5656 (HOMO)
        93                         -0.3024596              -8.2303 (LUMO)
        94                         -0.2714489              -7.3865
        95                         -0.2535281              -6.8989
        96                         -0.2307419              -6.2788
        97                         -0.1918422              -5.2203
       ...                                ...                  ...
       173                          1.1552319              31.4355
      -------------------------------------------------------------
                  HL-Gap            0.0490687 Eh            1.3352 eV
             Fermi-level           -0.3269940 Eh           -8.8980 eV

 SCC (total)                   0 d,  0 h,  0 min,  0.155 sec
 SCC setup                      ...        0 min,  0.001 sec (  0.481%)
 Dispersion                     ...        0 min,  0.001 sec (  0.682%)
 classical contributions        ...        0 min,  0.000 sec (  0.227%)
 integral evaluation            ...        0 min,  0.015 sec (  9.915%)
 iterations                     ...        0 min,  0.066 sec ( 42.729%)
 molecular gradient             ...        0 min,  0.071 sec ( 45.664%)
 printout                       ...        0 min,  0.000 sec (  0.292%)

         :::::::::::::::::::::::::::::::::::::::::::::::::::::
         ::                     SUMMARY                     ::
         :::::::::::::::::::::::::::::::::::::::::::::::::::::
         :: total energy            -102.652663648064 Eh    ::
         :: gradient norm              0.104391244005 Eh/a0 ::
         :: HOMO-LUMO gap              1.335228060071 eV    ::
         ::.................................................::
         :: SCC energy              -103.881303622708 Eh    ::
         :: -> isotropic ES            0.146654268760 Eh    ::
         :: -> anisotropic ES          0.005866884298 Eh    ::
         :: -> anisotropic XC          0.050611905120 Eh    ::
         :: -> dispersion             -0.076097957323 Eh    ::
         :: repulsion energy           1.228639974644 Eh    ::
         :: add. restraining           0.000000000000 Eh    ::
         :: total charge               0.000000000000 e     ::
         :::::::::::::::::::::::::::::::::::::::::::::::::::::

      ----------------------------------------------------------- 
     |                   =====================                   |
     |                        A N C O P T                        |
     |                   =====================                   |
     |               Approximate Normal Coordinate               |
     |                Rational Function Optimizer                |
      ----------------------------------------------------------- 
      ----------------------------------------------------------- 
     |                   =====================                   |
     |                        A N C O P T                        |
     |                   =====================                   |
     |               Approximate Normal Coordinate               |
     |                Rational Function Optimizer                |
      ----------------------------------------------------------- 

          ...................................................
          :                      SETUP                      :
          :.................................................:
          :   optimization level            normal          :
          :   max. optcycles                   200          :
          :   ANC micro-cycles                  20          :
          :   degrees of freedom               192          :
          :.................................................:
          :   RF solver                   davidson          :
          :   write xtbopt.log                true          :
          :   linear?                        false          :
          :   energy convergence         0.5000000E-05 Eh   :
          :   grad. convergence          0.1000000E-02 Eh/α :
          :   maxmium RF displ.          1.0000000          :
          :   Hlow (freq-cutoff)         0.1000000E-01      :
          :   Hmax (freq-cutoff)         5.0000000          :
          :   S6 in model hess.         20.0000000          :
          ...................................................

generating ANC from exact Hessian ...
Using Lindh-Hessian (1995)
 Shifting diagonal of input Hessian by    9.8941479726956019E-003
 Lowest  eigenvalues of input Hessian
    0.000000    0.000000    0.000000    0.000000    0.000000    0.000000
    0.010000    0.010054    0.010139    0.010435    0.010505    0.010709
    0.010975    0.011453    0.011726    0.011987    0.012371    0.012706
 Highest eigenvalues
    2.085710    2.102790    2.317822    2.432222    2.537858    3.434600


........................................................................
.............................. CYCLE    1 ..............................
........................................................................

 iter      E             dE          RMSdq      gap      omega  full diag
   1   -103.8818663 -0.103882E+03  0.132E-04    1.34       0.0  T
   2   -103.8818663 -0.140815E-09  0.848E-05    1.34     145.1  T
   3   -103.8818663 -0.587050E-10  0.579E-05    1.34     212.7  T
     SCC iter.                  ...        0 min,  0.020 sec
     gradient                   ...        0 min,  0.055 sec
 * total energy  :  -102.6526636 Eh     change       -0.1654783E-08 Eh
   gradient norm :     0.1043888 Eh/α   predicted     0.0000000E+00 (-100.00%)
   displ. norm   :     0.3426670 α      lambda       -0.2015073E-01
   maximum displ.:     0.1488002 α      in ANC's #64, #67, #65, ...

........................................................................
.............................. CYCLE    2 ..............................
........................................................................

 iter      E             dE          RMSdq      gap      omega  full diag
   1   -103.9318316 -0.103932E+03  0.201E-01    1.40       0.0  T
   2   -103.9320640 -0.232370E-03  0.129E-01    1.45       1.0  T
   3   -103.9320222  0.417474E-04  0.629E-02    1.45       1.0  T
   4   -103.9321359 -0.113683E-03  0.204E-02    1.46       1.0  T
   5   -103.9321524 -0.165184E-04  0.647E-03    1.46       1.9  T
   6   -103.9321524  0.872869E-08  0.184E-03    1.46       6.7  T
   7   -103.9321525 -0.122368E-06  0.797E-04    1.46      15.4  T
   8   -103.9321526 -0.150620E-07  0.391E-04    1.46      31.5  T
     SCC iter.                  ...        0 min,  0.056 sec
     gradient                   ...        0 min,  0.056 sec
 * total energy  :  -102.6668260 Eh     change       -0.1416237E-01 Eh
   gradient norm :     0.0459862 Eh/α   predicted    -0.1126392E-01 ( -20.47%)
   displ. norm   :     0.3137642 α      lambda       -0.7021729E-02
   maximum displ.:     0.1094306 α      in ANC's #16, #64, #25, ...

........................................................................
.............................. CYCLE    3 ..............................
........................................................................

 iter      E             dE          RMSdq      gap      omega  full diag
   1   -103.9601502 -0.103960E+03  0.149E-01    1.46       0.0  T
   2   -103.9602849 -0.134701E-03  0.930E-02    1.50       1.0  T
   3   -103.9602722  0.126739E-04  0.448E-02    1.50       1.0  T
   4   -103.9603316 -0.594082E-04  0.166E-02    1.51       1.0  T
   5   -103.9603408 -0.923333E-05  0.614E-03    1.51       2.0  T
   6   -103.9603408 -0.147220E-07  0.159E-03    1.51       7.7  T
   7   -103.9603410 -0.114460E-06  0.593E-04    1.51      20.8  T
   8   -103.9603410 -0.484813E-08  0.288E-04    1.51      42.8  T
     SCC iter.                  ...        0 min,  0.039 sec
     gradient                   ...        0 min,  0.069 sec
 * total energy  :  -102.6710368 Eh     change       -0.4210760E-02 Eh
   gradient norm :     0.0175310 Eh/α   predicted    -0.3858424E-02 (  -8.37%)
   displ. norm   :     0.2369908 α      lambda       -0.1390105E-02
   maximum displ.:     0.1172700 α      in ANC's #16, #15, #19, ...

........................................................................
.............................. CYCLE    4 ..............................
........................................................................

 iter      E             dE          RMSdq      gap      omega  full diag
   1   -103.9635761 -0.103964E+03  0.701E-02    1.51       0.0  T
   2   -103.9635988 -0.226667E-04  0.384E-02    1.52       1.0  T
   3   -103.9635924  0.632816E-05  0.182E-02    1.52       1.0  T
   4   -103.9636066 -0.141628E-04  0.629E-03    1.52       2.0  T
   5   -103.9636075 -0.947928E-06  0.279E-03    1.52       4.4  T
   6   -103.9636076 -0.985934E-07  0.852E-04    1.52      14.5  T
   7   -103.9636077 -0.249790E-07  0.284E-04    1.52      43.3  T
     SCC iter.                  ...        0 min,  0.035 sec
     gradient                   ...        0 min,  0.077 sec
 * total energy  :  -102.6721100 Eh     change       -0.1073227E-02 Eh
   gradient norm :     0.0156096 Eh/α   predicted    -0.7341026E-03 ( -31.60%)
   displ. norm   :     0.3529035 α      lambda       -0.1414378E-02
   maximum displ.:     0.1765544 α      in ANC's #16, #15, #8, ...

........................................................................
.............................. CYCLE    5 ..............................
........................................................................

 iter      E             dE          RMSdq      gap      omega  full diag
   1   -103.9632137 -0.103963E+03  0.915E-02    1.52       0.0  T
   2   -103.9632679 -0.541120E-04  0.490E-02    1.53       1.0  T
   3   -103.9632644  0.346468E-05  0.243E-02    1.53       1.0  T
   4   -103.9632834 -0.190536E-04  0.794E-03    1.53       1.6  T
   5   -103.9632852 -0.173010E-05  0.390E-03    1.53       3.2  T
   6   -103.9632855 -0.288578E-06  0.113E-03    1.53      10.9  T
   7   -103.9632855 -0.541551E-07  0.401E-04    1.53      30.7  T
   8   -103.9632855 -0.152289E-08  0.192E-04    1.53      64.0  T
     SCC iter.                  ...        0 min,  0.049 sec
     gradient                   ...        0 min,  0.056 sec
 * total energy  :  -102.6730667 Eh     change       -0.9567390E-03 Eh
   gradient norm :     0.0118553 Eh/α   predicted    -0.7952646E-03 ( -16.88%)
   displ. norm   :     0.2447700 α      lambda       -0.5330725E-03
   maximum displ.:     0.1137778 α      in ANC's #16, #4, #8, ...

........................................................................
.............................. CYCLE    6 ..............................
........................................................................

 iter      E             dE          RMSdq      gap      omega  full diag
   1   -103.9632701 -0.103963E+03  0.535E-02    1.54       0.0  T
   2   -103.9632955 -0.254147E-04  0.298E-02    1.53       1.0  T
   3   -103.9632974 -0.189532E-05  0.161E-02    1.54       1.0  T
   4   -103.9633036 -0.621360E-05  0.490E-03    1.54       2.5  T
   5   -103.9633045 -0.872636E-06  0.224E-03    1.54       5.5  T
   6   -103.9633046 -0.752399E-07  0.735E-04    1.54      16.7  T
   7   -103.9633046 -0.232852E-07  0.242E-04    1.54      50.9  T
     SCC iter.                  ...        0 min,  0.042 sec
     gradient                   ...        0 min,  0.082 sec
 * total energy  :  -102.6734428 Eh     change       -0.3760359E-03 Eh
   gradient norm :     0.0086669 Eh/α   predicted    -0.2825137E-03 ( -24.87%)
   displ. norm   :     0.2177537 α      lambda       -0.3261916E-03
   maximum displ.:     0.1103228 α      in ANC's #4, #8, #16, ...

........................................................................
.............................. CYCLE    7 ..............................
........................................................................

 iter      E             dE          RMSdq      gap      omega  full diag
   1   -103.9643332 -0.103964E+03  0.408E-02    1.55       0.0  T
   2   -103.9643472 -0.140285E-04  0.236E-02    1.54       1.0  T
   3   -103.9643485 -0.122920E-05  0.134E-02    1.54       1.0  T
   4   -103.9643527 -0.424159E-05  0.350E-03    1.54       3.5  T
   5   -103.9643532 -0.520426E-06  0.145E-03    1.54       8.5  T
   6   -103.9643533 -0.310261E-07  0.550E-04    1.54      22.4  T
   7   -103.9643533 -0.111770E-07  0.175E-04    1.54      70.5  T
     SCC iter.                  ...        0 min,  0.035 sec
     gradient                   ...        0 min,  0.082 sec
 * total energy  :  -102.6736791 Eh     change       -0.2362780E-03 Eh
   gradient norm :     0.0063564 Eh/α   predicted    -0.1708438E-03 ( -27.69%)
   displ. norm   :     0.2168035 α      lambda       -0.2376352E-03
   maximum displ.:     0.1288737 α      in ANC's #4, #8, #15, ...

........................................................................
.............................. CYCLE    8 ..............................
........................................................................

 iter      E             dE          RMSdq      gap      omega  full diag
   1   -103.9655831 -0.103966E+03  0.356E-02    1.55       0.0  T
   2   -103.9655899 -0.679407E-05  0.205E-02    1.54       1.0  T
   3   -103.9655887  0.123315E-05  0.115E-02    1.54       1.1  T
   4   -103.9655930 -0.429570E-05  0.242E-03    1.54       5.1  T
   5   -103.9655932 -0.246495E-06  0.104E-03    1.54      11.9  T
   6   -103.9655932 -0.189128E-07  0.413E-04    1.54      29.8  T
   7   -103.9655932 -0.570056E-08  0.130E-04    1.54      94.6  T
     SCC iter.                  ...        0 min,  0.051 sec
     gradient                   ...        0 min,  0.055 sec
 * total energy  :  -102.6738546 Eh     change       -0.1755192E-03 Eh
   gradient norm :     0.0054980 Eh/α   predicted    -0.1244033E-03 ( -29.12%)
   displ. norm   :     0.2231084 α      lambda       -0.1846997E-03
   maximum displ.:     0.1438560 α      in ANC's #4, #8, #7, ...

........................................................................
.............................. CYCLE    9 ..............................
........................................................................

 iter      E             dE          RMSdq      gap      omega  full diag
   1   -103.9664557 -0.103966E+03  0.318E-02    1.54       0.0  T
   2   -103.9664590 -0.324697E-05  0.183E-02    1.54       1.0  T
   3   -103.9664570  0.194772E-05  0.877E-03    1.54       1.4  T
   4   -103.9664603 -0.328346E-05  0.185E-03    1.54       6.6  T
   5   -103.9664604 -0.105273E-06  0.894E-04    1.54      13.8  T
   6   -103.9664604 -0.145608E-07  0.335E-04    1.54      36.8  T
     SCC iter.                  ...        0 min,  0.039 sec
     gradient                   ...        0 min,  0.056 sec
 * total energy  :  -102.6739941 Eh     change       -0.1394925E-03 Eh
   gradient norm :     0.0051946 Eh/α   predicted    -0.9694977E-04 ( -30.50%)
   displ. norm   :     0.2291705 α      lambda       -0.1512226E-03
   maximum displ.:     0.1534401 α      in ANC's #4, #8, #6, ...

........................................................................
.............................. CYCLE   10 ..............................
........................................................................

 iter      E             dE          RMSdq      gap      omega  full diag
   1   -103.9668092 -0.103967E+03  0.296E-02    1.54       0.0  T
   2   -103.9668112 -0.206256E-05  0.170E-02    1.54       1.0  T
   3   -103.9668100  0.123871E-05  0.642E-03    1.54       1.9  T
   4   -103.9668119 -0.187588E-05  0.170E-03    1.53       7.2  T
   5   -103.9668119 -0.632223E-07  0.801E-04    1.53      15.4  T
   6   -103.9668120 -0.134477E-07  0.280E-04    1.53      44.0  T
     SCC iter.                  ...        0 min,  0.030 sec
     gradient                   ...        0 min,  0.069 sec
 * total energy  :  -102.6741119 Eh     change       -0.1178067E-03 Eh
   gradient norm :     0.0047882 Eh/α   predicted    -0.7958416E-04 ( -32.45%)
   displ. norm   :     0.2359249 α      lambda       -0.1324499E-03
   maximum displ.:     0.1609503 α      in ANC's #4, #8, #6, ...

........................................................................
.............................. CYCLE   11 ..............................
........................................................................

 iter      E             dE          RMSdq      gap      omega  full diag
   1   -103.9668116 -0.103967E+03  0.299E-02    1.53       0.0  T
   2   -103.9668133 -0.177505E-05  0.171E-02    1.53       1.0  T
   3   -103.9668124  0.986388E-06  0.591E-03    1.53       2.1  T
   4   -103.9668138 -0.143728E-05  0.186E-03    1.53       6.6  T
   5   -103.9668139 -0.985289E-07  0.787E-04    1.53      15.6  T
   6   -103.9668139 -0.134053E-07  0.251E-04    1.53      49.0  T
     SCC iter.                  ...        0 min,  0.030 sec
     gradient                   ...        0 min,  0.065 sec
 * total energy  :  -102.6742167 Eh     change       -0.1048661E-03 Eh
   gradient norm :     0.0041726 Eh/α   predicted    -0.6991258E-04 ( -33.33%)
   displ. norm   :     0.2348906 α      lambda       -0.1124933E-03
   maximum displ.:     0.1618749 α      in ANC's #4, #6, #3, ...

........................................................................
.............................. CYCLE   12 ..............................
........................................................................

 iter      E             dE          RMSdq      gap      omega  full diag
   1   -103.9667063 -0.103967E+03  0.307E-02    1.53       0.0  T
   2   -103.9667080 -0.173543E-05  0.173E-02    1.54       1.0  T
   3   -103.9667073  0.702454E-06  0.572E-03    1.54       2.2  T
   4   -103.9667083 -0.102151E-05  0.195E-03    1.54       6.3  T
   5   -103.9667085 -0.145446E-06  0.755E-04    1.54      16.3  T
   6   -103.9667085 -0.125790E-07  0.239E-04    1.54      51.5  T
     SCC iter.                  ...        0 min,  0.030 sec
     gradient                   ...        0 min,  0.071 sec
 * total energy  :  -102.6743063 Eh     change       -0.8953620E-04 Eh
   gradient norm :     0.0034614 Eh/α   predicted    -0.5935107E-04 ( -33.71%)
   displ. norm   :     0.2200065 α      lambda       -0.8968733E-04
   maximum displ.:     0.1524598 α      in ANC's #4, #6, #3, ...

........................................................................
.............................. CYCLE   13 ..............................
........................................................................

 iter      E             dE          RMSdq      gap      omega  full diag
   1   -103.9667887 -0.103967E+03  0.292E-02    1.54       0.0  T
   2   -103.9667902 -0.153067E-05  0.165E-02    1.54       1.0  T
   3   -103.9667898  0.369948E-06  0.492E-03    1.54       2.5  T
   4   -103.9667904 -0.588830E-06  0.167E-03    1.54       7.4  T
   5   -103.9667905 -0.109461E-06  0.642E-04    1.54      19.2  T
   6   -103.9667905 -0.103532E-07  0.208E-04    1.54      59.1  T
     SCC iter.                  ...        0 min,  0.046 sec
     gradient                   ...        0 min,  0.056 sec
 * total energy  :  -102.6743786 Eh     change       -0.7232689E-04 Eh
   gradient norm :     0.0029624 Eh/α   predicted    -0.4701935E-04 ( -34.99%)
   displ. norm   :     0.2066858 α      lambda       -0.7457234E-04
   maximum displ.:     0.1426304 α      in ANC's #4, #3, #6, ...

........................................................................
.............................. CYCLE   14 ..............................
........................................................................

 iter      E             dE          RMSdq      gap      omega  full diag
   1   -103.9670396 -0.103967E+03  0.271E-02    1.54       0.0  T
   2   -103.9670408 -0.116041E-05  0.154E-02    1.55       1.0  T
   3   -103.9670404  0.355273E-06  0.420E-03    1.55       2.9  T
   4   -103.9670410 -0.525914E-06  0.140E-03    1.55       8.8  T
   5   -103.9670410 -0.811072E-07  0.545E-04    1.55      22.6  T
   6   -103.9670410 -0.753253E-08  0.175E-04    1.55      70.2  T
     SCC iter.                  ...        0 min,  0.045 sec
     gradient                   ...        0 min,  0.056 sec
 * total energy  :  -102.6744410 Eh     change       -0.6237474E-04 Eh
   gradient norm :     0.0029131 Eh/α   predicted    -0.3888094E-04 ( -37.67%)
   displ. norm   :     0.2161203 α      lambda       -0.7596905E-04
   maximum displ.:     0.1468526 α      in ANC's #4, #3, #6, ...

........................................................................
.............................. CYCLE   15 ..............................
........................................................................

 iter      E             dE          RMSdq      gap      omega  full diag
   1   -103.9675440 -0.103968E+03  0.273E-02    1.55       0.0  T
   2   -103.9675448 -0.793873E-06  0.158E-02    1.55       1.0  T
   3   -103.9675444  0.453272E-06  0.365E-03    1.55       3.4  T
   4   -103.9675450 -0.593268E-06  0.125E-03    1.55       9.9  T
   5   -103.9675450 -0.656972E-07  0.474E-04    1.55      26.0  T
   6   -103.9675451 -0.420594E-08  0.146E-04    1.55      84.4  T
     SCC iter.                  ...        0 min,  0.030 sec
     gradient                   ...        0 min,  0.070 sec
 * total energy  :  -102.6745063 Eh     change       -0.6528955E-04 Eh
   gradient norm :     0.0036472 Eh/α   predicted    -0.3976524E-04 ( -39.09%)
   displ. norm   :     0.2716531 α      lambda       -0.9471738E-04
   maximum displ.:     0.1812641 α      in ANC's #4, #3, #2, ...

........................................................................
.............................. CYCLE   16 ..............................
........................................................................

 iter      E             dE          RMSdq      gap      omega  full diag
   1   -103.9675883 -0.103968E+03  0.333E-02    1.56       0.0  T
   2   -103.9675892 -0.900299E-06  0.192E-02    1.56       1.0  T
   3   -103.9675884  0.881858E-06  0.452E-03    1.56       2.7  T
   4   -103.9675895 -0.112875E-05  0.130E-03    1.56       9.4  T
   5   -103.9675895 -0.543699E-07  0.539E-04    1.56      22.8  T
   6   -103.9675895 -0.638521E-08  0.166E-04    1.56      74.0  T
     SCC iter.                  ...        0 min,  0.030 sec
     gradient                   ...        0 min,  0.065 sec
 * total energy  :  -102.6745874 Eh     change       -0.8117981E-04 Eh
   gradient norm :     0.0038768 Eh/α   predicted    -0.5086157E-04 ( -37.35%)
   displ. norm   :     0.3538738 α      lambda       -0.1241525E-03
   maximum displ.:     0.2316308 α      in ANC's #4, #3, #2, ...

........................................................................
.............................. CYCLE   17 ..............................
........................................................................

 iter      E             dE          RMSdq      gap      omega  full diag
   1   -103.9679569 -0.103968E+03  0.421E-02    1.56       0.0  T
   2   -103.9679579 -0.100121E-05  0.244E-02    1.56       1.0  T
   3   -103.9679575  0.404655E-06  0.361E-03    1.56       3.4  T
   4   -103.9679581 -0.632854E-06  0.131E-03    1.56       9.4  T
   5   -103.9679582 -0.550996E-07  0.518E-04    1.56      23.8  T
   6   -103.9679582 -0.404829E-08  0.161E-04    1.56      76.4  T
     SCC iter.                  ...        0 min,  0.030 sec
     gradient                   ...        0 min,  0.056 sec
 * total energy  :  -102.6746887 Eh     change       -0.1012518E-03 Eh
   gradient norm :     0.0056311 Eh/α   predicted    -0.6985037E-04 ( -31.01%)
   displ. norm   :     0.4050031 α      lambda       -0.1390062E-03
   maximum displ.:     0.2652568 α      in ANC's #4, #3, #2, ...

........................................................................
.............................. CYCLE   18 ..............................
........................................................................

 iter      E             dE          RMSdq      gap      omega  full diag
   1   -103.9671089 -0.103967E+03  0.468E-02    1.56       0.0  T
   2   -103.9671103 -0.134645E-05  0.271E-02    1.56       1.0  T
   3   -103.9671099  0.416011E-06  0.407E-03    1.56       3.0  T
   4   -103.9671105 -0.665164E-06  0.155E-03    1.56       7.9  T
   5   -103.9671106 -0.999025E-07  0.655E-04    1.56      18.8  T
   6   -103.9671106 -0.779131E-08  0.213E-04    1.56      57.8  T
     SCC iter.                  ...        0 min,  0.030 sec
     gradient                   ...        0 min,  0.072 sec
 * total energy  :  -102.6748034 Eh     change       -0.1147090E-03 Eh
   gradient norm :     0.0046063 Eh/α   predicted    -0.8090490E-04 ( -29.47%)
   displ. norm   :     0.4328163 α      lambda       -0.1448483E-03
   maximum displ.:     0.2823425 α      in ANC's #4, #3, #2, ...

........................................................................
.............................. CYCLE   19 ..............................
........................................................................

 iter      E             dE          RMSdq      gap      omega  full diag
   1   -103.9669208 -0.103967E+03  0.493E-02    1.55       0.0  T
   2   -103.9669224 -0.156488E-05  0.286E-02    1.56       1.0  T
   3   -103.9669221  0.281240E-06  0.370E-03    1.56       3.3  T
   4   -103.9669226 -0.461701E-06  0.176E-03    1.56       7.0  T
   5   -103.9669228 -0.170939E-06  0.688E-04    1.56      17.9  T
   6   -103.9669228 -0.666422E-08  0.221E-04    1.56      55.8  T
     SCC iter.                  ...        0 min,  0.030 sec
     gradient                   ...        0 min,  0.059 sec
 * total energy  :  -102.6749258 Eh     change       -0.1224203E-03 Eh
   gradient norm :     0.0039875 Eh/α   predicted    -0.8599227E-04 ( -29.76%)
   displ. norm   :     0.4704470 α      lambda       -0.1542332E-03
   maximum displ.:     0.3076231 α      in ANC's #4, #3, #2, ...

........................................................................
.............................. CYCLE   20 ..............................
........................................................................

 iter      E             dE          RMSdq      gap      omega  full diag
   1   -103.9666357 -0.103967E+03  0.534E-02    1.55       0.0  T
   2   -103.9666375 -0.188653E-05  0.310E-02    1.55       1.0  T
   3   -103.9666363  0.124020E-05  0.536E-03    1.55       2.3  T
   4   -103.9666377 -0.144207E-05  0.237E-03    1.55       5.2  T
   5   -103.9666381 -0.323724E-06  0.771E-04    1.55      16.0  T
   6   -103.9666381 -0.289722E-08  0.265E-04    1.55      46.4  T
     SCC iter.                  ...        0 min,  0.033 sec
     gradient                   ...        0 min,  0.056 sec
 * total energy  :  -102.6750548 Eh     change       -0.1289516E-03 Eh
   gradient norm :     0.0034677 Eh/α   predicted    -0.9418642E-04 ( -26.96%)
   displ. norm   :     0.4979802 α      lambda       -0.1512050E-03
   maximum displ.:     0.3259340 α      in ANC's #4, #3, #2, ...
 * RMSD in coord.:     0.5593236 α      energy gain  -0.2239113E-01 Eh

generating ANC from exact Hessian ...
Using Lindh-Hessian (1995)
 Shifting diagonal of input Hessian by    9.8900755515106461E-003
 Lowest  eigenvalues of input Hessian
    0.000000    0.000000    0.000000    0.000000    0.000000    0.000000
    0.010000    0.010058    0.010162    0.010439    0.010616    0.010880
    0.011142    0.011433    0.011768    0.012125    0.012421    0.012923
 Highest eigenvalues
    2.095729    2.201522    2.359421    2.433755    2.760664    3.490990


........................................................................
.............................. CYCLE   21 ..............................
........................................................................

 iter      E             dE          RMSdq      gap      omega  full diag
   1   -103.9662594 -0.103966E+03  0.564E-02    1.54       0.0  T
   2   -103.9662613 -0.189664E-05  0.329E-02    1.54       1.0  T
   3   -103.9662591  0.218529E-05  0.644E-03    1.54       1.9  T
   4   -103.9662616 -0.253191E-05  0.244E-03    1.54       5.0  T
   5   -103.9662619 -0.315927E-06  0.808E-04    1.54      15.2  T
   6   -103.9662620 -0.271496E-08  0.281E-04    1.54      43.8  T
     SCC iter.                  ...        0 min,  0.030 sec
     gradient                   ...        0 min,  0.077 sec
 * total energy  :  -102.6751812 Eh     change       -0.1263879E-03 Eh
   gradient norm :     0.0040684 Eh/α   predicted     0.0000000E+00 (-100.00%)
   displ. norm   :     0.0451038 α      lambda       -0.2833249E-04
   maximum displ.:     0.0182267 α      in ANC's #4, #13, #7, ...

........................................................................
.............................. CYCLE   22 ..............................
........................................................................

 iter      E             dE          RMSdq      gap      omega  full diag
   1   -103.9675750 -0.103968E+03  0.747E-03    1.54       0.0  T
   2   -103.9675752 -0.149640E-06  0.432E-03    1.54       2.9  T
   3   -103.9675752  0.188346E-07  0.138E-03    1.54       8.9  T
   4   -103.9675752 -0.296547E-07  0.491E-04    1.54      25.1  T
   5   -103.9675752 -0.104592E-07  0.201E-04    1.54      61.4  T
     SCC iter.                  ...        0 min,  0.025 sec
     gradient                   ...        0 min,  0.073 sec
 * total energy  :  -102.6752210 Eh     change       -0.3984537E-04 Eh
   gradient norm :     0.0024624 Eh/α   predicted    -0.2327914E-04 ( -41.58%)
   displ. norm   :     0.1771139 α      lambda       -0.1234382E-03
   maximum displ.:     0.0742522 α      in ANC's #4, #13, #7, ...

........................................................................
.............................. CYCLE   23 ..............................
........................................................................

 iter      E             dE          RMSdq      gap      omega  full diag
   1   -103.9696731 -0.103970E+03  0.250E-02    1.54       0.0  T
   2   -103.9696744 -0.135213E-05  0.143E-02    1.55       1.0  T
   3   -103.9696743  0.139494E-06  0.442E-03    1.55       2.8  T
   4   -103.9696745 -0.222554E-06  0.154E-03    1.55       8.0  T
   5   -103.9696746 -0.936644E-07  0.607E-04    1.55      20.3  T
   6   -103.9696746 -0.898362E-08  0.181E-04    1.55      68.1  T
     SCC iter.                  ...        0 min,  0.044 sec
     gradient                   ...        0 min,  0.056 sec
 * total energy  :  -102.6752996 Eh     change       -0.7860973E-04 Eh
   gradient norm :     0.0027817 Eh/α   predicted    -0.6365683E-04 ( -19.02%)
   displ. norm   :     0.1178186 α      lambda       -0.4113431E-04
   maximum displ.:     0.0534496 α      in ANC's #4, #7, #3, ...

........................................................................
.............................. CYCLE   24 ..............................
........................................................................

 iter      E             dE          RMSdq      gap      omega  full diag
   1   -103.9695954 -0.103970E+03  0.146E-02    1.55       0.0  T
   2   -103.9695957 -0.263400E-06  0.840E-03    1.55       1.5  T
   3   -103.9695956  0.404434E-07  0.211E-03    1.55       5.8  T
   4   -103.9695957 -0.554000E-07  0.802E-04    1.55      15.3  T
   5   -103.9695957 -0.246548E-07  0.313E-04    1.55      39.3  T
     SCC iter.                  ...        0 min,  0.040 sec
     gradient                   ...        0 min,  0.056 sec
 * total energy  :  -102.6753322 Eh     change       -0.3254250E-04 Eh
   gradient norm :     0.0033559 Eh/α   predicted    -0.2085284E-04 ( -35.92%)
   displ. norm   :     0.1774333 α      lambda       -0.5821139E-04
   maximum displ.:     0.0831565 α      in ANC's #4, #7, #3, ...

........................................................................
.............................. CYCLE   25 ..............................
........................................................................

 iter      E             dE          RMSdq      gap      omega  full diag
   1   -103.9686904 -0.103969E+03  0.208E-02    1.55       0.0  T
   2   -103.9686908 -0.394639E-06  0.120E-02    1.55       1.0  T
   3   -103.9686907  0.117198E-06  0.258E-03    1.55       4.8  T
   4   -103.9686908 -0.151368E-06  0.107E-03    1.55      11.5  T
   5   -103.9686909 -0.420349E-07  0.408E-04    1.55      30.2  T
   6   -103.9686909 -0.441547E-08  0.118E-04    1.55     104.3  T
     SCC iter.                  ...        0 min,  0.039 sec
     gradient                   ...        0 min,  0.056 sec
 * total energy  :  -102.6753755 Eh     change       -0.4333304E-04 Eh
   gradient norm :     0.0028544 Eh/α   predicted    -0.3002221E-04 ( -30.72%)
   displ. norm   :     0.1688463 α      lambda       -0.4580828E-04
   maximum displ.:     0.0829907 α      in ANC's #4, #3, #7, ...

........................................................................
.............................. CYCLE   26 ..............................
........................................................................

 iter      E             dE          RMSdq      gap      omega  full diag
   1   -103.9678993 -0.103968E+03  0.192E-02    1.54       0.0  T
   2   -103.9678996 -0.333348E-06  0.110E-02    1.54       1.1  T
   3   -103.9678995  0.120807E-06  0.227E-03    1.54       5.4  T
   4   -103.9678997 -0.154071E-06  0.955E-04    1.54      12.9  T
   5   -103.9678997 -0.340189E-07  0.356E-04    1.54      34.6  T
     SCC iter.                  ...        0 min,  0.025 sec
     gradient                   ...        0 min,  0.071 sec
 * total energy  :  -102.6754096 Eh     change       -0.3411269E-04 Eh
   gradient norm :     0.0024003 Eh/α   predicted    -0.2356454E-04 ( -30.92%)
   displ. norm   :     0.1552555 α      lambda       -0.3871018E-04
   maximum displ.:     0.0793438 α      in ANC's #4, #3, #7, ...

........................................................................
.............................. CYCLE   27 ..............................
........................................................................

 iter      E             dE          RMSdq      gap      omega  full diag
   1   -103.9676726 -0.103968E+03  0.178E-02    1.54       0.0  T
   2   -103.9676729 -0.329558E-06  0.101E-02    1.54       1.2  T
   3   -103.9676728  0.934059E-07  0.235E-03    1.54       5.2  T
   4   -103.9676730 -0.115150E-06  0.958E-04    1.54      12.8  T
   5   -103.9676730 -0.426556E-07  0.340E-04    1.54      36.2  T
     SCC iter.                  ...        0 min,  0.025 sec
     gradient                   ...        0 min,  0.070 sec
 * total energy  :  -102.6754399 Eh     change       -0.3031632E-04 Eh
   gradient norm :     0.0025700 Eh/α   predicted    -0.1982780E-04 ( -34.60%)
   displ. norm   :     0.1846771 α      lambda       -0.4556569E-04
   maximum displ.:     0.0960323 α      in ANC's #4, #3, #7, ...

........................................................................
.............................. CYCLE   28 ..............................
........................................................................

 iter      E             dE          RMSdq      gap      omega  full diag
   1   -103.9678319 -0.103968E+03  0.217E-02    1.54       0.0  T
   2   -103.9678324 -0.492742E-06  0.121E-02    1.54       1.0  T
   3   -103.9678323  0.139816E-06  0.315E-03    1.54       3.9  T
   4   -103.9678324 -0.163366E-06  0.125E-03    1.54       9.8  T
   5   -103.9678325 -0.825967E-07  0.417E-04    1.53      29.5  T
   6   -103.9678325 -0.240910E-08  0.111E-04    1.53     110.7  T
     SCC iter.                  ...        0 min,  0.030 sec
     gradient                   ...        0 min,  0.071 sec
 * total energy  :  -102.6754762 Eh     change       -0.3629586E-04 Eh
   gradient norm :     0.0029801 Eh/α   predicted    -0.2356028E-04 ( -35.09%)
   displ. norm   :     0.2445872 α      lambda       -0.5875385E-04
   maximum displ.:     0.1276448 α      in ANC's #4, #3, #7, ...

........................................................................
.............................. CYCLE   29 ..............................
........................................................................

 iter      E             dE          RMSdq      gap      omega  full diag
   1   -103.9681001 -0.103968E+03  0.288E-02    1.53       0.0  T
   2   -103.9681008 -0.780688E-06  0.162E-02    1.53       1.0  T
   3   -103.9681005  0.325577E-06  0.414E-03    1.53       3.0  T
   4   -103.9681009 -0.363204E-06  0.166E-03    1.53       7.4  T
   5   -103.9681010 -0.159488E-06  0.539E-04    1.53      22.8  T
   6   -103.9681010 -0.293682E-08  0.144E-04    1.53      85.3  T
     SCC iter.                  ...        0 min,  0.054 sec
     gradient                   ...        0 min,  0.056 sec
 * total energy  :  -102.6755234 Eh     change       -0.4720937E-04 Eh
   gradient norm :     0.0033805 Eh/α   predicted    -0.3113589E-04 ( -34.05%)
   displ. norm   :     0.3190205 α      lambda       -0.7754630E-04
   maximum displ.:     0.1658556 α      in ANC's #4, #3, #19, ...

........................................................................
.............................. CYCLE   30 ..............................
........................................................................

 iter      E             dE          RMSdq      gap      omega  full diag
   1   -103.9682269 -0.103968E+03  0.381E-02    1.53       0.0  T
   2   -103.9682280 -0.113088E-05  0.217E-02    1.53       1.0  T
   3   -103.9682273  0.700961E-06  0.493E-03    1.53       2.5  T
   4   -103.9682281 -0.807552E-06  0.196E-03    1.53       6.3  T
   5   -103.9682283 -0.219576E-06  0.647E-04    1.53      19.0  T
   6   -103.9682283 -0.385535E-08  0.188E-04    1.53      65.6  T
     SCC iter.                  ...        0 min,  0.031 sec
     gradient                   ...        0 min,  0.072 sec
 * total energy  :  -102.6755858 Eh     change       -0.6233245E-04 Eh
   gradient norm :     0.0037525 Eh/α   predicted    -0.4271911E-04 ( -31.47%)
   displ. norm   :     0.3715528 α      lambda       -0.9639170E-04
   maximum displ.:     0.1912005 α      in ANC's #4, #3, #19, ...

........................................................................
.............................. CYCLE   31 ..............................
........................................................................

 iter      E             dE          RMSdq      gap      omega  full diag
   1   -103.9682116 -0.103968E+03  0.455E-02    1.53       0.0  T
   2   -103.9682129 -0.128586E-05  0.264E-02    1.53       1.0  T
   3   -103.9682118  0.109512E-05  0.504E-03    1.53       2.4  T
   4   -103.9682131 -0.135328E-05  0.183E-03    1.53       6.7  T
   5   -103.9682133 -0.154498E-06  0.674E-04    1.53      18.3  T
   6   -103.9682133 -0.520171E-08  0.213E-04    1.53      57.9  T
     SCC iter.                  ...        0 min,  0.030 sec
     gradient                   ...        0 min,  0.079 sec
 * total energy  :  -102.6756607 Eh     change       -0.7489788E-04 Eh
   gradient norm :     0.0039601 Eh/α   predicted    -0.5484959E-04 ( -26.77%)
   displ. norm   :     0.3527577 α      lambda       -0.9220759E-04
   maximum displ.:     0.1816204 α      in ANC's #3, #4, #19, ...

........................................................................
.............................. CYCLE   32 ..............................
........................................................................

 iter      E             dE          RMSdq      gap      omega  full diag
   1   -103.9681725 -0.103968E+03  0.446E-02    1.53       0.0  T
   2   -103.9681735 -0.956845E-06  0.262E-02    1.53       1.0  T
   3   -103.9681726  0.880603E-06  0.415E-03    1.54       3.0  T
   4   -103.9681738 -0.117212E-05  0.133E-03    1.54       9.3  T
   5   -103.9681738 -0.276021E-07  0.569E-04    1.54      21.6  T
   6   -103.9681738 -0.593195E-08  0.175E-04    1.54      70.3  T
     SCC iter.                  ...        0 min,  0.051 sec
     gradient                   ...        0 min,  0.055 sec
 * total energy  :  -102.6757299 Eh     change       -0.6928045E-04 Eh
   gradient norm :     0.0038174 Eh/α   predicted    -0.5184255E-04 ( -25.17%)
   displ. norm   :     0.3124100 α      lambda       -0.7313432E-04
   maximum displ.:     0.1644509 α      in ANC's #3, #4, #19, ...

........................................................................
.............................. CYCLE   33 ..............................
........................................................................

 iter      E             dE          RMSdq      gap      omega  full diag
   1   -103.9680145 -0.103968E+03  0.403E-02    1.54       0.0  T
   2   -103.9680152 -0.701184E-06  0.237E-02    1.54       1.0  T
   3   -103.9680148  0.411542E-06  0.321E-03    1.54       3.8  T
   4   -103.9680154 -0.569918E-06  0.124E-03    1.54       9.9  T
   5   -103.9680154 -0.467169E-07  0.517E-04    1.54      23.8  T
   6   -103.9680154 -0.519292E-08  0.159E-04    1.54      77.3  T
     SCC iter.                  ...        0 min,  0.039 sec
     gradient                   ...        0 min,  0.056 sec
 * total energy  :  -102.6757844 Eh     change       -0.5443236E-04 Eh
   gradient norm :     0.0034465 Eh/α   predicted    -0.4013691E-04 ( -26.26%)
   displ. norm   :     0.2303940 α      lambda       -0.6678799E-04
   maximum displ.:     0.1236231 α      in ANC's #3, #4, #2, ...

........................................................................
.............................. CYCLE   34 ..............................
........................................................................

 iter      E             dE          RMSdq      gap      omega  full diag
   1   -103.9700167 -0.103970E+03  0.339E-02    1.54       0.0  T
   2   -103.9700179 -0.125342E-05  0.196E-02    1.54       1.0  T
   3   -103.9700179 -0.156051E-07  0.298E-03    1.55       4.1  T
   4   -103.9700180 -0.878090E-07  0.117E-03    1.55      10.5  T
   5   -103.9700181 -0.388170E-07  0.525E-04    1.55      23.5  T
   6   -103.9700181 -0.769140E-08  0.155E-04    1.55      79.3  T
     SCC iter.                  ...        0 min,  0.030 sec
     gradient                   ...        0 min,  0.076 sec
 * total energy  :  -102.6758167 Eh     change       -0.3236731E-04 Eh
   gradient norm :     0.0034558 Eh/α   predicted    -0.3516872E-04 (   8.66%)
   displ. norm   :     0.4658817 α      lambda       -0.9730626E-04
   maximum displ.:     0.2464020 α      in ANC's #3, #4, #19, ...

........................................................................
.............................. CYCLE   35 ..............................
........................................................................

 iter      E             dE          RMSdq      gap      omega  full diag
   1   -103.9661915 -0.103966E+03  0.596E-02    1.54       0.0  T
   2   -103.9661940 -0.244966E-05  0.348E-02    1.55       1.0  T
   3   -103.9661935  0.422263E-06  0.490E-03    1.55       2.5  T
   4   -103.9661942 -0.710723E-06  0.222E-03    1.55       5.5  T
   5   -103.9661944 -0.186270E-06  0.926E-04    1.55      13.3  T
   6   -103.9661945 -0.219537E-07  0.270E-04    1.55      45.6  T
     SCC iter.                  ...        0 min,  0.030 sec
     gradient                   ...        0 min,  0.071 sec
 * total energy  :  -102.6758265 Eh     change       -0.9772226E-05 Eh
   gradient norm :     0.0065209 Eh/α   predicted    -0.5921284E-04 ( 505.93%)
   displ. norm   :     0.1651624 α      lambda       -0.8722830E-04
   maximum displ.:     0.0841600 α      in ANC's #4, #3, #19, ...

........................................................................
.............................. CYCLE   36 ..............................
........................................................................

 iter      E             dE          RMSdq      gap      omega  full diag
   1   -103.9687486 -0.103969E+03  0.236E-02    1.55       0.0  T
   2   -103.9687494 -0.705547E-06  0.137E-02    1.54       1.0  T
   3   -103.9687492  0.136505E-06  0.250E-03    1.54       4.9  T
   4   -103.9687494 -0.188368E-06  0.103E-03    1.54      12.0  T
   5   -103.9687495 -0.494603E-07  0.420E-04    1.54      29.3  T
   6   -103.9687495 -0.193280E-08  0.140E-04    1.54      87.8  T
     SCC iter.                  ...        0 min,  0.030 sec
     gradient                   ...        0 min,  0.059 sec
 * total energy  :  -102.6758753 Eh     change       -0.4876813E-04 Eh
   gradient norm :     0.0023404 Eh/α   predicted    -0.4480663E-04 (  -8.12%)
   displ. norm   :     0.1034154 α      lambda       -0.3089223E-04
   maximum displ.:     0.0554926 α      in ANC's #3, #4, #2, ...

........................................................................
.............................. CYCLE   37 ..............................
........................................................................

 iter      E             dE          RMSdq      gap      omega  full diag
   1   -103.9691843 -0.103969E+03  0.135E-02    1.54       0.0  T
   2   -103.9691845 -0.200210E-06  0.767E-03    1.54       1.6  T
   3   -103.9691845  0.377188E-07  0.164E-03    1.54       7.5  T
   4   -103.9691846 -0.581262E-07  0.680E-04    1.54      18.1  T
   5   -103.9691846 -0.142261E-07  0.259E-04    1.54      47.5  T
     SCC iter.                  ...        0 min,  0.025 sec
     gradient                   ...        0 min,  0.060 sec
 * total energy  :  -102.6759010 Eh     change       -0.2576333E-04 Eh
   gradient norm :     0.0014133 Eh/α   predicted    -0.1561304E-04 ( -39.40%)
   displ. norm   :     0.4549977 α      lambda       -0.6039611E-04
   maximum displ.:     0.2456257 α      in ANC's #3, #4, #2, ...

........................................................................
.............................. CYCLE   38 ..............................
........................................................................

 iter      E             dE          RMSdq      gap      omega  full diag
   1   -103.9687701 -0.103969E+03  0.564E-02    1.54       0.0  T
   2   -103.9687724 -0.224987E-05  0.324E-02    1.54       1.0  T
   3   -103.9687716  0.780413E-06  0.608E-03    1.54       2.0  T
   4   -103.9687727 -0.110590E-05  0.247E-03    1.53       5.0  T
   5   -103.9687729 -0.190391E-06  0.895E-04    1.53      13.8  T
   6   -103.9687729 -0.181367E-07  0.250E-04    1.53      49.1  T
     SCC iter.                  ...        0 min,  0.032 sec
     gradient                   ...        0 min,  0.058 sec
 * total energy  :  -102.6759504 Eh     change       -0.4935897E-04 Eh
   gradient norm :     0.0029295 Eh/α   predicted    -0.3297670E-04 ( -33.19%)
   displ. norm   :     0.1337023 α      lambda       -0.1909014E-04
   maximum displ.:     0.0722941 α      in ANC's #3, #4, #2, ...

........................................................................
.............................. CYCLE   39 ..............................
........................................................................

 iter      E             dE          RMSdq      gap      omega  full diag
   1   -103.9685278 -0.103969E+03  0.173E-02    1.53       0.0  T
   2   -103.9685279 -0.143402E-06  0.101E-02    1.53       1.2  T
   3   -103.9685278  0.102471E-06  0.142E-03    1.54       8.6  T
   4   -103.9685280 -0.139325E-06  0.444E-04    1.54      27.7  T
   5   -103.9685280 -0.609916E-08  0.202E-04    1.54      60.8  T
     SCC iter.                  ...        0 min,  0.040 sec
     gradient                   ...        0 min,  0.056 sec
 * total energy  :  -102.6759671 Eh     change       -0.1672496E-04 Eh
   gradient norm :     0.0025406 Eh/α   predicted    -0.9720014E-05 ( -41.88%)
   displ. norm   :     0.3033051 α      lambda       -0.6032208E-04
   maximum displ.:     0.1556215 α      in ANC's #3, #2, #4, ...

........................................................................
.............................. CYCLE   40 ..............................
........................................................................

 iter      E             dE          RMSdq      gap      omega  full diag
   1   -103.9690308 -0.103969E+03  0.399E-02    1.53       0.0  T
   2   -103.9690318 -0.993908E-06  0.234E-02    1.54       1.0  T
   3   -103.9690310  0.866602E-06  0.397E-03    1.54       3.1  T
   4   -103.9690321 -0.110599E-05  0.114E-03    1.54      10.8  T
   5   -103.9690321 -0.451830E-07  0.523E-04    1.54      23.5  T
   6   -103.9690321 -0.373281E-08  0.169E-04    1.54      72.8  T
     SCC iter.                  ...        0 min,  0.037 sec
     gradient                   ...        0 min,  0.056 sec
 * total energy  :  -102.6760099 Eh     change       -0.4274193E-04 Eh
   gradient norm :     0.0019511 Eh/α   predicted    -0.3293752E-04 ( -22.94%)
   displ. norm   :     0.3815511 α      lambda       -0.3451476E-04
   maximum displ.:     0.1848746 α      in ANC's #3, #2, #4, ...

........................................................................
.............................. CYCLE   41 ..............................
........................................................................

 iter      E             dE          RMSdq      gap      omega  full diag
   1   -103.9685194 -0.103969E+03  0.500E-02    1.53       0.0  T
   2   -103.9685206 -0.122048E-05  0.292E-02    1.53       1.0  T
   3   -103.9685195  0.108248E-05  0.452E-03    1.54       2.7  T
   4   -103.9685209 -0.137613E-05  0.164E-03    1.54       7.5  T
   5   -103.9685210 -0.105825E-06  0.646E-04    1.54      19.1  T
   6   -103.9685210 -0.457963E-08  0.215E-04    1.54      57.2  T
     SCC iter.                  ...        0 min,  0.030 sec
     gradient                   ...        0 min,  0.071 sec
 * total energy  :  -102.6760399 Eh     change       -0.3002665E-04 Eh
   gradient norm :     0.0031488 Eh/α   predicted    -0.1837509E-04 ( -38.80%)
   displ. norm   :     0.1110393 α      lambda       -0.3205699E-04
   maximum displ.:     0.0631027 α      in ANC's #7, #8, #2, ...

........................................................................
.............................. CYCLE   42 ..............................
........................................................................

 iter      E             dE          RMSdq      gap      omega  full diag
   1   -103.9701357 -0.103970E+03  0.169E-02    1.53       0.0  T
   2   -103.9701361 -0.392346E-06  0.965E-03    1.53       1.3  T
   3   -103.9701360  0.105326E-07  0.174E-03    1.54       7.1  T
   4   -103.9701361 -0.399517E-07  0.738E-04    1.54      16.7  T
   5   -103.9701361 -0.159932E-07  0.334E-04    1.54      36.9  T
     SCC iter.                  ...        0 min,  0.025 sec
     gradient                   ...        0 min,  0.071 sec
 * total energy  :  -102.6760561 Eh     change       -0.1618577E-04 Eh
   gradient norm :     0.0028934 Eh/α   predicted    -0.1622765E-04 (   0.26%)
   displ. norm   :     0.1237763 α      lambda       -0.2442266E-04
   maximum displ.:     0.0655170 α      in ANC's #2, #7, #3, ...
 * RMSD in coord.:     0.5081407 α      energy gain  -0.1001305E-02 Eh

generating ANC from exact Hessian ...
Using Lindh-Hessian (1995)
 Shifting diagonal of input Hessian by    9.8818231861246743E-003
 Lowest  eigenvalues of input Hessian
    0.000000    0.000000    0.000000    0.000000    0.000000    0.000000
    0.010000    0.010055    0.010207    0.010431    0.010739    0.010958
    0.011220    0.011392    0.011757    0.012125    0.012401    0.013048
 Highest eigenvalues
    2.095893    2.204989    2.366774    2.436654    2.771793    3.506691


........................................................................
.............................. CYCLE   43 ..............................
........................................................................

 iter      E             dE          RMSdq      gap      omega  full diag
   1   -103.9696403 -0.103970E+03  0.160E-02    1.53       0.0  T
   2   -103.9696404 -0.166182E-06  0.943E-03    1.53       1.3  T
   3   -103.9696404  0.200077E-07  0.111E-03    1.53      11.1  T
   4   -103.9696405 -0.474244E-07  0.420E-04    1.53      29.3  T
   5   -103.9696405 -0.422435E-08  0.202E-04    1.53      61.0  T
     SCC iter.                  ...        0 min,  0.040 sec
     gradient                   ...        0 min,  0.056 sec
 * total energy  :  -102.6760753 Eh     change       -0.1925972E-04 Eh
   gradient norm :     0.0015918 Eh/α   predicted     0.0000000E+00 (-100.00%)
   displ. norm   :     0.0321480 α      lambda       -0.7607568E-05
   maximum displ.:     0.0145557 α      in ANC's #5, #19, #6, ...

........................................................................
.............................. CYCLE   44 ..............................
........................................................................

 iter      E             dE          RMSdq      gap      omega  full diag
   1   -103.9691340 -0.103969E+03  0.553E-03    1.53       0.0  T
   2   -103.9691340 -0.480663E-07  0.320E-03    1.53       3.8  T
   3   -103.9691340  0.188474E-07  0.823E-04    1.53      15.0  T
   4   -103.9691340 -0.243324E-07  0.337E-04    1.53      36.5  T
     SCC iter.                  ...        0 min,  0.021 sec
     gradient                   ...        0 min,  0.056 sec
 * total energy  :  -102.6760869 Eh     change       -0.1158298E-04 Eh
   gradient norm :     0.0008696 Eh/α   predicted    -0.4619513E-05 ( -60.12%)
   displ. norm   :     0.1297514 α      lambda       -0.2573720E-04
   maximum displ.:     0.0599608 α      in ANC's #5, #19, #6, ...

........................................................................
.............................. CYCLE   45 ..............................
........................................................................

 iter      E             dE          RMSdq      gap      omega  full diag
   1   -103.9684806 -0.103968E+03  0.192E-02    1.53       0.0  T
   2   -103.9684810 -0.370672E-06  0.111E-02    1.53       1.1  T
   3   -103.9684808  0.205722E-06  0.256E-03    1.53       4.8  T
   4   -103.9684810 -0.242685E-06  0.113E-03    1.53      10.9  T
   5   -103.9684811 -0.516998E-07  0.447E-04    1.53      27.6  T
   6   -103.9684811 -0.390695E-08  0.124E-04    1.53      99.5  T
     SCC iter.                  ...        0 min,  0.030 sec
     gradient                   ...        0 min,  0.056 sec
 * total energy  :  -102.6761119 Eh     change       -0.2501939E-04 Eh
   gradient norm :     0.0017501 Eh/α   predicted    -0.1296663E-04 ( -48.17%)
   displ. norm   :     0.1045220 α      lambda       -0.1240126E-04
   maximum displ.:     0.0494676 α      in ANC's #5, #19, #2, ...

........................................................................
.............................. CYCLE   46 ..............................
........................................................................

 iter      E             dE          RMSdq      gap      omega  full diag
   1   -103.9685765 -0.103969E+03  0.145E-02    1.53       0.0  T
   2   -103.9685766 -0.975811E-07  0.848E-03    1.53       1.5  T
   3   -103.9685765  0.354199E-07  0.128E-03    1.53       9.6  T
   4   -103.9685766 -0.481860E-07  0.592E-04    1.53      20.8  T
   5   -103.9685766 -0.129445E-07  0.207E-04    1.53      59.3  T
     SCC iter.                  ...        0 min,  0.025 sec
     gradient                   ...        0 min,  0.056 sec
 * total energy  :  -102.6761262 Eh     change       -0.1426682E-04 Eh
   gradient norm :     0.0019773 Eh/α   predicted    -0.6231397E-05 ( -56.32%)
   displ. norm   :     0.1783101 α      lambda       -0.1977182E-04
   maximum displ.:     0.0838590 α      in ANC's #5, #19, #2, ...

........................................................................
.............................. CYCLE   47 ..............................
........................................................................

 iter      E             dE          RMSdq      gap      omega  full diag
   1   -103.9687053 -0.103969E+03  0.240E-02    1.53       0.0  T
   2   -103.9687055 -0.187980E-06  0.141E-02    1.53       1.0  T
   3   -103.9687055  0.779334E-07  0.185E-03    1.53       6.7  T
   4   -103.9687056 -0.113764E-06  0.834E-04    1.53      14.8  T
   5   -103.9687056 -0.243077E-07  0.279E-04    1.53      44.2  T
     SCC iter.                  ...        0 min,  0.025 sec
     gradient                   ...        0 min,  0.056 sec
 * total energy  :  -102.6761475 Eh     change       -0.2131357E-04 Eh
   gradient norm :     0.0020248 Eh/α   predicted    -0.1002604E-04 ( -52.96%)
   displ. norm   :     0.1324723 α      lambda       -0.2154994E-04
   maximum displ.:     0.0627705 α      in ANC's #5, #19, #2, ...

........................................................................
.............................. CYCLE   48 ..............................
........................................................................

 iter      E             dE          RMSdq      gap      omega  full diag
   1   -103.9690082 -0.103969E+03  0.185E-02    1.53       0.0  T
   2   -103.9690084 -0.126333E-06  0.109E-02    1.53       1.1  T
   3   -103.9690083  0.982201E-07  0.159E-03    1.53       7.7  T
   4   -103.9690084 -0.117675E-06  0.645E-04    1.53      19.1  T
   5   -103.9690084 -0.195840E-07  0.237E-04    1.53      52.0  T
     SCC iter.                  ...        0 min,  0.025 sec
     gradient                   ...        0 min,  0.056 sec
 * total energy  :  -102.6761643 Eh     change       -0.1674001E-04 Eh
   gradient norm :     0.0017708 Eh/α   predicted    -0.1098859E-04 ( -34.36%)
   displ. norm   :     0.2809148 α      lambda       -0.2652585E-04
   maximum displ.:     0.1328451 α      in ANC's #5, #19, #2, ...

........................................................................
.............................. CYCLE   49 ..............................
........................................................................

 iter      E             dE          RMSdq      gap      omega  full diag
   1   -103.9692213 -0.103969E+03  0.389E-02    1.53       0.0  T
   2   -103.9692220 -0.634675E-06  0.229E-02    1.53       1.0  T
   3   -103.9692214  0.609017E-06  0.379E-03    1.53       3.2  T
   4   -103.9692221 -0.701962E-06  0.150E-03    1.53       8.2  T
   5   -103.9692222 -0.115911E-06  0.551E-04    1.53      22.4  T
   6   -103.9692222 -0.215495E-08  0.204E-04    1.53      60.5  T
     SCC iter.                  ...        0 min,  0.030 sec
     gradient                   ...        0 min,  0.071 sec
 * total energy  :  -102.6761860 Eh     change       -0.2177162E-04 Eh
   gradient norm :     0.0024119 Eh/α   predicted    -0.1373210E-04 ( -36.93%)
   displ. norm   :     0.0370166 α      lambda       -0.1463983E-04
   maximum displ.:     0.0165718 α      in ANC's #2, #4, #5, ...

........................................................................
.............................. CYCLE   50 ..............................
........................................................................

 iter      E             dE          RMSdq      gap      omega  full diag
   1   -103.9699404 -0.103970E+03  0.666E-03    1.53       0.0  T
   2   -103.9699405 -0.129186E-06  0.373E-03    1.53       3.3  T
   3   -103.9699405  0.874309E-09  0.109E-03    1.53      11.3  T
   4   -103.9699405 -0.788009E-08  0.406E-04    1.53      30.3  T
   5   -103.9699406 -0.622573E-08  0.183E-04    1.53      67.2  T
     SCC iter.                  ...        0 min,  0.025 sec
     gradient                   ...        0 min,  0.071 sec
 * total energy  :  -102.6761957 Eh     change       -0.9649075E-05 Eh
   gradient norm :     0.0016559 Eh/α   predicted    -0.7330263E-05 ( -24.03%)
   displ. norm   :     0.1747936 α      lambda       -0.1545828E-04
   maximum displ.:     0.0749873 α      in ANC's #2, #5, #4, ...

........................................................................
.............................. CYCLE   51 ..............................
........................................................................

 iter      E             dE          RMSdq      gap      omega  full diag
   1   -103.9694953 -0.103969E+03  0.243E-02    1.53       0.0  T
   2   -103.9694956 -0.251825E-06  0.143E-02    1.53       1.0  T
   3   -103.9694956  0.272424E-07  0.182E-03    1.53       6.8  T
   4   -103.9694956 -0.727362E-07  0.765E-04    1.53      16.1  T
   5   -103.9694956 -0.163089E-07  0.310E-04    1.53      39.7  T
     SCC iter.                  ...        0 min,  0.025 sec
     gradient                   ...        0 min,  0.071 sec
 * total energy  :  -102.6762117 Eh     change       -0.1602337E-04 Eh
   gradient norm :     0.0011712 Eh/α   predicted    -0.7834383E-05 ( -51.11%)
   displ. norm   :     0.1405171 α      lambda       -0.1114597E-04
   maximum displ.:     0.0631623 α      in ANC's #2, #4, #19, ...

........................................................................
.............................. CYCLE   52 ..............................
........................................................................

 iter      E             dE          RMSdq      gap      omega  full diag
   1   -103.9690505 -0.103969E+03  0.183E-02    1.53       0.0  T
   2   -103.9690506 -0.148666E-06  0.108E-02    1.53       1.1  T
   3   -103.9690506  0.374481E-07  0.142E-03    1.52       8.7  T
   4   -103.9690507 -0.639214E-07  0.651E-04    1.52      18.9  T
   5   -103.9690507 -0.140858E-07  0.256E-04    1.53      48.1  T
     SCC iter.                  ...        0 min,  0.046 sec
     gradient                   ...        0 min,  0.056 sec
 * total energy  :  -102.6762222 Eh     change       -0.1051996E-04 Eh
   gradient norm :     0.0014287 Eh/α   predicted    -0.5623583E-05 ( -46.54%)
   displ. norm   :     0.0681407 α      lambda       -0.7387467E-05
   maximum displ.:     0.0292144 α      in ANC's #2, #6, #4, ...

........................................................................
.............................. CYCLE   53 ..............................
........................................................................

 iter      E             dE          RMSdq      gap      omega  full diag
   1   -103.9693130 -0.103969E+03  0.849E-03    1.53       0.0  T
   2   -103.9693131 -0.983291E-07  0.491E-03    1.52       2.5  T
   3   -103.9693130  0.439668E-07  0.122E-03    1.52      10.1  T
   4   -103.9693131 -0.508472E-07  0.505E-04    1.52      24.4  T
   5   -103.9693131 -0.141184E-07  0.182E-04    1.52      67.6  T
     SCC iter.                  ...        0 min,  0.025 sec
     gradient                   ...        0 min,  0.091 sec
 * total energy  :  -102.6762298 Eh     change       -0.7578540E-05 Eh
   gradient norm :     0.0014146 Eh/α   predicted    -0.3703295E-05 ( -51.13%)
   displ. norm   :     0.1368930 α      lambda       -0.9029056E-05
   maximum displ.:     0.0656615 α      in ANC's #2, #4, #19, ...

........................................................................
.............................. CYCLE   54 ..............................
........................................................................

 iter      E             dE          RMSdq      gap      omega  full diag
   1   -103.9687809 -0.103969E+03  0.172E-02    1.52       0.0  T
   2   -103.9687810 -0.174941E-06  0.102E-02    1.52       1.2  T
   3   -103.9687810  0.416396E-07  0.138E-03    1.52       8.9  T
   4   -103.9687811 -0.702918E-07  0.644E-04    1.52      19.1  T
   5   -103.9687811 -0.135771E-07  0.284E-04    1.52      43.3  T
     SCC iter.                  ...        0 min,  0.058 sec
     gradient                   ...        0 min,  0.055 sec
 * total energy  :  -102.6762376 Eh     change       -0.7764331E-05 Eh
   gradient norm :     0.0018306 Eh/α   predicted    -0.4552453E-05 ( -41.37%)
   displ. norm   :     0.0755751 α      lambda       -0.9288906E-05
   maximum displ.:     0.0381563 α      in ANC's #6, #2, #3, ...

........................................................................
.............................. CYCLE   55 ..............................
........................................................................

 iter      E             dE          RMSdq      gap      omega  full diag
   1   -103.9693573 -0.103969E+03  0.107E-02    1.52       0.0  T
   2   -103.9693574 -0.145460E-06  0.616E-03    1.52       2.0  T
   3   -103.9693574 -0.367815E-08  0.118E-03    1.52      10.4  T
   4   -103.9693574 -0.140421E-07  0.442E-04    1.52      27.8  T
   5   -103.9693574 -0.316990E-08  0.230E-04    1.52      53.4  T
     SCC iter.                  ...        0 min,  0.025 sec
     gradient                   ...        0 min,  0.084 sec
 * total energy  :  -102.6762460 Eh     change       -0.8460586E-05 Eh
   gradient norm :     0.0009333 Eh/α   predicted    -0.4658340E-05 ( -44.94%)
   displ. norm   :     0.0825718 α      lambda       -0.4911949E-05
   maximum displ.:     0.0436981 α      in ANC's #2, #4, #19, ...

........................................................................
.............................. CYCLE   56 ..............................
........................................................................

 iter      E             dE          RMSdq      gap      omega  full diag
   1   -103.9693395 -0.103969E+03  0.106E-02    1.52       0.0  T
   2   -103.9693395 -0.618939E-07  0.619E-03    1.53       2.0  T
   3   -103.9693395  0.330196E-07  0.105E-03    1.53      11.7  T
   4   -103.9693396 -0.404085E-07  0.469E-04    1.53      26.2  T
   5   -103.9693396 -0.117248E-07  0.163E-04    1.53      75.3  T
     SCC iter.                  ...        0 min,  0.025 sec
     gradient                   ...        0 min,  0.080 sec
 * total energy  :  -102.6762517 Eh     change       -0.5697935E-05 Eh
   gradient norm :     0.0008123 Eh/α   predicted    -0.2469485E-05 ( -56.66%)
   displ. norm   :     0.1119644 α      lambda       -0.6264967E-05
   maximum displ.:     0.0616686 α      in ANC's #2, #4, #19, ...

........................................................................
.............................. CYCLE   57 ..............................
........................................................................

 iter      E             dE          RMSdq      gap      omega  full diag
   1   -103.9692599 -0.103969E+03  0.152E-02    1.52       0.0  T
   2   -103.9692601 -0.164904E-06  0.875E-03    1.53       1.4  T
   3   -103.9692600  0.924032E-07  0.182E-03    1.53       6.8  T
   4   -103.9692601 -0.973287E-07  0.810E-04    1.53      15.2  T
   5   -103.9692601 -0.432094E-07  0.284E-04    1.53      43.3  T
     SCC iter.                  ...        0 min,  0.025 sec
     gradient                   ...        0 min,  0.072 sec
 * total energy  :  -102.6762582 Eh     change       -0.6435805E-05 Eh
   gradient norm :     0.0009161 Eh/α   predicted    -0.3151699E-05 ( -51.03%)
   displ. norm   :     0.0869933 α      lambda       -0.3772385E-05
   maximum displ.:     0.0496703 α      in ANC's #2, #4, #19, ...

........................................................................
.............................. CYCLE   58 ..............................
........................................................................

 iter      E             dE          RMSdq      gap      omega  full diag
   1   -103.9691880 -0.103969E+03  0.118E-02    1.53       0.0  T
   2   -103.9691881 -0.970402E-07  0.678E-03    1.53       1.8  T
   3   -103.9691881  0.155282E-07  0.129E-03    1.53       9.5  T
   4   -103.9691881 -0.219034E-07  0.565E-04    1.53      21.8  T
   5   -103.9691882 -0.174528E-07  0.216E-04    1.53      56.9  T
     SCC iter.                  ...        0 min,  0.039 sec
     gradient                   ...        0 min,  0.055 sec
 * total energy  :  -102.6762625 Eh     change       -0.4325878E-05 Eh
   gradient norm :     0.0009110 Eh/α   predicted    -0.1894367E-05 ( -56.21%)
   displ. norm   :     0.1056903 α      lambda       -0.4492664E-05
   maximum displ.:     0.0621626 α      in ANC's #2, #4, #19, ...

   *** GEOMETRY OPTIMIZATION CONVERGED AFTER 58 ITERATIONS ***

------------------------------------------------------------------------
 total energy gain   :        -0.0235988 Eh      -14.8085 kcal/mol
 total RMSD          :         1.0203594 a0        0.5400 Å
 total power (kW/mol):        -1.0682547 (step)   -8.8198 (real)
------------------------------------------------------------------------

 ANCopt (total)                0 d,  0 h,  0 min,  7.025 sec
 optimizer setup                ...        0 min,  0.000 sec (  0.001%)
 model hessian                  ...        0 min,  0.091 sec (  1.296%)
 ANC generation                 ...        0 min,  0.020 sec (  0.291%)
 coordinate transformation      ...        0 min,  0.002 sec (  0.022%)
 single point calculation       ...        0 min,  6.873 sec ( 97.838%)
 optimization log               ...        0 min,  0.027 sec (  0.379%)
 hessian update                 ...        0 min,  0.002 sec (  0.024%)
 rational function              ...        0 min,  0.007 sec (  0.093%)

================
 final structure:
================
66
 xtb: 6.7.1 (edcfbbe)
C           -3.72490215550764        0.04367382404616        4.52580032746966
C           -4.98636777173818       -0.78838311541786        4.32731467720772
C           -4.95656512512222       -1.63042938507733        3.04302589123430
C           -4.92379423587713       -0.78959568888901        1.81798119102116
N           -5.97220833204468       -0.32215635453030        1.17377894758229
C           -5.52349618373914        0.40041991953605        0.12176479692348
C           -6.43026100250651        1.08361552379629       -0.83177938325182
C           -4.13940391546814        0.38139023663228        0.10992304393678
N           -3.78821191334023       -0.38488592573673        1.20938108197750
N           -2.47850629246059       -0.61477015738386        1.51403635151569
C           -1.52623779341873       -0.08700649043317        0.70175428757995
C           -0.11257982404916       -0.32639576882804        1.04221803496890
C            0.34649325134179       -1.27467508143180        1.98183282931156
[...]
          omp threads                :                     1


           -------------------------------------------------
          |                 G F N 2 - x T B                 |
           -------------------------------------------------

        Reference                      10.1021/acs.jctc.8b01176
      * Hamiltonian:
        H0-scaling (s, p, d)           1.850000    2.230000    2.230000
        zeta-weighting                 0.500000
      * Dispersion:
        s8                             2.700000
        a1                             0.520000
        a2                             5.000000
        s9                             5.000000
      * Repulsion:
        kExp                           1.500000    1.000000
        rExp                           1.000000
      * Coulomb:
        alpha                          2.000000
        third order                    shell-resolved
        anisotropic                    true
        a3                             3.000000
        a5                             4.000000
        cn-shift                       1.200000
        cn-exp                         4.000000
        max-rad                        5.000000


          ...................................................
          :                      SETUP                      :
          :.................................................:
          :  # basis functions                 174          :
          :  # atomic orbitals                 173          :
          :  # shells                          101          :
          :  # electrons                       184          :
          :  max. iterations                   250          :
          :  Hamiltonian                  GFN2-xTB          :
          :  restarted?                      false          :
          :  GBSA solvation                  false          :
          :  PC potential                    false          :
          :  electronic temp.          300.0000000     K    :
          :  accuracy                    1.0000000          :
          :  -> integral cutoff          0.2500000E+02      :
          :  -> integral neglect         0.1000000E-07      :
          :  -> SCF convergence          0.1000000E-05 Eh   :
          :  -> wf. convergence          0.1000000E-03 e    :
          :  Broyden damping             0.4000000          :
          :  net charge                          0          :
          :  unpaired electrons                  2          :
          ...................................................

 iter      E             dE          RMSdq      gap      omega  full diag
   1   -103.5457315 -0.103546E+03  0.405E+00    0.77       0.0  T
   2   -103.7541343 -0.208403E+00  0.280E+00    0.53       1.0  T
   3   -103.6532103  0.100924E+00  0.191E+00    0.67       1.0  T
   4   -103.7065727 -0.533624E-01  0.140E+00    0.50       1.0  T
   5   -103.8061774 -0.996047E-01  0.868E-01    0.94       1.0  T
   6   -103.8270641 -0.208867E-01  0.698E-01    0.68       1.0  T
   7   -103.8545137 -0.274496E-01  0.444E-01    0.83       1.0  T
   8   -103.8673500 -0.128363E-01  0.302E-01    0.72       1.0  T
   9   -103.7471120  0.120238E+00  0.836E-01    0.68       1.0  T
  10   -103.8659500 -0.118838E+00  0.287E-01    0.72       1.0  T
  11   -103.8779000 -0.119500E-01  0.568E-02    0.72       1.0  T
  12   -103.8619729  0.159271E-01  0.293E-01    0.72       1.0  T
  13   -103.8747467 -0.127737E-01  0.136E-01    0.72       1.0  T
  14   -103.8779376 -0.319087E-02  0.195E-02    0.72       1.0  T
  15   -103.8779890 -0.514811E-04  0.566E-03    0.72       2.2  T
  16   -103.8779477  0.413675E-04  0.155E-02    0.72       1.0  T
  17   -103.8779914 -0.437636E-04  0.152E-03    0.72       8.1  T
  18   -103.8779807  0.107409E-04  0.767E-03    0.72       1.6  T
  19   -103.8779913 -0.106159E-04  0.126E-03    0.72       9.7  T
  20   -103.8779913 -0.677315E-08  0.123E-03    0.72      10.0  T
  21   -103.8779913  0.173475E-07  0.130E-03    0.72       9.5  T
  22   -103.8779916 -0.326807E-06  0.267E-05    0.72     461.7  T
  23   -103.8779916  0.167958E-09  0.319E-05    0.72     386.2  T

   *** convergence criteria satisfied after 23 iterations ***

         #    Occupation            Energy/Eh            Energy/eV
      -------------------------------------------------------------
         1        2.0000           -0.7655021             -20.8304
       ...           ...                  ...                  ...
        87        2.0000           -0.3992604             -10.8644
        88        2.0000           -0.3964970             -10.7892
        89        2.0000           -0.3893879             -10.5958
        90        1.9532           -0.3806910             -10.3591
        91        1.7726           -0.3789890             -10.3128
        92        1.2742           -0.3769024             -10.2560
        93        1.0000           -0.2676090              -7.2820 (HOMO)
        94        0.0000           -0.2411505              -6.5620 (LUMO)
        95                         -0.2275294              -6.1914
        96                         -0.2041345              -5.5548
        97                         -0.1768814              -4.8132
        98                         -0.1206410              -3.2828
       ...                                ...                  ...
       173                          1.2456858              33.8968
      -------------------------------------------------------------
                  HL-Gap            0.0264585 Eh            0.7200 eV
             Fermi-level           -0.3161034 Eh           -8.6016 eV

 transition dipole moment (au) for excitation:          92          93
     X       Y       Z   
  -0.0989  -0.0688   0.0007  total (au/Debye):    0.120   0.306
 dE (eV)             :    2.974
 oscillator strength :  0.14962E-02

 SCC (total)                   0 d,  0 h,  0 min,  0.287 sec
 SCC setup                      ...        0 min,  0.001 sec (  0.265%)
 Dispersion                     ...        0 min,  0.001 sec (  0.364%)
 classical contributions        ...        0 min,  0.000 sec (  0.120%)
 integral evaluation            ...        0 min,  0.016 sec (  5.455%)
 iterations                     ...        0 min,  0.147 sec ( 51.155%)
 molecular gradient             ...        0 min,  0.070 sec ( 24.306%)
 printout                       ...        0 min,  0.053 sec ( 18.332%)

         :::::::::::::::::::::::::::::::::::::::::::::::::::::
         ::                     SUMMARY                     ::
         :::::::::::::::::::::::::::::::::::::::::::::::::::::
         :: total energy            -102.585065971256 Eh    ::
         :: gradient norm              0.134063415236 Eh/a0 ::
         :: HOMO-LUMO gap              0.719973119090 eV    ::
         ::.................................................::
         :: SCC energy              -103.877509670524 Eh    ::
         :: -> isotropic ES            0.134651441836 Eh    ::
         :: -> anisotropic ES          0.000816304521 Eh    ::
         :: -> anisotropic XC          0.040399073277 Eh    ::
         :: -> dispersion             -0.077742258113 Eh    ::
         :: repulsion energy           1.292443699268 Eh    ::
         :: add. restraining           0.000000000000 Eh    ::
         :: total charge              -0.000000000001 e     ::
         :::::::::::::::::::::::::::::::::::::::::::::::::::::

           -------------------------------------------------
          |                Property Printout                |
           -------------------------------------------------

    * Orbital Energies and Occupations

         #    Occupation            Energy/Eh            Energy/eV
      -------------------------------------------------------------
         1        2.0000           -0.7655021             -20.8304
       ...           ...                  ...                  ...
        81        2.0000           -0.4310107             -11.7284
        82        2.0000           -0.4276880             -11.6380
        83        2.0000           -0.4117709             -11.2049
        84        2.0000           -0.4054575             -11.0331
        85        2.0000           -0.4046749             -11.0118
        86        2.0000           -0.4039981             -10.9933
        87        2.0000           -0.3992604             -10.8644
        88        2.0000           -0.3964970             -10.7892
        89        2.0000           -0.3893879             -10.5958
        90        1.9532           -0.3806910             -10.3591
        91        1.7726           -0.3789890             -10.3128
        92        1.2742           -0.3769024             -10.2560
        93        1.0000           -0.2676090              -7.2820 (HOMO)
        94        0.0000           -0.2411505              -6.5620 (LUMO)
        95                         -0.2275294              -6.1914
        96                         -0.2041345              -5.5548
        97                         -0.1768814              -4.8132
        98                         -0.1206410              -3.2828
        99                         -0.1168567              -3.1798
       100                         -0.0930550              -2.5322
       101                         -0.0709366              -1.9303
       102                         -0.0657789              -1.7899
       103                         -0.0559194              -1.5216
       104                         -0.0222940              -0.6067
       ...                                ...                  ...
       173                          1.2456858              33.8968
      -------------------------------------------------------------
                  HL-Gap            0.0264585 Eh            0.7200 eV
             Fermi-level           -0.3161034 Eh           -8.6016 eV

     #   Z          covCN         q      C6AA      α(0)
     1   6 C        3.751    -0.104    22.549     6.772
     2   6 C        3.801    -0.054    21.551     6.609
     3   6 C        3.804    -0.068    21.805     6.648
     4   6 C        3.127     0.105    25.490     8.267
     5   7 N        1.927    -0.268    27.793     7.817
     6   6 C        3.149     0.076    26.050     8.349
     7   6 C        3.755    -0.115    22.767     6.804
     8   6 C        3.063    -0.014    28.294     8.723
     9   7 N        2.949     0.055    20.284     6.689
    10   7 N        2.769    -0.114    23.476     7.196
    11   6 C        2.856     0.122    25.309     8.246
    12   6 C        2.980    -0.038    28.928     8.823
    13   6 C        2.856     0.125    25.256     8.237
    14   6 C        2.918    -0.068    29.704     8.937
    15   6 C        2.955    -0.052    29.289     8.877
    16   6 C        2.965    -0.101    30.537     9.064
    17  16 S        3.893     1.096   103.950    17.160
    18   8 O        0.860    -0.562    25.190     6.729
    19   7 N        2.733    -0.268    26.936     7.708
    20   6 C        3.871     0.004    20.474     6.434
    21   6 C        3.768    -0.006    20.715     6.487
    22   7 N        2.730    -0.134    23.895     7.260
    23   6 C        3.769    -0.001    20.634     6.474
    24   6 C        3.845     0.001    20.532     6.445
    25   6 C        3.757     0.005    20.539     6.461
    26   6 C        3.752    -0.114    22.739     6.800
    27   8 O        0.860    -0.577    25.554     6.778
    28   6 C        2.968    -0.045    29.124     8.852
    29   8 O        1.704    -0.293    18.873     5.865
    30   6 C        3.685     0.084    19.376     6.302
    31   6 C        3.751    -0.113    22.719     6.797
    32   7 N        1.844    -0.238    27.076     7.712
    33   6 C        2.777     0.266    22.512     7.771
    34   8 O        0.859    -0.382    21.328     6.192
    35   1 H        0.925     0.037     2.489     2.467
    36   1 H        0.925     0.033     2.550     2.497
    37   1 H        0.925     0.042     2.425     2.435
    38   1 H        0.924     0.049     2.334     2.389
    39   1 H        0.924     0.039     2.460     2.453
    40   1 H        0.924     0.066     2.130     2.283
    41   1 H        0.924     0.040     2.446     2.446
    42   1 H        0.925     0.073     2.053     2.241
    43   1 H        0.925     0.065     2.145     2.291
    44   1 H        0.925     0.066     2.134     2.285
    45   1 H        0.860     0.213     1.044     1.600
    46   1 H        0.926     0.040     2.453     2.449
    47   1 H        0.926     0.049     2.335     2.389
    48   1 H        0.924     0.051     2.310     2.377
    49   1 H        0.924     0.068     2.113     2.273
    50   1 H        0.923     0.053     2.286     2.364
    51   1 H        0.924     0.056     2.247     2.344
    52   1 H        0.924     0.052     2.298     2.370
    53   1 H        0.922     0.036     2.502     2.474
    54   1 H        0.925     0.075     2.026     2.226
    55   1 H        0.924     0.069     2.097     2.265
    56   1 H        0.923     0.028     2.614     2.528
    57   1 H        0.924     0.046     2.375     2.410
    58   1 H        0.925     0.055     2.256     2.349
    59   1 H        0.925     0.043     2.404     2.425
    60   1 H        0.925     0.049     2.330     2.387
    61   1 H        0.926     0.066     2.124     2.279
    62   1 H        0.924     0.038     2.482     2.464
    63   1 H        0.924     0.037     2.493     2.469
    64   1 H        0.925     0.054     2.274     2.358
    65   1 H        0.925     0.053     2.289     2.366
    66   1 H        0.925     0.052     2.297     2.370

 Mol. C6AA /au·bohr⁶  :      48257.611056
 Mol. C8AA /au·bohr⁸  :    1143636.692988
 Mol. α(0) /au        :        335.607989


Wiberg/Mayer (AO) data.
largest (>0.10) Wiberg bond orders for each atom

 ---------------------------------------------------------------------------
     #   Z sym  total        # sym  WBO       # sym  WBO       # sym  WBO
 ---------------------------------------------------------------------------
     1   6 C    3.996 --     2 C    1.021    35 H    0.987    37 H    0.986
                            36 H    0.984
     2   6 C    3.991 --     1 C    1.021     3 C    0.984    38 H    0.978
                            39 H    0.977
     3   6 C    3.993 --     4 C    1.018     2 C    0.984    41 H    0.966
                            40 H    0.966
     4   6 C    3.927 --     5 N    1.425     9 N    1.243     3 C    1.018
     5   7 N    3.039 --     4 C    1.425     6 C    1.297
     6   6 C    3.925 --     8 C    1.407     5 N    1.297     7 C    1.038
     7   6 C    3.987 --     6 C    1.038    42 H    0.976    44 H    0.965
                            43 H    0.963
     8   6 C    3.839 --     6 C    1.407     9 N    1.124    33 C    0.992
     9   7 N    3.636 --     4 C    1.243     8 C    1.124    10 N    1.035
    10   7 N    3.366 --    11 C    1.122     9 N    1.035    45 H    0.893
    11   6 C    3.904 --    32 N    1.393    12 C    1.142    10 N    1.122
    12   6 C    3.947 --    28 C    1.306    13 C    1.233    11 C    1.142
    13   6 C    3.910 --    14 C    1.424    12 C    1.233    29 O    1.042
    14   6 C    3.973 --    13 C    1.424    15 C    1.383    46 H    0.964
    15   6 C    3.917 --    14 C    1.383    16 C    1.371    47 H    0.966
    16   6 C    3.954 --    28 C    1.461    15 C    1.371    17 S    0.748
    17  16 S    4.975 --    18 O    1.636    27 O    1.599    19 N    0.907
                            16 C    0.748
    18   8 O    1.934 --    17 S    1.636    27 O    0.109
    19   7 N    3.194 --    20 C    0.999    24 C    0.994    17 S    0.907
    20   6 C    3.967 --    19 N    0.999    21 C    0.988    48 H    0.971
                            49 H    0.964
    21   6 C    3.970 --    22 N    1.007    20 C    0.988    51 H    0.967
                            50 H    0.948
    22   7 N    3.100 --    23 C    1.008    21 C    1.007    25 C    0.994
    23   6 C    3.973 --    22 N    1.008    24 C    0.988    52 H    0.969
                            53 H    0.954
    24   6 C    3.961 --    19 N    0.994    23 C    0.988    54 H    0.966
                            55 H    0.963
    25   6 C    3.972 --    26 C    1.015    22 N    0.994    57 H    0.972
                            56 H    0.959
    26   6 C    3.992 --    25 C    1.015    58 H    0.986    60 H    0.985
                            59 H    0.984
    27   8 O    1.907 --    17 S    1.599    18 O    0.109
    28   6 C    3.969 --    16 C    1.461    12 C    1.306    61 H    0.956
    29   8 O    2.221 --    13 C    1.042    30 C    0.956
    30   6 C    3.943 --    31 C    1.016    62 H    0.969    63 H    0.968
                            29 O    0.956
    31   6 C    3.992 --    30 C    1.016    64 H    0.985    66 H    0.984
                            65 H    0.984
    32   7 N    3.041 --    11 C    1.393    33 C    1.171    34 O    0.203
    33   6 C    3.902 --    34 O    1.584    32 N    1.171     8 C    0.992
    34   8 O    2.004 --    33 C    1.584    32 N    0.203
    35   1 H    0.999 --     1 C    0.987
    36   1 H    0.999 --     1 C    0.984
    37   1 H    0.998 --     1 C    0.986
    38   1 H    0.997 --     2 C    0.978
    39   1 H    0.997 --     2 C    0.977
    40   1 H    0.994 --     3 C    0.966
    41   1 H    0.998 --     3 C    0.966
    42   1 H    0.993 --     7 C    0.976
    43   1 H    0.990 --     7 C    0.963
    44   1 H    0.990 --     7 C    0.965
    45   1 H    0.954 --    10 N    0.893
    46   1 H    0.997 --    14 C    0.964
    47   1 H    0.997 --    15 C    0.966
    48   1 H    0.997 --    20 C    0.971
    49   1 H    0.991 --    20 C    0.964
    50   1 H    0.978 --    21 C    0.948
    51   1 H    0.996 --    21 C    0.967
    52   1 H    0.997 --    23 C    0.969
    53   1 H    0.981 --    23 C    0.954
    54   1 H    0.994 --    24 C    0.966
    55   1 H    0.990 --    24 C    0.963
    56   1 H    0.985 --    25 C    0.959
    57   1 H    0.997 --    25 C    0.972
    58   1 H    0.996 --    26 C    0.986
    59   1 H    0.998 --    26 C    0.984
    60   1 H    0.997 --    26 C    0.985
    61   1 H    0.994 --    28 C    0.956
    62   1 H    0.998 --    30 C    0.969
    63   1 H    0.998 --    30 C    0.968
    64   1 H    0.997 --    31 C    0.985
    65   1 H    0.997 --    31 C    0.984
    66   1 H    0.997 --    31 C    0.984
 ---------------------------------------------------------------------------

Topologies differ in total number of bonds
Writing topology from bond orders to xtbtopo.mol

molecular dipole:
                 x           y           z       tot (Debye)
 q only:       -0.081      -1.957      -0.139
   full:        0.640      -2.249       0.318       5.998
molecular quadrupole (traceless):
                xx          xy          yy          xz          yz          zz
 q only:      -15.622       5.328      -9.235     -44.047     -19.787      24.857
  q+dip:      -16.690       6.548      -6.539     -42.498     -20.806      23.229
   full:      -19.336       7.109      -4.750     -43.732     -18.770      24.085


           -------------------------------------------------
          | TOTAL ENERGY             -102.585065971256 Eh   |
          | GRADIENT NORM               0.134063415236 Eh/α |
          | HOMO-LUMO GAP               0.719973119090 eV   |
           -------------------------------------------------

------------------------------------------------------------------------
 * finished run on 2025/05/15 at 16:29:18.800     
------------------------------------------------------------------------
 total:
 * wall-time:     0 d,  0 h,  0 min,  0.308 sec
 *  cpu-time:     0 d,  0 h,  0 min,  0.222 sec
 * ratio c/w:     0.720 speedup
 SCF:
 * wall-time:     0 d,  0 h,  0 min,  0.287 sec
 *  cpu-time:     0 d,  0 h,  0 min,  0.202 sec
 * ratio c/w:     0.704 speedup


