31
 energy: -58.962083897147 gnorm: 0.000617616765 xtb: 6.7.1 (edcfbbe)
N            4.65514410562445        1.81376185389102       -0.51751986961992
C            3.79903246400011        0.78347794469335       -0.56368037606408
N            4.29731041461456       -0.45585713308211       -0.59639127729940
C            3.46647251191155       -1.48012864147586       -0.63581210688397
Cl           4.21082327501998       -3.01380548860475       -0.67782102934727
N            2.15082924628786       -1.48576318090788       -0.64765132243280
C            1.64719405310102       -0.24957970332387       -0.61690866537304
C            2.40101847578755        0.93573699337051       -0.57416181054331
N            1.55223871792298        2.01350517153931       -0.56206208081418
C            0.36035396886493        1.50096873737028       -0.59169892802477
N            0.34229742685892        0.13535605809439       -0.62617907051073
C           -0.77663486734351       -0.78086201758573       -0.65020708264109
C           -1.07656284213686       -1.35199978446477        0.74695386910184
C           -2.60645520889298       -1.30506255479911        0.83390880746623
C           -2.94664738313339       -0.13470055535340       -0.10946415633341
O           -1.93847271477909       -0.14548592657666       -1.11173067836670
C           -3.04324723666776        1.21138513779011        0.62146321857723
O           -1.95925901308916        1.36149769941963        1.50978949610976
O           -3.22534857501057       -2.49940520768743        0.44494825329566
H            4.29742124984196        2.75094548244675       -0.52183322407020
H            5.64186060596574        1.62803979954672       -0.53643343985658
H           -0.54093048447176        2.07691535302715       -0.60792277262695
H           -0.49671727804657       -1.57177416328335       -1.36361940870274
H           -0.64591748254253       -0.70202758108423        1.50647343958902
H           -0.69179811395025       -2.36152285916313        0.86716025537158
H           -2.95445665899211       -1.11399339378898        1.84953770559270
H           -3.89911653106655       -0.30558599194723       -0.62355660398507
H           -3.05048557765321        2.01062903443616       -0.13194296134941
H           -3.99633004521453        1.23402104567090        1.16740456881291
H           -2.02045336552932        2.22045387677850        1.94073631482331
H           -2.95306313728108       -2.71914000494400       -0.45447906389375
