----- Optimization -----
      -----------------------------------------------------------      
     |                   =====================                   |     
     |                           x T B                           |     
     |                   =====================                   |     
     |                         S. Grimme                         |     
     |          Mulliken Center for Theoretical Chemistry        |     
     |                    University of Bonn                     |     
      -----------------------------------------------------------      

   * xtb version 6.7.1 (edcfbbe) compiled by 'conda@3ef47c1a292c' on 2024-11-25

   xtb is free software: you can redistribute it and/or modify it under
   the terms of the GNU Lesser General Public License as published by
   the Free Software Foundation, either version 3 of the License, or
   (at your option) any later version.
   
   xtb is distributed in the hope that it will be useful,
   but WITHOUT ANY WARRANTY; without even the implied warranty of
   MERCHANTABILITY or FITNESS FOR A PARTICULAR PURPOSE.  See the
   GNU Lesser General Public License for more details.
   
   Cite this work as:
   * C. Bannwarth, E. Caldeweyher, S. Ehlert, A. Hansen, P. Pracht,
     J. Seibert, S. Spicher, S. Grimme, WIREs Comput. Mol. Sci., 2020, 11,
     e01493. DOI: 10.1002/wcms.1493
   
   for GFN2-xTB:
   * C. Bannwarth, S. Ehlert and S. Grimme., J. Chem. Theory Comput., 2019,
     15, 1652-1671. DOI: 10.1021/acs.jctc.8b01176
   for GFN1-xTB:
   * S. Grimme, C. Bannwarth, P. Shushkov, J. Chem. Theory Comput., 2017,
     13, 1989-2009. DOI: 10.1021/acs.jctc.7b00118
   for GFN0-xTB:
   * P. Pracht, E. Caldeweyher, S. Ehlert, S. Grimme, ChemRxiv, 2019, preprint.
     DOI: 10.26434/chemrxiv.8326202.v1
   for GFN-FF:
   * S. Spicher and S. Grimme, Angew. Chem. Int. Ed., 2020, 59, 15665-15673.
     DOI: 10.1002/anie.202004239
   
   for ALPB and GBSA implicit solvation:
   * S. Ehlert, M. Stahn, S. Spicher, S. Grimme, J. Chem. Theory Comput.,
     2021, 17, 4250-4261. DOI: 10.1021/acs.jctc.1c00471
   
   for ddCOSMO and CPCM-X implicit solvation:
   * M. Stahn, S. Ehlert, S. Grimme, J. Phys. Chem. A,
     2023, XX, XXXX-XXXX. DOI: 10.1021/acs.jpca.3c04382
   
   for DFT-D4:
   * E. Caldeweyher, C. Bannwarth and S. Grimme, J. Chem. Phys., 2017,
     147, 034112. DOI: 10.1063/1.4993215
   * E. Caldeweyher, S. Ehlert, A. Hansen, H. Neugebauer, S. Spicher,
     C. Bannwarth and S. Grimme, J. Chem. Phys., 2019, 150, 154122.
     DOI: 10.1063/1.5090222
   * E. Caldeweyher, J.-M. Mewes, S. Ehlert and S. Grimme, Phys. Chem. Chem. Phys.
     2020, 22, 8499-8512. DOI: 10.1039/D0CP00502A
   
   for sTDA-xTB:
   * S. Grimme and C. Bannwarth, J. Chem. Phys., 2016, 145, 054103.
     DOI: 10.1063/1.4959605
   
   in the mass-spec context:
   * V. Asgeirsson, C. Bauer and S. Grimme, Chem. Sci., 2017, 8, 4879.
     DOI: 10.1039/c7sc00601b
   * J. Koopman and S. Grimme, ACS Omega 2019, 4, 12, 15120-15133.
     DOI: 10.1021/acsomega.9b02011
   
   for metadynamics refer to:
   * S. Grimme, J. Chem. Theory Comput., 2019, 155, 2847-2862
     DOI: 10.1021/acs.jctc.9b00143
   
   for SPH calculations refer to:
   * S. Spicher and S. Grimme, J. Chem. Theory Comput., 2021, 17, 1701-1714
     DOI: 10.1021/acs.jctc.0c01306
   
   for ONIOM refer to:
   * C. Plett, A. Katbashev, S. Ehlert, S. Grimme, M. Bursch,
     Phys. Chem. Chem. Phys., 2023, 25, 17860-17868. DOI: 10.1039/D3CP02178E
   
   for DIPRO refer to:
   * J. Kohn, N. Gildemeister, S. Grimme, D. Fazzi, A. Hansen,
     J. Chem. Phys., 2023, just accepted.
   
   for PTB refer to:
   * S. Grimme, M. Mueller, A. Hansen, J. Chem. Phys., 2023, 158, 124111.
     DOI: 10.1063/5.0137838
   
   with help from (in alphabetical order)
   P. Atkinson, C. Bannwarth, F. Bohle, G. Brandenburg, E. Caldeweyher
   M. Checinski, S. Dohm, S. Ehlert, S. Ehrlich, I. Gerasimov, C. Hölzer
   A. Katbashev, J. Kohn, J. Koopman, C. Lavigne, S. Lehtola, F. März, M. Müller,
   F. Musil, H. Neugebauer, J. Pisarek, C. Plett, P. Pracht, F. Pultar,
   J. Seibert, P. Shushkov, S. Spicher, M. Stahn, M. Steiner, T. Strunk,
   J. Stückrath, T. Rose, and J. Unsleber
   
 * started run on 2025/05/15 at 16:22:24.614     
   ID    Z sym.   atoms
    1    7 N      1, 3, 6, 9, 11
    2    6 C      2, 4, 7, 8, 10, 12-15, 17
    3   17 Cl     5
    4    8 O      16, 18, 19
    5    1 H      20-31

           -------------------------------------------------
          |                Calculation Setup                |
           -------------------------------------------------

          program call               : xtb /rds/general/user/hgt20/home/callum/QDESCP/Cladribine_rdkit_conf_11/Cladribine_rdkit_conf_11.xyz --opt normal --acc 1 --gfn 2 --chrg 0 --uhf 0 -P 1
          hostname                   : login-c
          coordinate file            : /rds/general/user/hgt20/home/callum/QDESCP/Cladribine_rdkit_conf_11/Cladribine_rdkit_conf_11.xyz
          omp threads                :                     1


           -------------------------------------------------
          |                 G F N 2 - x T B                 |
           -------------------------------------------------

        Reference                      10.1021/acs.jctc.8b01176
      * Hamiltonian:
        H0-scaling (s, p, d)           1.850000    2.230000    2.230000
        zeta-weighting                 0.500000
      * Dispersion:
        s8                             2.700000
        a1                             0.520000
        a2                             5.000000
        s9                             5.000000
      * Repulsion:
        kExp                           1.500000    1.000000
        rExp                           1.000000
      * Coulomb:
        alpha                          2.000000
        third order                    shell-resolved
        anisotropic                    true
        a3                             3.000000
        a5                             4.000000
        cn-shift                       1.200000
        cn-exp                         4.000000
        max-rad                        5.000000


          ...................................................
          :                      SETUP                      :
          :.................................................:
          :  # basis functions                  94          :
          :  # atomic orbitals                  93          :
          :  # shells                           51          :
          :  # electrons                       102          :
          :  max. iterations                   250          :
          :  Hamiltonian                  GFN2-xTB          :
          :  restarted?                      false          :
          :  GBSA solvation                  false          :
          :  PC potential                    false          :
          :  electronic temp.          300.0000000     K    :
          :  accuracy                    1.0000000          :
          :  -> integral cutoff          0.2500000E+02      :
          :  -> integral neglect         0.1000000E-07      :
          :  -> SCF convergence          0.1000000E-05 Eh   :
          :  -> wf. convergence          0.1000000E-03 e    :
          :  Broyden damping             0.4000000          :
          :  net charge                          0          :
          :  unpaired electrons                  0          :
          ...................................................

 iter      E             dE          RMSdq      gap      omega  full diag
   1    -59.3753724 -0.593754E+02  0.443E+00    2.96       0.0  T
   2    -59.4957992 -0.120427E+00  0.270E+00    3.33       1.0  T
   3    -59.5082169 -0.124177E-01  0.131E+00    3.18       1.0  T
   4    -59.5131237 -0.490676E-02  0.261E-01    3.10       1.0  T
   5    -59.5141817 -0.105807E-02  0.104E-01    3.07       1.0  T
   6    -59.5142646 -0.828739E-04  0.544E-02    3.07       1.0  T
   7    -59.5142917 -0.270622E-04  0.329E-02    3.07       1.0  T
   8    -59.5142987 -0.702311E-05  0.188E-02    3.07       1.0  T
   9    -59.5143015 -0.279326E-05  0.141E-02    3.07       1.3  T
  10    -59.5143038 -0.232511E-05  0.880E-03    3.07       2.0  T
  11    -59.5143050 -0.115842E-05  0.358E-03    3.07       5.0  T
  12    -59.5143051 -0.143361E-06  0.182E-03    3.07       9.9  T
  13    -59.5143052 -0.349793E-07  0.547E-04    3.07      32.8  T
  14    -59.5143052 -0.279806E-08  0.209E-04    3.07      85.8  T

   *** convergence criteria satisfied after 14 iterations ***

         #    Occupation            Energy/Eh            Energy/eV
      -------------------------------------------------------------
         1        2.0000           -1.0517788             -28.6204
       ...           ...                  ...                  ...
        45        2.0000           -0.4283220             -11.6552
        46        2.0000           -0.4231485             -11.5145
        47        2.0000           -0.4212979             -11.4641
        48        2.0000           -0.4180643             -11.3761
        49        2.0000           -0.4032786             -10.9738
        50        2.0000           -0.3919588             -10.6657
        51        2.0000           -0.3818827             -10.3916 (HOMO)
        52                         -0.2690381              -7.3209 (LUMO)
        53                         -0.2428093              -6.6072
        54                         -0.2089846              -5.6868
        55                         -0.1386210              -3.7721
        56                         -0.1168140              -3.1787
       ...                                ...                  ...
        93                          0.6258322              17.0298
      -------------------------------------------------------------
                  HL-Gap            0.1128446 Eh            3.0707 eV
             Fermi-level           -0.3254604 Eh           -8.8562 eV

 SCC (total)                   0 d,  0 h,  0 min,  0.077 sec
 SCC setup                      ...        0 min,  0.000 sec (  0.379%)
 Dispersion                     ...        0 min,  0.000 sec (  0.349%)
 classical contributions        ...        0 min,  0.000 sec (  0.112%)
 integral evaluation            ...        0 min,  0.006 sec (  7.471%)
 iterations                     ...        0 min,  0.021 sec ( 27.788%)
 molecular gradient             ...        0 min,  0.049 sec ( 63.709%)
 printout                       ...        0 min,  0.000 sec (  0.184%)

         :::::::::::::::::::::::::::::::::::::::::::::::::::::
         ::                     SUMMARY                     ::
         :::::::::::::::::::::::::::::::::::::::::::::::::::::
         :: total energy             -58.949333357700 Eh    ::
         :: gradient norm              0.091886348822 Eh/a0 ::
         :: HOMO-LUMO gap              3.070657642231 eV    ::
         ::.................................................::
         :: SCC energy               -59.514156671297 Eh    ::
         :: -> isotropic ES            0.115512970905 Eh    ::
         :: -> anisotropic ES          0.001992543491 Eh    ::
         :: -> anisotropic XC          0.019769757644 Eh    ::
         :: -> dispersion             -0.033756228518 Eh    ::
         :: repulsion energy           0.564823313597 Eh    ::
         :: add. restraining           0.000000000000 Eh    ::
         :: total charge              -0.000000000000 e     ::
         :::::::::::::::::::::::::::::::::::::::::::::::::::::

      ----------------------------------------------------------- 
     |                   =====================                   |
     |                        A N C O P T                        |
     |                   =====================                   |
     |               Approximate Normal Coordinate               |
     |                Rational Function Optimizer                |
      ----------------------------------------------------------- 
      ----------------------------------------------------------- 
     |                   =====================                   |
     |                        A N C O P T                        |
     |                   =====================                   |
     |               Approximate Normal Coordinate               |
     |                Rational Function Optimizer                |
      ----------------------------------------------------------- 

          ...................................................
          :                      SETUP                      :
          :.................................................:
          :   optimization level            normal          :
          :   max. optcycles                   200          :
          :   ANC micro-cycles                  20          :
          :   degrees of freedom                87          :
          :.................................................:
          :   RF solver                   davidson          :
          :   write xtbopt.log                true          :
          :   linear?                        false          :
          :   energy convergence         0.5000000E-05 Eh   :
          :   grad. convergence          0.1000000E-02 Eh/α :
          :   maxmium RF displ.          1.0000000          :
          :   Hlow (freq-cutoff)         0.1000000E-01      :
          :   Hmax (freq-cutoff)         5.0000000          :
          :   S6 in model hess.         20.0000000          :
          ...................................................

generating ANC from exact Hessian ...
Using Lindh-Hessian (1995)
 Shifting diagonal of input Hessian by    9.1755699746226480E-003
 Lowest  eigenvalues of input Hessian
    0.000000    0.000000    0.000000    0.000000    0.000000    0.000000
    0.010000    0.010296    0.010756    0.013369    0.014407    0.016221
    0.018774    0.019284    0.020517    0.022946    0.024643    0.029871
 Highest eigenvalues
    1.784168    1.926364    2.063357    2.092953    2.173747    2.292556


........................................................................
.............................. CYCLE    1 ..............................
........................................................................

 iter      E             dE          RMSdq      gap      omega  full diag
   1    -59.5143052 -0.595143E+02  0.115E-04    3.07       0.0  T
   2    -59.5143052 -0.514362E-10  0.915E-05    3.07     196.3  T
   3    -59.5143052 -0.336726E-10  0.624E-05    3.07     287.7  T
     SCC iter.                  ...        0 min,  0.005 sec
     gradient                   ...        0 min,  0.016 sec
 * total energy  :   -58.9493334 Eh     change       -0.3182379E-09 Eh
   gradient norm :     0.0918864 Eh/α   predicted     0.0000000E+00 (-100.00%)
   displ. norm   :     0.2441138 α      lambda       -0.1219132E-01
   maximum displ.:     0.0812430 α      in ANC's #24, #27, #40, ...

........................................................................
.............................. CYCLE    2 ..............................
........................................................................

 iter      E             dE          RMSdq      gap      omega  full diag
   1    -59.5454565 -0.595455E+02  0.212E-01    3.18       0.0  T
   2    -59.5456152 -0.158720E-03  0.130E-01    3.15       1.0  T
   3    -59.5456389 -0.236273E-04  0.728E-02    3.16       1.0  T
   4    -59.5456789 -0.400239E-04  0.186E-02    3.16       1.0  T
   5    -59.5456838 -0.493069E-05  0.110E-02    3.16       1.6  T
   6    -59.5456846 -0.729960E-06  0.837E-03    3.16       2.1  T
   7    -59.5456852 -0.637162E-06  0.601E-03    3.16       3.0  T
   8    -59.5456857 -0.539375E-06  0.273E-03    3.16       6.6  T
   9    -59.5456858 -0.859704E-07  0.140E-03    3.16      12.8  T
  10    -59.5456858 -0.264408E-07  0.444E-04    3.16      40.4  T
  11    -59.5456858 -0.220520E-08  0.201E-04    3.16      89.2  T
     SCC iter.                  ...        0 min,  0.016 sec
     gradient                   ...        0 min,  0.035 sec
 * total energy  :   -58.9577143 Eh     change       -0.8380934E-02 Eh
   gradient norm :     0.0420203 Eh/α   predicted    -0.6460170E-02 ( -22.92%)
   displ. norm   :     0.2184999 α      lambda       -0.4051213E-02
   maximum displ.:     0.0853403 α      in ANC's #6, #27, #5, ...

........................................................................
.............................. CYCLE    3 ..............................
........................................................................

 iter      E             dE          RMSdq      gap      omega  full diag
   1    -59.5619226 -0.595619E+02  0.151E-01    3.24       0.0  T
   2    -59.5620511 -0.128505E-03  0.902E-02    3.20       1.0  T
   3    -59.5620796 -0.284698E-04  0.512E-02    3.22       1.0  T
   4    -59.5620927 -0.131153E-04  0.147E-02    3.21       1.2  T
   5    -59.5620962 -0.341825E-05  0.739E-03    3.21       2.4  T
   6    -59.5620965 -0.332566E-06  0.540E-03    3.21       3.3  T
   7    -59.5620967 -0.239613E-06  0.405E-03    3.21       4.4  T
   8    -59.5620970 -0.229733E-06  0.205E-03    3.21       8.8  T
   9    -59.5620970 -0.506250E-07  0.104E-03    3.21      17.3  T
  10    -59.5620970 -0.158417E-07  0.351E-04    3.21      51.2  T
  11    -59.5620970 -0.118776E-08  0.149E-04    3.21     120.9  T
     SCC iter.                  ...        0 min,  0.016 sec
     gradient                   ...        0 min,  0.016 sec
 * total energy  :   -58.9600565 Eh     change       -0.2342164E-02 Eh
   gradient norm :     0.0129324 Eh/α   predicted    -0.2123463E-02 (  -9.34%)
   displ. norm   :     0.1561064 α      lambda       -0.6743959E-03
   maximum displ.:     0.0785361 α      in ANC's #6, #5, #11, ...

........................................................................
.............................. CYCLE    4 ..............................
........................................................................

 iter      E             dE          RMSdq      gap      omega  full diag
   1    -59.5616931 -0.595617E+02  0.617E-02    3.23       0.0  T
   2    -59.5617048 -0.117713E-04  0.355E-02    3.22       1.0  T
   3    -59.5617040  0.869748E-06  0.186E-02    3.22       1.0  T
   4    -59.5617076 -0.362094E-05  0.445E-03    3.22       4.0  T
   5    -59.5617080 -0.395752E-06  0.194E-03    3.22       9.3  T
   6    -59.5617080 -0.243858E-07  0.846E-04    3.22      21.2  T
   7    -59.5617080 -0.600070E-08  0.428E-04    3.22      42.0  T
     SCC iter.                  ...        0 min,  0.010 sec
     gradient                   ...        0 min,  0.042 sec
 * total energy  :   -58.9605772 Eh     change       -0.5207720E-03 Eh
   gradient norm :     0.0117034 Eh/α   predicted    -0.3454278E-03 ( -33.67%)
   displ. norm   :     0.2576839 α      lambda       -0.7444627E-03
   maximum displ.:     0.1461509 α      in ANC's #6, #2, #11, ...

........................................................................
.............................. CYCLE    5 ..............................
........................................................................

 iter      E             dE          RMSdq      gap      omega  full diag
   1    -59.5594550 -0.595595E+02  0.892E-02    3.23       0.0  T
   2    -59.5594700 -0.150056E-04  0.523E-02    3.23       1.0  T
   3    -59.5594649  0.513049E-05  0.235E-02    3.23       1.0  T
   4    -59.5594741 -0.919397E-05  0.555E-03    3.23       3.2  T
   5    -59.5594746 -0.494348E-06  0.272E-03    3.23       6.6  T
   6    -59.5594747 -0.440611E-07  0.114E-03    3.23      15.7  T
   7    -59.5594747 -0.113396E-07  0.630E-04    3.23      28.5  T
   8    -59.5594747 -0.258531E-08  0.413E-04    3.23      43.5  T
     SCC iter.                  ...        0 min,  0.012 sec
     gradient                   ...        0 min,  0.016 sec
 * total energy  :   -58.9610690 Eh     change       -0.4917542E-03 Eh
   gradient norm :     0.0105674 Eh/α   predicted    -0.3969566E-03 ( -19.28%)
   displ. norm   :     0.1901844 α      lambda       -0.3181632E-03
   maximum displ.:     0.1094447 α      in ANC's #6, #2, #1, ...

........................................................................
.............................. CYCLE    6 ..............................
........................................................................

 iter      E             dE          RMSdq      gap      omega  full diag
   1    -59.5596788 -0.595597E+02  0.560E-02    3.24       0.0  T
   2    -59.5596829 -0.409918E-05  0.332E-02    3.23       1.0  T
   3    -59.5596808  0.217306E-05  0.129E-02    3.24       1.4  T
   4    -59.5596842 -0.344254E-05  0.329E-03    3.24       5.5  T
   5    -59.5596843 -0.137389E-06  0.169E-03    3.24      10.6  T
   6    -59.5596844 -0.131744E-07  0.602E-04    3.24      29.8  T
   7    -59.5596844 -0.364881E-08  0.301E-04    3.24      59.7  T
     SCC iter.                  ...        0 min,  0.055 sec
     gradient                   ...        0 min,  0.016 sec
 * total energy  :   -58.9613122 Eh     change       -0.2431767E-03 Eh
   gradient norm :     0.0077602 Eh/α   predicted    -0.1648358E-03 ( -32.22%)
   displ. norm   :     0.2693815 α      lambda       -0.3491864E-03
   maximum displ.:     0.1472817 α      in ANC's #2, #6, #1, ...

........................................................................
.............................. CYCLE    7 ..............................
........................................................................

 iter      E             dE          RMSdq      gap      omega  full diag
   1    -59.5608941 -0.595609E+02  0.720E-02    3.25       0.0  T
   2    -59.5608993 -0.518806E-05  0.428E-02    3.25       1.0  T
   3    -59.5608962  0.314075E-05  0.145E-02    3.25       1.2  T
   4    -59.5609009 -0.476501E-05  0.389E-03    3.25       4.6  T
   5    -59.5609011 -0.185559E-06  0.200E-03    3.25       9.0  T
   6    -59.5609012 -0.170703E-07  0.636E-04    3.25      28.2  T
   7    -59.5609012 -0.380247E-08  0.339E-04    3.25      52.9  T
     SCC iter.                  ...        0 min,  0.010 sec
     gradient                   ...        0 min,  0.016 sec
 * total energy  :   -58.9615711 Eh     change       -0.2589311E-03 Eh
   gradient norm :     0.0054454 Eh/α   predicted    -0.1872951E-03 ( -27.67%)
   displ. norm   :     0.2756580 α      lambda       -0.2646245E-03
   maximum displ.:     0.1653421 α      in ANC's #2, #6, #1, ...

........................................................................
.............................. CYCLE    8 ..............................
........................................................................

 iter      E             dE          RMSdq      gap      omega  full diag
   1    -59.5626982 -0.595627E+02  0.666E-02    3.26       0.0  T
   2    -59.5627018 -0.361864E-05  0.394E-02    3.26       1.0  T
   3    -59.5627004  0.135500E-05  0.107E-02    3.26       1.7  T
   4    -59.5627028 -0.241518E-05  0.343E-03    3.26       5.2  T
   5    -59.5627030 -0.128671E-06  0.183E-03    3.26       9.8  T
   6    -59.5627030 -0.176983E-07  0.727E-04    3.26      24.7  T
   7    -59.5627030 -0.410606E-08  0.483E-04    3.26      37.2  T
     SCC iter.                  ...        0 min,  0.010 sec
     gradient                   ...        0 min,  0.031 sec
 * total energy  :   -58.9617564 Eh     change       -0.1852966E-03 Eh
   gradient norm :     0.0048776 Eh/α   predicted    -0.1423672E-03 ( -23.17%)
   displ. norm   :     0.2546775 α      lambda       -0.1531972E-03
   maximum displ.:     0.1609976 α      in ANC's #2, #1, #6, ...

........................................................................
.............................. CYCLE    9 ..............................
........................................................................

 iter      E             dE          RMSdq      gap      omega  full diag
   1    -59.5627865 -0.595628E+02  0.590E-02    3.27       0.0  T
   2    -59.5627883 -0.175430E-05  0.351E-02    3.27       1.0  T
   3    -59.5627878  0.542873E-06  0.706E-03    3.27       2.5  T
   4    -59.5627889 -0.113580E-05  0.238E-03    3.27       7.5  T
   5    -59.5627889 -0.322876E-07  0.128E-03    3.27      14.0  T
   6    -59.5627889 -0.129067E-07  0.507E-04    3.27      35.5  T
   7    -59.5627889 -0.254052E-08  0.357E-04    3.27      50.3  T
     SCC iter.                  ...        0 min,  0.010 sec
     gradient                   ...        0 min,  0.015 sec
 * total energy  :   -58.9618478 Eh     change       -0.9145032E-04 Eh
   gradient norm :     0.0050704 Eh/α   predicted    -0.8156794E-04 ( -10.81%)
   displ. norm   :     0.1705044 α      lambda       -0.1173741E-03
   maximum displ.:     0.1148872 α      in ANC's #2, #1, #5, ...

........................................................................
.............................. CYCLE   10 ..............................
........................................................................

 iter      E             dE          RMSdq      gap      omega  full diag
   1    -59.5647872 -0.595648E+02  0.359E-02    3.27       0.0  T
   2    -59.5647881 -0.879496E-06  0.211E-02    3.27       1.0  T
   3    -59.5647878  0.372278E-06  0.512E-03    3.27       3.5  T
   4    -59.5647884 -0.650635E-06  0.170E-03    3.27      10.5  T
   5    -59.5647884 -0.281767E-07  0.900E-04    3.27      20.0  T
   6    -59.5647884 -0.379453E-08  0.382E-04    3.27      47.1  T
     SCC iter.                  ...        0 min,  0.009 sec
     gradient                   ...        0 min,  0.054 sec
 * total energy  :   -58.9619049 Eh     change       -0.5706203E-04 Eh
   gradient norm :     0.0055281 Eh/α   predicted    -0.6039543E-04 (   5.84%)
   displ. norm   :     0.1034011 α      lambda       -0.4788873E-04
   maximum displ.:     0.0767965 α      in ANC's #2, #1, #4, ...

........................................................................
.............................. CYCLE   11 ..............................
........................................................................

 iter      E             dE          RMSdq      gap      omega  full diag
   1    -59.5640105 -0.595640E+02  0.219E-02    3.27       0.0  T
   2    -59.5640107 -0.215184E-06  0.129E-02    3.27       1.4  T
   3    -59.5640107 -0.383694E-08  0.194E-03    3.27       9.3  T
   4    -59.5640108 -0.613078E-07  0.747E-04    3.27      24.0  T
   5    -59.5640108 -0.127056E-08  0.352E-04    3.27      51.0  T
     SCC iter.                  ...        0 min,  0.007 sec
     gradient                   ...        0 min,  0.016 sec
 * total energy  :   -58.9619409 Eh     change       -0.3603998E-04 Eh
   gradient norm :     0.0035685 Eh/α   predicted    -0.2420072E-04 ( -32.85%)
   displ. norm   :     0.0924569 α      lambda       -0.5264039E-04
   maximum displ.:     0.0668952 α      in ANC's #2, #1, #3, ...

........................................................................
.............................. CYCLE   12 ..............................
........................................................................

 iter      E             dE          RMSdq      gap      omega  full diag
   1    -59.5638707 -0.595639E+02  0.206E-02    3.26       0.0  T
   2    -59.5638712 -0.456176E-06  0.119E-02    3.26       1.5  T
   3    -59.5638709  0.223673E-06  0.397E-03    3.26       4.5  T
   4    -59.5638712 -0.314538E-06  0.995E-04    3.26      18.0  T
   5    -59.5638713 -0.199516E-07  0.478E-04    3.26      37.6  T
     SCC iter.                  ...        0 min,  0.007 sec
     gradient                   ...        0 min,  0.054 sec
 * total energy  :   -58.9619762 Eh     change       -0.3523576E-04 Eh
   gradient norm :     0.0022942 Eh/α   predicted    -0.2654732E-04 ( -24.66%)
   displ. norm   :     0.1108971 α      lambda       -0.4058485E-04
   maximum displ.:     0.0782489 α      in ANC's #2, #1, #4, ...

........................................................................
.............................. CYCLE   13 ..............................
........................................................................

 iter      E             dE          RMSdq      gap      omega  full diag
   1    -59.5633685 -0.595634E+02  0.215E-02    3.26       0.0  T
   2    -59.5633688 -0.266319E-06  0.127E-02    3.26       1.4  T
   3    -59.5633687  0.676716E-07  0.260E-03    3.26       6.9  T
   4    -59.5633688 -0.138789E-06  0.879E-04    3.26      20.4  T
   5    -59.5633689 -0.575150E-08  0.537E-04    3.26      33.4  T
     SCC iter.                  ...        0 min,  0.007 sec
     gradient                   ...        0 min,  0.016 sec
 * total energy  :   -58.9620063 Eh     change       -0.3012849E-04 Eh
   gradient norm :     0.0029135 Eh/α   predicted    -0.2054757E-04 ( -31.80%)
   displ. norm   :     0.1259339 α      lambda       -0.3813890E-04
   maximum displ.:     0.0887558 α      in ANC's #2, #1, #3, ...

........................................................................
.............................. CYCLE   14 ..............................
........................................................................

 iter      E             dE          RMSdq      gap      omega  full diag
   1    -59.5632551 -0.595633E+02  0.242E-02    3.26       0.0  T
   2    -59.5632554 -0.284548E-06  0.143E-02    3.26       1.3  T
   3    -59.5632554  0.351946E-07  0.249E-03    3.26       7.2  T
   4    -59.5632555 -0.119942E-06  0.105E-03    3.26      17.0  T
   5    -59.5632555 -0.626928E-08  0.699E-04    3.26      25.7  T
   6    -59.5632555 -0.315147E-08  0.342E-04    3.26      52.5  T
     SCC iter.                  ...        0 min,  0.009 sec
     gradient                   ...        0 min,  0.016 sec
 * total energy  :   -58.9620335 Eh     change       -0.2721060E-04 Eh
   gradient norm :     0.0027438 Eh/α   predicted    -0.1937549E-04 ( -28.79%)
   displ. norm   :     0.1589708 α      lambda       -0.4074286E-04
   maximum displ.:     0.1111070 α      in ANC's #2, #1, #3, ...

........................................................................
.............................. CYCLE   15 ..............................
........................................................................

 iter      E             dE          RMSdq      gap      omega  full diag
   1    -59.5635551 -0.595636E+02  0.330E-02    3.26       0.0  T
   2    -59.5635556 -0.511708E-06  0.194E-02    3.26       1.0  T
   3    -59.5635557 -0.143046E-07  0.282E-03    3.26       6.4  T
   4    -59.5635558 -0.120500E-06  0.132E-03    3.26      13.6  T
   5    -59.5635558 -0.729443E-08  0.915E-04    3.26      19.6  T
   6    -59.5635558 -0.786781E-08  0.509E-04    3.26      35.3  T
     SCC iter.                  ...        0 min,  0.036 sec
     gradient                   ...        0 min,  0.016 sec
 * total energy  :   -58.9620527 Eh     change       -0.1919926E-04 Eh
   gradient norm :     0.0032522 Eh/α   predicted    -0.2088687E-04 (   8.79%)
   displ. norm   :     0.0605831 α      lambda       -0.1734938E-04
   maximum displ.:     0.0435490 α      in ANC's #2, #1, #3, ...

........................................................................
.............................. CYCLE   16 ..............................
........................................................................

 iter      E             dE          RMSdq      gap      omega  full diag
   1    -59.5637773 -0.595638E+02  0.129E-02    3.26       0.0  T
   2    -59.5637775 -0.126471E-06  0.754E-03    3.26       2.4  T
   3    -59.5637774  0.188375E-07  0.182E-03    3.26       9.9  T
   4    -59.5637775 -0.501920E-07  0.653E-04    3.26      27.5  T
   5    -59.5637775 -0.305010E-08  0.430E-04    3.26      41.8  T
     SCC iter.                  ...        0 min,  0.007 sec
     gradient                   ...        0 min,  0.016 sec
 * total energy  :   -58.9620639 Eh     change       -0.1118551E-04 Eh
   gradient norm :     0.0011851 Eh/α   predicted    -0.8710495E-05 ( -22.13%)
   displ. norm   :     0.0914405 α      lambda        0.2604799E-05
   maximum displ.:     0.0657195 α      in ANC's #2, #1, #3, ...

........................................................................
.............................. CYCLE   17 ..............................
........................................................................

 iter      E             dE          RMSdq      gap      omega  full diag
   1    -59.5640240 -0.595640E+02  0.194E-02    3.27       0.0  T
   2    -59.5640243 -0.279115E-06  0.114E-02    3.27       1.6  T
   3    -59.5640242  0.351026E-07  0.259E-03    3.27       6.9  T
   4    -59.5640243 -0.995723E-07  0.909E-04    3.27      19.8  T
   5    -59.5640243 -0.627405E-08  0.578E-04    3.27      31.1  T
     SCC iter.                  ...        0 min,  0.007 sec
     gradient                   ...        0 min,  0.046 sec
 * total energy  :   -58.9620572 Eh     change        0.6697558E-05 Eh
   gradient norm :     0.0044874 Eh/α   predicted     0.1307105E-05 ( -80.48%)
   displ. norm   :     0.0345983 α      lambda       -0.1764878E-04
   maximum displ.:     0.0226508 α      in ANC's #2, #1, #3, ...

........................................................................
.............................. CYCLE   18 ..............................
........................................................................

 iter      E             dE          RMSdq      gap      omega  full diag
   1    -59.5641801 -0.595642E+02  0.721E-03    3.26       0.0  T
   2    -59.5641801 -0.557679E-07  0.415E-03    3.26       4.3  T
   3    -59.5641801  0.391622E-07  0.161E-03    3.26      11.2  T
   4    -59.5641802 -0.583421E-07  0.324E-04    3.26      55.4  T
   5    -59.5641802 -0.942386E-09  0.182E-04    3.26      98.6  T
     SCC iter.                  ...        0 min,  0.007 sec
     gradient                   ...        0 min,  0.015 sec
 * total energy  :   -58.9620701 Eh     change       -0.1288130E-04 Eh
   gradient norm :     0.0020669 Eh/α   predicted    -0.8837686E-05 ( -31.39%)
   displ. norm   :     0.0275855 α      lambda       -0.1076511E-04
   maximum displ.:     0.0143304 α      in ANC's #4, #9, #3, ...

........................................................................
.............................. CYCLE   19 ..............................
........................................................................

 iter      E             dE          RMSdq      gap      omega  full diag
   1    -59.5640370 -0.595640E+02  0.626E-03    3.26       0.0  T
   2    -59.5640370 -0.596562E-07  0.368E-03    3.26       4.9  T
   3    -59.5640370  0.384959E-07  0.166E-03    3.26      10.8  T
   4    -59.5640370 -0.613064E-07  0.393E-04    3.26      45.7  T
   5    -59.5640370 -0.112669E-08  0.272E-04    3.26      66.1  T
     SCC iter.                  ...        0 min,  0.007 sec
     gradient                   ...        0 min,  0.060 sec
 * total energy  :   -58.9620768 Eh     change       -0.6707128E-05 Eh
   gradient norm :     0.0009346 Eh/α   predicted    -0.5388117E-05 ( -19.67%)
   displ. norm   :     0.0343529 α      lambda       -0.3472816E-05
   maximum displ.:     0.0183573 α      in ANC's #4, #1, #9, ...

........................................................................
.............................. CYCLE   20 ..............................
........................................................................

 iter      E             dE          RMSdq      gap      omega  full diag
   1    -59.5640347 -0.595640E+02  0.791E-03    3.26       0.0  T
   2    -59.5640347 -0.353485E-07  0.473E-03    3.26       3.8  T
   3    -59.5640347  0.458294E-07  0.140E-03    3.26      12.9  T
   4    -59.5640347 -0.599807E-07  0.350E-04    3.26      51.3  T
   5    -59.5640347 -0.810651E-09  0.239E-04    3.26      75.1  T
     SCC iter.                  ...        0 min,  0.007 sec
     gradient                   ...        0 min,  0.015 sec
 * total energy  :   -58.9620804 Eh     change       -0.3579943E-05 Eh
   gradient norm :     0.0012118 Eh/α   predicted    -0.1738253E-05 ( -51.44%)
   displ. norm   :     0.0491378 α      lambda       -0.3383288E-05
   maximum displ.:     0.0336222 α      in ANC's #1, #2, #4, ...
 * RMSD in coord.:     0.4001075 α      energy gain  -0.1274701E-01 Eh

generating ANC from exact Hessian ...
Using Lindh-Hessian (1995)
 Shifting diagonal of input Hessian by    9.1108765430277915E-003
 Lowest  eigenvalues of input Hessian
    0.000000    0.000000    0.000000    0.000000    0.000000    0.000000
    0.010000    0.010307    0.010846    0.013528    0.014456    0.016250
    0.018781    0.019966    0.021202    0.024826    0.025947    0.029844
 Highest eigenvalues
    1.948289    2.020857    2.155419    2.204688    2.322017    2.350912


........................................................................
.............................. CYCLE   21 ..............................
........................................................................

 iter      E             dE          RMSdq      gap      omega  full diag
   1    -59.5639250 -0.595639E+02  0.112E-02    3.26       0.0  T
   2    -59.5639250 -0.288238E-07  0.671E-03    3.26       2.7  T
   3    -59.5639250  0.522945E-08  0.776E-04    3.26      23.1  T
   4    -59.5639250 -0.152514E-07  0.325E-04    3.26      55.3  T
     SCC iter.                  ...        0 min,  0.006 sec
     gradient                   ...        0 min,  0.016 sec
 * total energy  :   -58.9620839 Eh     change       -0.3526922E-05 Eh
   gradient norm :     0.0006196 Eh/α   predicted     0.0000000E+00 (-100.00%)
   displ. norm   :     0.0126504 α      lambda       -0.9049452E-06
   maximum displ.:     0.0104553 α      in ANC's #1, #3, #9, ...

   *** GEOMETRY OPTIMIZATION CONVERGED AFTER 21 ITERATIONS ***

------------------------------------------------------------------------
 total energy gain   :        -0.0127505 Eh       -8.0011 kcal/mol
 total RMSD          :         0.4001075 a0        0.2117 Å
 total power (kW/mol):        -1.5941207 (step)  -34.6717 (real)
------------------------------------------------------------------------

 ANCopt (total)                0 d,  0 h,  0 min,  0.966 sec
 optimizer setup                ...        0 min,  0.000 sec (  0.007%)
 model hessian                  ...        0 min,  0.027 sec (  2.747%)
 ANC generation                 ...        0 min,  0.002 sec (  0.177%)
 coordinate transformation      ...        0 min,  0.000 sec (  0.010%)
 single point calculation       ...        0 min,  0.931 sec ( 96.452%)
 optimization log               ...        0 min,  0.004 sec (  0.381%)
 hessian update                 ...        0 min,  0.000 sec (  0.019%)
 rational function              ...        0 min,  0.001 sec (  0.138%)

================
 final structure:
================
31
 xtb: 6.7.1 (edcfbbe)
N            4.65514410562445        1.81376185389102       -0.51751986961992
C            3.79903246400011        0.78347794469335       -0.56368037606408
N            4.29731041461456       -0.45585713308211       -0.59639127729940
C            3.46647251191155       -1.48012864147586       -0.63581210688397
Cl           4.21082327501998       -3.01380548860475       -0.67782102934727
N            2.15082924628786       -1.48576318090788       -0.64765132243280
C            1.64719405310102       -0.24957970332387       -0.61690866537304
C            2.40101847578755        0.93573699337051       -0.57416181054331
N            1.55223871792298        2.01350517153931       -0.56206208081418
C            0.36035396886493        1.50096873737028       -0.59169892802477
N            0.34229742685892        0.13535605809439       -0.62617907051073
C           -0.77663486734351       -0.78086201758573       -0.65020708264109
C           -1.07656284213686       -1.35199978446477        0.74695386910184
C           -2.60645520889298       -1.30506255479911        0.83390880746623
C           -2.94664738313339       -0.13470055535340       -0.10946415633341
O           -1.93847271477909       -0.14548592657666       -1.11173067836670
C           -3.04324723666776        1.21138513779011        0.62146321857723
O           -1.95925901308916        1.36149769941963        1.50978949610976
O           -3.22534857501057       -2.49940520768743        0.44494825329566
H            4.29742124984196        2.75094548244675       -0.52183322407020
H            5.64186060596574        1.62803979954672       -0.53643343985658
H           -0.54093048447176        2.07691535302715       -0.60792277262695
H           -0.49671727804657       -1.57177416328335       -1.36361940870274
H           -0.64591748254253       -0.70202758108423        1.50647343958902
H           -0.69179811395025       -2.36152285916313        0.86716025537158
H           -2.95445665899211       -1.11399339378898        1.84953770559270
H           -3.89911653106655       -0.30558599194723       -0.62355660398507
H           -3.05048557765321        2.01062903443616       -0.13194296134941
H           -3.99633004521453        1.23402104567090        1.16740456881291
H           -2.02045336552932        2.22045387677850        1.94073631482331
H           -2.95306313728108       -2.71914000494400       -0.45447906389375

 Bond Distances (Angstroems)
 ---------------------------
N1-C2=1.3404         N1-H20=1.0031        N1-H21=1.0042        C2-N1=1.3404         C2-N3=1.3362         C2-C8=1.4063         
N3-C2=1.3362         N3-C4=1.3195         C4-N3=1.3195         C4-Cl5=1.7053        C4-N6=1.3157         Cl5-C4=1.7053        
N6-C4=1.3157         N6-C7=1.3352         C7-N6=1.3352         C7-C8=1.4054         C7-N11=1.3605        C8-C2=1.4063         
C8-C7=1.4054         C8-N9=1.3719         N9-C8=1.3719         N9-C10=1.2978        C10-N9=1.2978        C10-N11=1.3662       
C10-H22=1.0697       N11-C7=1.3605        N11-C10=1.3662       N11-C12=1.4464       C12-N11=1.4464       C12-C13=1.5389       
C12-O16=1.4023       C12-H23=1.1013       C13-C12=1.5389       C13-C14=1.5331       C13-H24=1.0885       C13-H25=1.0870       
C14-C13=1.5331       C14-C15=1.5412       C14-O19=1.4003       C14-H26=1.0905       C15-C14=1.5412       C15-O16=1.4216       
C15-C17=1.5348       C15-H27=1.0958       O16-C12=1.4023       O16-C15=1.4216       C17-C15=1.5348       C17-O18=1.4095       
C17-H28=1.0984       C17-H29=1.0986       O18-C17=1.4095       O18-H30=0.9629       O19-C14=1.4003       O19-H31=0.9651       
H20-N1=1.0031        H21-N1=1.0042        H22-C10=1.0697       H23-C12=1.1013       H24-C13=1.0885       H25-C13=1.0870       
H26-C14=1.0905       H27-C15=1.0958       H28-C17=1.0984       H29-C17=1.0986       H30-O18=0.9629       H31-O19=0.9651       
 C  H  Rav=1.0912 sigma=0.0095  Rmin=1.0697  Rmax=1.1013     8
 C  C  Rav=1.4933 sigma=0.0619  Rmin=1.4054  Rmax=1.5412     6
 N  H  Rav=1.0037 sigma=0.0005  Rmin=1.0031  Rmax=1.0042     2
 N  C  Rav=1.3490 sigma=0.0393  Rmin=1.2978  Rmax=1.4464    10
 O  H  Rav=0.9640 sigma=0.0011  Rmin=0.9629  Rmax=0.9651     2
 O  C  Rav=1.4084 sigma=0.0084  Rmin=1.4003  Rmax=1.4216     4
 Cl C  Rav=1.7053 sigma=0.0000  Rmin=1.7053  Rmax=1.7053     1

 selected bond angles (degree)
 --------------------
H20-N1-C2=119.35               H21-N1-C2=119.00               H21-N1-H20=121.54              N3-C2-N1=118.40                
C8-C2-N1=123.50                C8-C2-N3=118.10                C4-N3-C2=119.07                Cl5-C4-N3=115.09               
N6-C4-N3=129.29                N6-C4-Cl5=115.62               C7-N6-C4=111.90                C8-C7-N6=125.40                
N11-C7-N6=128.58               N11-C7-C8=106.02               C7-C8-C2=116.24                N9-C8-C2=134.43                
N9-C8-C7=109.33                C10-N9-C8=104.94               N11-C10-N9=114.05              H22-C10-N9=124.16              
H22-C10-N11=121.78             

 selected dihedral angles (degree)
 ---------------------------------
N3-C2-N1-H20=178.08           N3-C2-N1-H21=  1.80           C8-C2-N1-H20=357.81           C8-C2-N1-H21=181.53           
C4-N3-C2-N1=179.69            C4-N3-C2-C8=359.95            Cl5-C4-N3-C2=179.90           N6-C4-N3-C2=359.92            
C7-N6-C4-N3=  0.16            C7-N6-C4-Cl5=180.18           C8-C7-N6-C4=359.89            N11-C7-N6-C4=179.53           
C7-C8-C2-N1=180.35            C7-C8-C2-N3=  0.09            N9-C8-C2-N1=  0.96            N9-C8-C2-N3=180.69            
C2-C8-C7-N6=  0.00            C2-C8-C7-N11=180.29           N9-C8-C7-N6=179.54            N9-C8-C7-N11=359.83           
C10-N9-C8-C2=179.60           C10-N9-C8-C7=  0.18           N11-C10-N9-C8=359.87          H22-C10-N9-C8=181.03          
           -------------------------------------------------
          |                Final Singlepoint                |
           -------------------------------------------------

          ...................................................
          :                      SETUP                      :
          :.................................................:
          :  # basis functions                  94          :
          :  # atomic orbitals                  93          :
          :  # shells                           51          :
          :  # electrons                       102          :
          :  max. iterations                   250          :
          :  Hamiltonian                  GFN2-xTB          :
          :  restarted?                      false          :
          :  GBSA solvation                  false          :
          :  PC potential                    false          :
          :  electronic temp.          300.0000000     K    :
          :  accuracy                    1.0000000          :
          :  -> integral cutoff          0.2500000E+02      :
          :  -> integral neglect         0.1000000E-07      :
          :  -> SCF convergence          0.1000000E-05 Eh   :
          :  -> wf. convergence          0.1000000E-03 e    :
          :  Broyden damping             0.4000000          :
          :  net charge                          0          :
          :  unpaired electrons                  0          :
          ...................................................

 iter      E             dE          RMSdq      gap      omega  full diag
   1    -59.5639250 -0.595639E+02  0.176E-04    3.26       0.0  T
   2    -59.5639250 -0.123336E-09  0.118E-04    3.26     152.0  T
   3    -59.5639250 -0.469953E-10  0.829E-05    3.26     216.7  T

   *** convergence criteria satisfied after 3 iterations ***

         #    Occupation            Energy/Eh            Energy/eV
      -------------------------------------------------------------
         1        2.0000           -1.0485390             -28.5322
       ...           ...                  ...                  ...
        45        2.0000           -0.4251133             -11.5679
        46        2.0000           -0.4207522             -11.4492
        47        2.0000           -0.4173026             -11.3554
        48        2.0000           -0.4148851             -11.2896
        49        2.0000           -0.3997441             -10.8776
        50        2.0000           -0.3868222             -10.5260
        51        2.0000           -0.3757487             -10.2246 (HOMO)
        52                         -0.2558326              -6.9616 (LUMO)
        53                         -0.2331355              -6.3439
        54                         -0.1988282              -5.4104
        55                         -0.1312829              -3.5724
        56                         -0.1051272              -2.8607
       ...                                ...                  ...
        93                          0.6526997              17.7609
      -------------------------------------------------------------
                  HL-Gap            0.1199161 Eh            3.2631 eV
             Fermi-level           -0.3157907 Eh           -8.5931 eV

 SCC (total)                   0 d,  0 h,  0 min,  0.039 sec
 SCC setup                      ...        0 min,  0.000 sec (  0.536%)
 Dispersion                     ...        0 min,  0.000 sec (  0.433%)
 classical contributions        ...        0 min,  0.000 sec (  0.203%)
 integral evaluation            ...        0 min,  0.019 sec ( 47.748%)
 iterations                     ...        0 min,  0.004 sec ( 11.339%)
 molecular gradient             ...        0 min,  0.015 sec ( 39.448%)
 printout                       ...        0 min,  0.000 sec (  0.274%)

         :::::::::::::::::::::::::::::::::::::::::::::::::::::
         ::                     SUMMARY                     ::
         :::::::::::::::::::::::::::::::::::::::::::::::::::::
         :: total energy             -58.962083897147 Eh    ::
         :: gradient norm              0.000617616765 Eh/a0 ::
         :: HOMO-LUMO gap              3.263083355696 eV    ::
         ::.................................................::
         :: SCC energy               -59.563771072663 Eh    ::
         :: -> isotropic ES            0.113888421783 Eh    ::
         :: -> anisotropic ES          0.000505364166 Eh    ::
         :: -> anisotropic XC          0.017472958979 Eh    ::
         :: -> dispersion             -0.034270873562 Eh    ::
         :: repulsion energy           0.601687175516 Eh    ::
         :: add. restraining           0.000000000000 Eh    ::
         :: total charge              -0.000000000000 e     ::
         :::::::::::::::::::::::::::::::::::::::::::::::::::::

           -------------------------------------------------
          |                Property Printout                |
           -------------------------------------------------

    * Orbital Energies and Occupations

         #    Occupation            Energy/Eh            Energy/eV
      -------------------------------------------------------------
         1        2.0000           -1.0485390             -28.5322
       ...           ...                  ...                  ...
        39        2.0000           -0.4702383             -12.7958
        40        2.0000           -0.4685311             -12.7494
        41        2.0000           -0.4505098             -12.2590
        42        2.0000           -0.4463037             -12.1445
        43        2.0000           -0.4369171             -11.8891
        44        2.0000           -0.4290231             -11.6743
        45        2.0000           -0.4251133             -11.5679
        46        2.0000           -0.4207522             -11.4492
        47        2.0000           -0.4173026             -11.3554
        48        2.0000           -0.4148851             -11.2896
        49        2.0000           -0.3997441             -10.8776
        50        2.0000           -0.3868222             -10.5260
        51        2.0000           -0.3757487             -10.2246 (HOMO)
        52                         -0.2558326              -6.9616 (LUMO)
        53                         -0.2331355              -6.3439
        54                         -0.1988282              -5.4104
        55                         -0.1312829              -3.5724
        56                         -0.1051272              -2.8607
        57                         -0.0255805              -0.6961
        58                         -0.0091968              -0.2503
        59                          0.0043701               0.1189
        60                          0.0097097               0.2642
        61                          0.0210304               0.5723
        62                          0.0237501               0.6463
       ...                                ...                  ...
        93                          0.6526997              17.7609
      -------------------------------------------------------------
                  HL-Gap            0.1199161 Eh            3.2631 eV
             Fermi-level           -0.3157907 Eh           -8.5931 eV

     #   Z          covCN         q      C6AA      α(0)
     1   7 N        2.647    -0.233    26.098     7.587
     2   6 C        2.882     0.173    24.286     8.079
     3   7 N        1.928    -0.306    28.776     7.954
     4   6 C        2.920     0.264    22.560     7.789
     5  17 Cl       1.051    -0.127   103.145    15.538
     6   7 N        1.907    -0.314    28.995     7.983
     7   6 C        3.184     0.133    24.681     8.107
     8   6 C        3.221     0.009    27.080     8.460
     9   7 N        1.885    -0.276    28.016     7.847
    10   6 C        3.186     0.110    25.155     8.184
    11   7 N        2.827    -0.058    22.364     7.024
    12   6 C        3.716     0.180    17.834     6.033
    13   6 C        3.820    -0.089    22.177     6.702
    14   6 C        3.740     0.110    18.854     6.195
    15   6 C        3.780     0.093    19.059     6.219
    16   8 O        1.702    -0.317    19.296     5.931
    17   6 C        3.673     0.073    19.581     6.342
    18   8 O        1.655    -0.440    21.642     6.280
    19   8 O        1.656    -0.433    21.507     6.260
    20   1 H        0.861     0.202     1.098     1.641
    21   1 H        0.860     0.203     1.092     1.637
    22   1 H        0.927     0.062     2.174     2.305
    23   1 H        0.923     0.055     2.259     2.350
    24   1 H        0.925     0.074     2.047     2.237
    25   1 H        0.925     0.069     2.095     2.264
    26   1 H        0.924     0.065     2.145     2.291
    27   1 H        0.924     0.055     2.257     2.349
    28   1 H        0.923     0.037     2.484     2.465
    29   1 H        0.923     0.030     2.587     2.515
    30   1 H        0.805     0.298     0.726     1.339
    31   1 H        0.805     0.299     0.724     1.337

 Mol. C6AA /au·bohr⁶  :      12595.830723
 Mol. C8AA /au·bohr⁸  :     307956.444951
 Mol. α(0) /au        :        169.244879


Wiberg/Mayer (AO) data.
largest (>0.10) Wiberg bond orders for each atom

 ---------------------------------------------------------------------------
     #   Z sym  total        # sym  WBO       # sym  WBO       # sym  WBO
 ---------------------------------------------------------------------------
     1   7 N    3.397 --     2 C    1.276    20 H    0.943    21 H    0.940
     2   6 C    3.971 --     3 N    1.320     1 N    1.276     8 C    1.222
     3   7 N    3.034 --     4 C    1.385     2 C    1.320
     4   6 C    3.937 --     6 N    1.420     3 N    1.385     5 Cl   0.993
     5  17 Cl   1.157 --     4 C    0.993
     6   7 N    3.024 --     4 C    1.420     7 C    1.281
     7   6 C    3.958 --     6 N    1.281     8 C    1.271    11 N    1.178
     8   6 C    3.972 --     7 C    1.271     2 C    1.222     9 N    1.210
     9   7 N    3.019 --    10 C    1.595     8 C    1.210    11 N    0.104
    10   6 C    3.949 --     9 N    1.595    11 N    1.203    22 H    0.960
    11   7 N    3.610 --    10 C    1.203     7 C    1.178    12 C    0.959
                             9 N    0.104
    12   6 C    3.940 --    16 O    0.992    13 C    0.972    11 N    0.959
                            23 H    0.951
    13   6 C    3.989 --    14 C    0.984    25 H    0.974    12 C    0.972
                            24 H    0.971
    14   6 C    3.959 --    19 O    1.007    13 C    0.984    15 C    0.962
                            26 H    0.961
    15   6 C    3.947 --    17 C    0.983    16 O    0.964    14 C    0.962
                            27 H    0.959
    16   8 O    2.092 --    12 C    0.992    15 C    0.964
    17   6 C    3.961 --    18 O    1.000    15 C    0.983    29 H    0.969
                            28 H    0.968
    18   8 O    1.955 --    17 C    1.000    30 H    0.896
    19   8 O    1.980 --    14 C    1.007    31 H    0.894
    20   1 H    0.959 --     1 N    0.943
    21   1 H    0.958 --     1 N    0.940
    22   1 H    0.995 --    10 C    0.960
    23   1 H    0.997 --    12 C    0.951
    24   1 H    0.995 --    13 C    0.971
    25   1 H    0.995 --    13 C    0.974
    26   1 H    0.995 --    14 C    0.961
    27   1 H    0.997 --    15 C    0.959
    28   1 H    0.999 --    17 C    0.968
    29   1 H    0.999 --    17 C    0.969
    30   1 H    0.911 --    18 O    0.896
    31   1 H    0.911 --    19 O    0.894
 ---------------------------------------------------------------------------

Topologies differ in total number of bonds
Writing topology from bond orders to xtbtopo.mol

molecular dipole:
                 x           y           z       tot (Debye)
 q only:       -0.815       1.732       0.393
   full:       -1.166       2.103       0.285       6.155
molecular quadrupole (traceless):
                xx          xy          yy          xz          yz          zz
 q only:        5.933      14.003      -2.019       0.525       2.912      -3.914
  q+dip:        3.468      13.029      -3.875       1.038       5.184       0.406
   full:        2.445      12.566      -4.578       1.203       5.221       2.133

           -------------------------------------------------
          |                Geometry Summary                 |
           -------------------------------------------------

      molecular mass/u    :      285.6873164
   center of mass at/Å    :        0.7724714      -0.3722979      -0.2353479
  moments of inertia/u·Å² :        0.8123843E+03   0.2420595E+04   0.3046705E+04
rotational constants/cm⁻¹ :        0.2075081E-01   0.6964252E-02   0.5533070E-02

 * 33 selected distances

     #   Z          #   Z                                           value/Å
     1   7 N        2   6 C                                       1.3403519
     2   6 C        3   7 N                                       1.3361522
     3   7 N        4   6 C                                       1.3194613
     4   6 C        5  17 Cl                                      1.7052824 (max)
     4   6 C        6   7 N                                       1.3157087
     6   7 N        7   6 C                                       1.3351942
     2   6 C        8   6 C                                       1.4063201
     7   6 C        8   6 C                                       1.4053664
     8   6 C        9   7 N                                       1.3719177
     9   7 N       10   6 C                                       1.2977525
     7   6 C       11   7 N                                       1.3605209
    10   6 C       11   7 N                                       1.3661674
    11   7 N       12   6 C                                       1.4463896
    12   6 C       13   6 C                                       1.5389004
    13   6 C       14   6 C                                       1.5330803
    14   6 C       15   6 C                                       1.5412433
    12   6 C       16   8 O                                       1.4023460
    15   6 C       16   8 O                                       1.4216438
    15   6 C       17   6 C                                       1.5347747
    17   6 C       18   8 O                                       1.4094993
    14   6 C       19   8 O                                       1.4002764
     1   7 N       20   1 H                                       1.0031439
     1   7 N       21   1 H                                       1.0042211
    10   6 C       22   1 H                                       1.0697157
    12   6 C       23   1 H                                       1.1012962
    13   6 C       24   1 H                                       1.0884804
    13   6 C       25   1 H                                       1.0870283
    14   6 C       26   1 H                                       1.0904654
    15   6 C       27   1 H                                       1.0957603
    17   6 C       28   1 H                                       1.0983917
    17   6 C       29   1 H                                       1.0986043
    18   8 O       30   1 H                                       0.9629464 (min)
    19   8 O       31   1 H                                       0.9650867

 * 7 distinct bonds (by element types)

   Z      Z             #   av. dist./Å        max./Å        min./Å
   1 H    6 C           8     1.0912178     1.1012962     1.0697157
   6 C    6 C           6     1.4932809     1.5412433     1.4053664
   1 H    7 N           2     1.0036825     1.0042211     1.0031439
   6 C    7 N          10     1.3489616     1.4463896     1.2977525
   1 H    8 O           2     0.9640166     0.9650867     0.9629464
   6 C    8 O           4     1.4084414     1.4216438     1.4002764
   6 C   17 Cl          1     1.7052824     1.7052824     1.7052824


optimized geometry written to: xtbopt.xyz


           -------------------------------------------------
          | TOTAL ENERGY              -58.962083897147 Eh   |
          | GRADIENT NORM               0.000617616765 Eh/α |
          | HOMO-LUMO GAP               3.263083355696 eV   |
           -------------------------------------------------

------------------------------------------------------------------------
 * finished run on 2025/05/15 at 16:22:25.708     
------------------------------------------------------------------------
 total:
 * wall-time:     0 d,  0 h,  0 min,  1.094 sec
 *  cpu-time:     0 d,  0 h,  0 min,  0.753 sec
 * ratio c/w:     0.688 speedup
 SCF:
 * wall-time:     0 d,  0 h,  0 min,  0.077 sec
 *  cpu-time:     0 d,  0 h,  0 min,  0.043 sec
 * ratio c/w:     0.560 speedup
 ANC optimizer:
 * wall-time:     0 d,  0 h,  0 min,  1.006 sec
 *  cpu-time:     0 d,  0 h,  0 min,  0.700 sec
 * ratio c/w:     0.695 speedup



----- Single-point -----
      -----------------------------------------------------------      
     |                   =====================                   |     
     |                           x T B                           |     
     |                   =====================                   |     
     |                         S. Grimme                         |     
     |          Mulliken Center for Theoretical Chemistry        |     
     |                    University of Bonn                     |     
      -----------------------------------------------------------      

   * xtb version 6.7.1 (edcfbbe) compiled by 'conda@3ef47c1a292c' on 2024-11-25

   xtb is free software: you can redistribute it and/or modify it under
   the terms of the GNU Lesser General Public License as published by
   the Free Software Foundation, either version 3 of the License, or
   (at your option) any later version.
   
   xtb is distributed in the hope that it will be useful,
   but WITHOUT ANY WARRANTY; without even the implied warranty of
   MERCHANTABILITY or FITNESS FOR A PARTICULAR PURPOSE.  See the
   GNU Lesser General Public License for more details.
   
   Cite this work as:
   * C. Bannwarth, E. Caldeweyher, S. Ehlert, A. Hansen, P. Pracht,
     J. Seibert, S. Spicher, S. Grimme, WIREs Comput. Mol. Sci., 2020, 11,
     e01493. DOI: 10.1002/wcms.1493
   
   for GFN2-xTB:
   * C. Bannwarth, S. Ehlert and S. Grimme., J. Chem. Theory Comput., 2019,
     15, 1652-1671. DOI: 10.1021/acs.jctc.8b01176
   for GFN1-xTB:
   * S. Grimme, C. Bannwarth, P. Shushkov, J. Chem. Theory Comput., 2017,
     13, 1989-2009. DOI: 10.1021/acs.jctc.7b00118
   for GFN0-xTB:
   * P. Pracht, E. Caldeweyher, S. Ehlert, S. Grimme, ChemRxiv, 2019, preprint.
     DOI: 10.26434/chemrxiv.8326202.v1
   for GFN-FF:
   * S. Spicher and S. Grimme, Angew. Chem. Int. Ed., 2020, 59, 15665-15673.
     DOI: 10.1002/anie.202004239
   
   for ALPB and GBSA implicit solvation:
   * S. Ehlert, M. Stahn, S. Spicher, S. Grimme, J. Chem. Theory Comput.,
     2021, 17, 4250-4261. DOI: 10.1021/acs.jctc.1c00471
   
   for ddCOSMO and CPCM-X implicit solvation:
   * M. Stahn, S. Ehlert, S. Grimme, J. Phys. Chem. A,
     2023, XX, XXXX-XXXX. DOI: 10.1021/acs.jpca.3c04382
   
   for DFT-D4:
   * E. Caldeweyher, C. Bannwarth and S. Grimme, J. Chem. Phys., 2017,
     147, 034112. DOI: 10.1063/1.4993215
   * E. Caldeweyher, S. Ehlert, A. Hansen, H. Neugebauer, S. Spicher,
     C. Bannwarth and S. Grimme, J. Chem. Phys., 2019, 150, 154122.
     DOI: 10.1063/1.5090222
   * E. Caldeweyher, J.-M. Mewes, S. Ehlert and S. Grimme, Phys. Chem. Chem. Phys.
     2020, 22, 8499-8512. DOI: 10.1039/D0CP00502A
   
   for sTDA-xTB:
   * S. Grimme and C. Bannwarth, J. Chem. Phys., 2016, 145, 054103.
     DOI: 10.1063/1.4959605
   
   in the mass-spec context:
   * V. Asgeirsson, C. Bauer and S. Grimme, Chem. Sci., 2017, 8, 4879.
     DOI: 10.1039/c7sc00601b
   * J. Koopman and S. Grimme, ACS Omega 2019, 4, 12, 15120-15133.
     DOI: 10.1021/acsomega.9b02011
   
   for metadynamics refer to:
   * S. Grimme, J. Chem. Theory Comput., 2019, 155, 2847-2862
     DOI: 10.1021/acs.jctc.9b00143
   
   for SPH calculations refer to:
   * S. Spicher and S. Grimme, J. Chem. Theory Comput., 2021, 17, 1701-1714
     DOI: 10.1021/acs.jctc.0c01306
   
   for ONIOM refer to:
   * C. Plett, A. Katbashev, S. Ehlert, S. Grimme, M. Bursch,
     Phys. Chem. Chem. Phys., 2023, 25, 17860-17868. DOI: 10.1039/D3CP02178E
   
   for DIPRO refer to:
   * J. Kohn, N. Gildemeister, S. Grimme, D. Fazzi, A. Hansen,
     J. Chem. Phys., 2023, just accepted.
   
   for PTB refer to:
   * S. Grimme, M. Mueller, A. Hansen, J. Chem. Phys., 2023, 158, 124111.
     DOI: 10.1063/5.0137838
   
   with help from (in alphabetical order)
   P. Atkinson, C. Bannwarth, F. Bohle, G. Brandenburg, E. Caldeweyher
   M. Checinski, S. Dohm, S. Ehlert, S. Ehrlich, I. Gerasimov, C. Hölzer
   A. Katbashev, J. Kohn, J. Koopman, C. Lavigne, S. Lehtola, F. März, M. Müller,
   F. Musil, H. Neugebauer, J. Pisarek, C. Plett, P. Pracht, F. Pultar,
   J. Seibert, P. Shushkov, S. Spicher, M. Stahn, M. Steiner, T. Strunk,
   J. Stückrath, T. Rose, and J. Unsleber
   
 * started run on 2025/05/15 at 16:22:25.750     
   ID    Z sym.   atoms
    1    7 N      1, 3, 6, 9, 11
    2    6 C      2, 4, 7, 8, 10, 12-15, 17
    3   17 Cl     5
    4    8 O      16, 18, 19
    5    1 H      20-31

           -------------------------------------------------
          |                Calculation Setup                |
           -------------------------------------------------

          program call               : xtb /rds/general/user/hgt20/home/callum/QDESCP/Cladribine_rdkit_conf_11/Cladribine_rdkit_conf_11.xyz --acc 1 --gfn 2 --chrg 0 --uhf 0 --etemp 300 --input /rds/general/user/hgt20/home/callum/QDESCP/Cladribine_rdkit_conf_11/Cladribine_rdkit_conf_11_xtb.inp -P 1
          hostname                   : login-c
          coordinate file            : /rds/general/user/hgt20/home/callum/QDESCP/Cladribine_rdkit_conf_11/Cladribine_rdkit_conf_11.xyz
          omp threads                :                     1


           -------------------------------------------------
          |                 G F N 2 - x T B                 |
           -------------------------------------------------

        Reference                      10.1021/acs.jctc.8b01176
      * Hamiltonian:
        H0-scaling (s, p, d)           1.850000    2.230000    2.230000
        zeta-weighting                 0.500000
      * Dispersion:
        s8                             2.700000
        a1                             0.520000
        a2                             5.000000
        s9                             5.000000
      * Repulsion:
        kExp                           1.500000    1.000000
        rExp                           1.000000
      * Coulomb:
        alpha                          2.000000
        third order                    shell-resolved
        anisotropic                    true
        a3                             3.000000
        a5                             4.000000
        cn-shift                       1.200000
        cn-exp                         4.000000
        max-rad                        5.000000

q/qsh data taken from xtbrestart
CAMM data taken from xtbrestart

          ...................................................
          :                      SETUP                      :
          :.................................................:
          :  # basis functions                  94          :
          :  # atomic orbitals                  93          :
          :  # shells                           51          :
          :  # electrons                       102          :
          :  max. iterations                   250          :
          :  Hamiltonian                  GFN2-xTB          :
          :  restarted?                       true          :
          :  GBSA solvation                  false          :
          :  PC potential                    false          :
          :  electronic temp.          300.0000000     K    :
          :  accuracy                    1.0000000          :
          :  -> integral cutoff          0.2500000E+02      :
          :  -> integral neglect         0.1000000E-07      :
          :  -> SCF convergence          0.1000000E-05 Eh   :
          :  -> wf. convergence          0.1000000E-03 e    :
          :  Broyden damping             0.4000000          :
          :  net charge                          0          :
          :  unpaired electrons                  0          :
          ...................................................

 iter      E             dE          RMSdq      gap      omega  full diag
   1    -59.5639250 -0.595639E+02  0.373E-05    3.26       0.0  T
   2    -59.5639250 -0.664357E-11  0.318E-05    3.26     565.6  T
   3    -59.5639250 -0.613909E-11  0.243E-05    3.26     740.1  T

   *** convergence criteria satisfied after 3 iterations ***

         #    Occupation            Energy/Eh            Energy/eV
      -------------------------------------------------------------
         1        2.0000           -1.0485390             -28.5322
       ...           ...                  ...                  ...
        45        2.0000           -0.4251130             -11.5679
        46        2.0000           -0.4207519             -11.4492
        47        2.0000           -0.4173023             -11.3554
        48        2.0000           -0.4148846             -11.2896
        49        2.0000           -0.3997434             -10.8776
        50        2.0000           -0.3868216             -10.5260
        51        2.0000           -0.3757483             -10.2246 (HOMO)
        52                         -0.2558321              -6.9615 (LUMO)
        53                         -0.2331351              -6.3439
        54                         -0.1988280              -5.4104
        55                         -0.1312817              -3.5724
        56                         -0.1051265              -2.8606
       ...                                ...                  ...
        93                          0.6527002              17.7609
      -------------------------------------------------------------
                  HL-Gap            0.1199162 Eh            3.2631 eV
             Fermi-level           -0.3157902 Eh           -8.5931 eV

 SCC (total)                   0 d,  0 h,  0 min,  0.045 sec
 SCC setup                      ...        0 min,  0.000 sec (  0.537%)
 Dispersion                     ...        0 min,  0.000 sec (  0.600%)
 classical contributions        ...        0 min,  0.000 sec (  0.187%)
 integral evaluation            ...        0 min,  0.006 sec ( 12.944%)
 iterations                     ...        0 min,  0.023 sec ( 51.082%)
 molecular gradient             ...        0 min,  0.015 sec ( 34.246%)
 printout                       ...        0 min,  0.000 sec (  0.389%)

         :::::::::::::::::::::::::::::::::::::::::::::::::::::
         ::                     SUMMARY                     ::
         :::::::::::::::::::::::::::::::::::::::::::::::::::::
         :: total energy             -58.962083897234 Eh    ::
         :: gradient norm              0.000618200267 Eh/a0 ::
         :: HOMO-LUMO gap              3.263086537235 eV    ::
         ::.................................................::
         :: SCC energy               -59.563771072750 Eh    ::
         :: -> isotropic ES            0.113887948626 Eh    ::
         :: -> anisotropic ES          0.000505418802 Eh    ::
         :: -> anisotropic XC          0.017473379379 Eh    ::
         :: -> dispersion             -0.034270871186 Eh    ::
         :: repulsion energy           0.601687175516 Eh    ::
         :: add. restraining           0.000000000000 Eh    ::
         :: total charge               0.000000000000 e     ::
         :::::::::::::::::::::::::::::::::::::::::::::::::::::

           -------------------------------------------------
          |                Property Printout                |
           -------------------------------------------------

    * Orbital Energies and Occupations

         #    Occupation            Energy/Eh            Energy/eV
      -------------------------------------------------------------
         1        2.0000           -1.0485390             -28.5322
       ...           ...                  ...                  ...
        39        2.0000           -0.4702382             -12.7958
        40        2.0000           -0.4685310             -12.7494
        41        2.0000           -0.4505096             -12.2590
        42        2.0000           -0.4463036             -12.1445
        43        2.0000           -0.4369170             -11.8891
        44        2.0000           -0.4290228             -11.6743
        45        2.0000           -0.4251130             -11.5679
        46        2.0000           -0.4207519             -11.4492
        47        2.0000           -0.4173023             -11.3554
        48        2.0000           -0.4148846             -11.2896
        49        2.0000           -0.3997434             -10.8776
        50        2.0000           -0.3868216             -10.5260
        51        2.0000           -0.3757483             -10.2246 (HOMO)
        52                         -0.2558321              -6.9615 (LUMO)
        53                         -0.2331351              -6.3439
        54                         -0.1988280              -5.4104
        55                         -0.1312817              -3.5724
        56                         -0.1051265              -2.8606
        57                         -0.0255804              -0.6961
        58                         -0.0091968              -0.2503
        59                          0.0043707               0.1189
        60                          0.0097099               0.2642
        61                          0.0210305               0.5723
        62                          0.0237502               0.6463
       ...                                ...                  ...
        93                          0.6527002              17.7609
      -------------------------------------------------------------
                  HL-Gap            0.1199162 Eh            3.2631 eV
             Fermi-level           -0.3157902 Eh           -8.5931 eV

     #   Z          covCN         q      C6AA      α(0)
     1   7 N        2.647    -0.233    26.098     7.587
     2   6 C        2.882     0.173    24.286     8.079
     3   7 N        1.928    -0.306    28.776     7.954
     4   6 C        2.920     0.264    22.560     7.789
     5  17 Cl       1.051    -0.127   103.146    15.538
     6   7 N        1.907    -0.314    28.995     7.983
     7   6 C        3.184     0.133    24.681     8.107
     8   6 C        3.221     0.009    27.080     8.460
     9   7 N        1.885    -0.276    28.016     7.847
    10   6 C        3.186     0.110    25.155     8.184
    11   7 N        2.827    -0.058    22.364     7.024
    12   6 C        3.716     0.180    17.834     6.033
    13   6 C        3.820    -0.089    22.177     6.702
    14   6 C        3.740     0.110    18.854     6.195
    15   6 C        3.780     0.093    19.059     6.219
    16   8 O        1.702    -0.317    19.296     5.931
    17   6 C        3.673     0.073    19.581     6.342
    18   8 O        1.655    -0.440    21.642     6.280
    19   8 O        1.656    -0.433    21.507     6.260
    20   1 H        0.861     0.202     1.098     1.641
    21   1 H        0.860     0.203     1.092     1.637
    22   1 H        0.927     0.062     2.174     2.305
    23   1 H        0.923     0.055     2.259     2.350
    24   1 H        0.925     0.074     2.047     2.237
    25   1 H        0.925     0.069     2.096     2.264
    26   1 H        0.924     0.065     2.145     2.291
    27   1 H        0.924     0.055     2.257     2.349
    28   1 H        0.923     0.037     2.484     2.465
    29   1 H        0.923     0.030     2.587     2.515
    30   1 H        0.805     0.298     0.726     1.339
    31   1 H        0.805     0.299     0.724     1.337

 Mol. C6AA /au·bohr⁶  :      12595.829330
 Mol. C8AA /au·bohr⁸  :     307956.428404
 Mol. α(0) /au        :        169.244871


Wiberg/Mayer (AO) data.
largest (>0.10) Wiberg bond orders for each atom

 ---------------------------------------------------------------------------
     #   Z sym  total        # sym  WBO       # sym  WBO       # sym  WBO
 ---------------------------------------------------------------------------
     1   7 N    3.397 --     2 C    1.276    20 H    0.943    21 H    0.940
     2   6 C    3.971 --     3 N    1.320     1 N    1.276     8 C    1.222
     3   7 N    3.034 --     4 C    1.385     2 C    1.320
     4   6 C    3.937 --     6 N    1.420     3 N    1.385     5 Cl   0.993
     5  17 Cl   1.157 --     4 C    0.993
     6   7 N    3.024 --     4 C    1.420     7 C    1.281
     7   6 C    3.958 --     6 N    1.281     8 C    1.271    11 N    1.178
     8   6 C    3.972 --     7 C    1.271     2 C    1.222     9 N    1.210
     9   7 N    3.019 --    10 C    1.595     8 C    1.210    11 N    0.104
    10   6 C    3.949 --     9 N    1.595    11 N    1.203    22 H    0.960
    11   7 N    3.610 --    10 C    1.203     7 C    1.178    12 C    0.959
                             9 N    0.104
    12   6 C    3.940 --    16 O    0.992    13 C    0.972    11 N    0.959
                            23 H    0.951
    13   6 C    3.989 --    14 C    0.984    25 H    0.974    12 C    0.972
                            24 H    0.971
    14   6 C    3.959 --    19 O    1.007    13 C    0.984    15 C    0.962
                            26 H    0.961
    15   6 C    3.947 --    17 C    0.983    16 O    0.964    14 C    0.962
                            27 H    0.959
    16   8 O    2.092 --    12 C    0.992    15 C    0.964
    17   6 C    3.961 --    18 O    1.000    15 C    0.983    29 H    0.969
                            28 H    0.968
    18   8 O    1.955 --    17 C    1.000    30 H    0.896
    19   8 O    1.980 --    14 C    1.007    31 H    0.894
    20   1 H    0.959 --     1 N    0.943
    21   1 H    0.958 --     1 N    0.940
    22   1 H    0.995 --    10 C    0.960
    23   1 H    0.997 --    12 C    0.951
    24   1 H    0.995 --    13 C    0.971
    25   1 H    0.995 --    13 C    0.974
    26   1 H    0.995 --    14 C    0.961
    27   1 H    0.997 --    15 C    0.959
    28   1 H    0.999 --    17 C    0.968
    29   1 H    0.999 --    17 C    0.969
    30   1 H    0.911 --    18 O    0.896
    31   1 H    0.911 --    19 O    0.894
 ---------------------------------------------------------------------------

Topologies differ in total number of bonds
Writing topology from bond orders to xtbtopo.mol

[...]
     |                    University of Bonn                     |     
      -----------------------------------------------------------      

   * xtb version 6.7.1 (edcfbbe) compiled by 'conda@3ef47c1a292c' on 2024-11-25

   xtb is free software: you can redistribute it and/or modify it under
   the terms of the GNU Lesser General Public License as published by
   the Free Software Foundation, either version 3 of the License, or
   (at your option) any later version.
   
   xtb is distributed in the hope that it will be useful,
   but WITHOUT ANY WARRANTY; without even the implied warranty of
   MERCHANTABILITY or FITNESS FOR A PARTICULAR PURPOSE.  See the
   GNU Lesser General Public License for more details.
   
   Cite this work as:
   * C. Bannwarth, E. Caldeweyher, S. Ehlert, A. Hansen, P. Pracht,
     J. Seibert, S. Spicher, S. Grimme, WIREs Comput. Mol. Sci., 2020, 11,
     e01493. DOI: 10.1002/wcms.1493
   
   for GFN2-xTB:
   * C. Bannwarth, S. Ehlert and S. Grimme., J. Chem. Theory Comput., 2019,
     15, 1652-1671. DOI: 10.1021/acs.jctc.8b01176
   for GFN1-xTB:
   * S. Grimme, C. Bannwarth, P. Shushkov, J. Chem. Theory Comput., 2017,
     13, 1989-2009. DOI: 10.1021/acs.jctc.7b00118
   for GFN0-xTB:
   * P. Pracht, E. Caldeweyher, S. Ehlert, S. Grimme, ChemRxiv, 2019, preprint.
     DOI: 10.26434/chemrxiv.8326202.v1
   for GFN-FF:
   * S. Spicher and S. Grimme, Angew. Chem. Int. Ed., 2020, 59, 15665-15673.
     DOI: 10.1002/anie.202004239
   
   for ALPB and GBSA implicit solvation:
   * S. Ehlert, M. Stahn, S. Spicher, S. Grimme, J. Chem. Theory Comput.,
     2021, 17, 4250-4261. DOI: 10.1021/acs.jctc.1c00471
   
   for ddCOSMO and CPCM-X implicit solvation:
   * M. Stahn, S. Ehlert, S. Grimme, J. Phys. Chem. A,
     2023, XX, XXXX-XXXX. DOI: 10.1021/acs.jpca.3c04382
   
   for DFT-D4:
   * E. Caldeweyher, C. Bannwarth and S. Grimme, J. Chem. Phys., 2017,
     147, 034112. DOI: 10.1063/1.4993215
   * E. Caldeweyher, S. Ehlert, A. Hansen, H. Neugebauer, S. Spicher,
     C. Bannwarth and S. Grimme, J. Chem. Phys., 2019, 150, 154122.
     DOI: 10.1063/1.5090222
   * E. Caldeweyher, J.-M. Mewes, S. Ehlert and S. Grimme, Phys. Chem. Chem. Phys.
     2020, 22, 8499-8512. DOI: 10.1039/D0CP00502A
   
   for sTDA-xTB:
   * S. Grimme and C. Bannwarth, J. Chem. Phys., 2016, 145, 054103.
     DOI: 10.1063/1.4959605
   
   in the mass-spec context:
   * V. Asgeirsson, C. Bauer and S. Grimme, Chem. Sci., 2017, 8, 4879.
     DOI: 10.1039/c7sc00601b
   * J. Koopman and S. Grimme, ACS Omega 2019, 4, 12, 15120-15133.
     DOI: 10.1021/acsomega.9b02011
   
   for metadynamics refer to:
   * S. Grimme, J. Chem. Theory Comput., 2019, 155, 2847-2862
     DOI: 10.1021/acs.jctc.9b00143
   
   for SPH calculations refer to:
   * S. Spicher and S. Grimme, J. Chem. Theory Comput., 2021, 17, 1701-1714
     DOI: 10.1021/acs.jctc.0c01306
   
   for ONIOM refer to:
   * C. Plett, A. Katbashev, S. Ehlert, S. Grimme, M. Bursch,
     Phys. Chem. Chem. Phys., 2023, 25, 17860-17868. DOI: 10.1039/D3CP02178E
   
   for DIPRO refer to:
   * J. Kohn, N. Gildemeister, S. Grimme, D. Fazzi, A. Hansen,
     J. Chem. Phys., 2023, just accepted.
   
   for PTB refer to:
   * S. Grimme, M. Mueller, A. Hansen, J. Chem. Phys., 2023, 158, 124111.
     DOI: 10.1063/5.0137838
   
   with help from (in alphabetical order)
   P. Atkinson, C. Bannwarth, F. Bohle, G. Brandenburg, E. Caldeweyher
   M. Checinski, S. Dohm, S. Ehlert, S. Ehrlich, I. Gerasimov, C. Hölzer
   A. Katbashev, J. Kohn, J. Koopman, C. Lavigne, S. Lehtola, F. März, M. Müller,
   F. Musil, H. Neugebauer, J. Pisarek, C. Plett, P. Pracht, F. Pultar,
   J. Seibert, P. Shushkov, S. Spicher, M. Stahn, M. Steiner, T. Strunk,
   J. Stückrath, T. Rose, and J. Unsleber
   
 * started run on 2025/05/15 at 16:22:27.233     
   ID    Z sym.   atoms
    1    7 N      1, 3, 6, 9, 11
    2    6 C      2, 4, 7, 8, 10, 12-15, 17
    3   17 Cl     5
    4    8 O      16, 18, 19
    5    1 H      20-31

           -------------------------------------------------
          |                Calculation Setup                |
           -------------------------------------------------

          program call               : xtb /rds/general/user/hgt20/home/callum/QDESCP/Cladribine_rdkit_conf_11/Cladribine_rdkit_conf_11.xyz --acc 1 --gfn 2 --chrg 0 --uhf 2 --etemp 300 --input /rds/general/user/hgt20/home/callum/QDESCP/Cladribine_rdkit_conf_11/Cladribine_rdkit_conf_11_xtb.inp -P 1
          hostname                   : login-c
          coordinate file            : /rds/general/user/hgt20/home/callum/QDESCP/Cladribine_rdkit_conf_11/Cladribine_rdkit_conf_11.xyz
          omp threads                :                     1


           -------------------------------------------------
          |                 G F N 2 - x T B                 |
           -------------------------------------------------

        Reference                      10.1021/acs.jctc.8b01176
      * Hamiltonian:
        H0-scaling (s, p, d)           1.850000    2.230000    2.230000
        zeta-weighting                 0.500000
      * Dispersion:
        s8                             2.700000
        a1                             0.520000
        a2                             5.000000
        s9                             5.000000
      * Repulsion:
        kExp                           1.500000    1.000000
        rExp                           1.000000
      * Coulomb:
        alpha                          2.000000
        third order                    shell-resolved
        anisotropic                    true
        a3                             3.000000
        a5                             4.000000
        cn-shift                       1.200000
        cn-exp                         4.000000
        max-rad                        5.000000


          ...................................................
          :                      SETUP                      :
          :.................................................:
          :  # basis functions                  94          :
          :  # atomic orbitals                  93          :
          :  # shells                           51          :
          :  # electrons                       102          :
          :  max. iterations                   250          :
          :  Hamiltonian                  GFN2-xTB          :
          :  restarted?                      false          :
          :  GBSA solvation                  false          :
          :  PC potential                    false          :
          :  electronic temp.          300.0000000     K    :
          :  accuracy                    1.0000000          :
          :  -> integral cutoff          0.2500000E+02      :
          :  -> integral neglect         0.1000000E-07      :
          :  -> SCF convergence          0.1000000E-05 Eh   :
          :  -> wf. convergence          0.1000000E-03 e    :
          :  Broyden damping             0.4000000          :
          :  net charge                          0          :
          :  unpaired electrons                  2          :
          ...................................................

 iter      E             dE          RMSdq      gap      omega  full diag
   1    -59.1790578 -0.591791E+02  0.456E+00    0.35       0.0  T
   2    -59.3301733 -0.151116E+00  0.303E+00    0.84       1.0  T
   3    -59.3594029 -0.292296E-01  0.219E+00    0.57       1.0  T
   4    -59.3149147  0.444882E-01  0.176E+00    0.72       1.0  T
   5    -59.3827340 -0.678193E-01  0.119E+00    0.32       1.0  T
   6    -59.4277963 -0.450624E-01  0.497E-01    0.38       1.0  T
   7    -59.4318077 -0.401132E-02  0.239E-01    0.38       1.0  T
   8    -59.4335019 -0.169420E-02  0.125E-01    0.40       1.0  T
   9    -59.4337144 -0.212507E-03  0.850E-02    0.39       1.0  T
  10    -59.4337478 -0.334376E-04  0.575E-02    0.39       1.0  T
  11    -59.4338132 -0.653842E-04  0.321E-02    0.39       1.0  T
  12    -59.4338161 -0.290836E-05  0.289E-02    0.39       1.0  T
  13    -59.4338261 -0.100574E-04  0.175E-02    0.39       1.0  T
  14    -59.4338299 -0.374842E-05  0.107E-02    0.39       1.7  T
  15    -59.4338309 -0.102657E-05  0.578E-03    0.39       3.1  T
  16    -59.4338318 -0.920206E-06  0.251E-03    0.39       7.1  T
  17    -59.4338320 -0.127665E-06  0.731E-04    0.39      24.6  T
  18    -59.4338320  0.755506E-09  0.622E-04    0.39      28.9  T

   *** convergence criteria satisfied after 18 iterations ***

         #    Occupation            Energy/Eh            Energy/eV
      -------------------------------------------------------------
         1        2.0000           -1.0493191             -28.5534
       ...           ...                  ...                  ...
        46        2.0000           -0.4219049             -11.4806
        47        2.0000           -0.4184950             -11.3878
        48        2.0000           -0.4161095             -11.3229
        49        2.0000           -0.4073828             -11.0855
        50        1.5380           -0.3862405             -10.5101
        51        1.4620           -0.3859508             -10.5023
        52        0.9995           -0.2482581              -6.7554 (HOMO)
        53        0.0005           -0.2338951              -6.3646 (LUMO)
        54                         -0.1958588              -5.3296
        55                         -0.1305356              -3.5521
        56                         -0.1046728              -2.8483
        57                         -0.0250538              -0.6817
       ...                                ...                  ...
        93                          0.6513257              17.7235
      -------------------------------------------------------------
                  HL-Gap            0.0143630 Eh            0.3908 eV
             Fermi-level           -0.3135861 Eh           -8.5331 eV

 transition dipole moment (au) for excitation:          51          52
     X       Y       Z   
   0.1276   0.0064  -0.0190  total (au/Debye):    0.129   0.328
 dE (eV)             :    3.747
 oscillator strength :  0.21664E-02

 SCC (total)                   0 d,  0 h,  0 min,  0.056 sec
 SCC setup                      ...        0 min,  0.000 sec (  0.460%)
 Dispersion                     ...        0 min,  0.000 sec (  0.502%)
 classical contributions        ...        0 min,  0.000 sec (  0.151%)
 integral evaluation            ...        0 min,  0.006 sec ( 10.414%)
 iterations                     ...        0 min,  0.028 sec ( 49.162%)
 molecular gradient             ...        0 min,  0.016 sec ( 28.973%)
 printout                       ...        0 min,  0.006 sec ( 10.326%)

         :::::::::::::::::::::::::::::::::::::::::::::::::::::
         ::                     SUMMARY                     ::
         :::::::::::::::::::::::::::::::::::::::::::::::::::::
         :: total energy             -58.831990860442 Eh    ::
         :: gradient norm              0.129458307128 Eh/a0 ::
         :: HOMO-LUMO gap              0.390837060118 eV    ::
         ::.................................................::
         :: SCC energy               -59.433678035958 Eh    ::
         :: -> isotropic ES            0.104998641666 Eh    ::
         :: -> anisotropic ES          0.000938402413 Eh    ::
         :: -> anisotropic XC          0.010023077570 Eh    ::
         :: -> dispersion             -0.034255414952 Eh    ::
         :: repulsion energy           0.601687175516 Eh    ::
         :: add. restraining           0.000000000000 Eh    ::
         :: total charge               0.000000000186 e     ::
         :::::::::::::::::::::::::::::::::::::::::::::::::::::

           -------------------------------------------------
          |                Property Printout                |
           -------------------------------------------------

    * Orbital Energies and Occupations

         #    Occupation            Energy/Eh            Energy/eV
      -------------------------------------------------------------
         1        2.0000           -1.0493191             -28.5534
       ...           ...                  ...                  ...
        40        2.0000           -0.4683169             -12.7436
        41        2.0000           -0.4501526             -12.2493
        42        2.0000           -0.4462500             -12.1431
        43        2.0000           -0.4375011             -11.9050
        44        2.0000           -0.4342261             -11.8159
        45        2.0000           -0.4257239             -11.5845
        46        2.0000           -0.4219049             -11.4806
        47        2.0000           -0.4184950             -11.3878
        48        2.0000           -0.4161095             -11.3229
        49        2.0000           -0.4073828             -11.0855
        50        1.5380           -0.3862405             -10.5101
        51        1.4620           -0.3859508             -10.5023
        52        0.9995           -0.2482581              -6.7554 (HOMO)
        53        0.0005           -0.2338951              -6.3646 (LUMO)
        54                         -0.1958588              -5.3296
        55                         -0.1305356              -3.5521
        56                         -0.1046728              -2.8483
        57                         -0.0250538              -0.6817
        58                         -0.0082369              -0.2241
        59                          0.0062439               0.1699
        60                          0.0105337               0.2866
        61                          0.0212023               0.5769
        62                          0.0237516               0.6463
        63                          0.0241388               0.6568
       ...                                ...                  ...
        93                          0.6513257              17.7235
      -------------------------------------------------------------
                  HL-Gap            0.0143630 Eh            0.3908 eV
             Fermi-level           -0.3135861 Eh           -8.5331 eV

     #   Z          covCN         q      C6AA      α(0)
     1   7 N        2.647    -0.229    26.018     7.576
     2   6 C        2.882     0.118    25.393     8.261
     3   7 N        1.928    -0.260    27.598     7.790
     4   6 C        2.920     0.228    23.233     7.904
     5  17 Cl       1.051    -0.122   102.977    15.525
     6   7 N        1.907    -0.284    28.209     7.874
     7   6 C        3.184     0.139    24.569     8.089
     8   6 C        3.221     0.032    26.576     8.381
     9   7 N        1.885    -0.253    27.445     7.766
    10   6 C        3.186     0.082    25.734     8.277
    11   7 N        2.827    -0.061    22.419     7.032
    12   6 C        3.716     0.181    17.828     6.032
    13   6 C        3.820    -0.089    22.188     6.704
    14   6 C        3.740     0.110    18.855     6.196
    15   6 C        3.780     0.093    19.065     6.220
    16   8 O        1.702    -0.315    19.252     5.924
    17   6 C        3.673     0.073    19.587     6.343
    18   8 O        1.655    -0.439    21.623     6.277
    19   8 O        1.656    -0.433    21.505     6.260
    20   1 H        0.861     0.196     1.126     1.662
    21   1 H        0.860     0.199     1.110     1.650
    22   1 H        0.927     0.056     2.243     2.342
    23   1 H        0.923     0.052     2.301     2.372
    24   1 H        0.925     0.075     2.035     2.231
    25   1 H        0.925     0.067     2.116     2.275
    26   1 H        0.924     0.065     2.142     2.289
    27   1 H        0.924     0.056     2.252     2.347
    28   1 H        0.923     0.038     2.472     2.459
    29   1 H        0.923     0.030     2.588     2.516
    30   1 H        0.805     0.298     0.726     1.338
    31   1 H        0.805     0.299     0.725     1.338

 Mol. C6AA /au·bohr⁶  :      12591.399817
 Mol. C8AA /au·bohr⁸  :     307899.560775
 Mol. α(0) /au        :        169.249674


Wiberg/Mayer (AO) data.
largest (>0.10) Wiberg bond orders for each atom

 ---------------------------------------------------------------------------
     #   Z sym  total        # sym  WBO       # sym  WBO       # sym  WBO
 ---------------------------------------------------------------------------
     1   7 N    3.267 --     2 C    1.218    20 H    0.945    21 H    0.942
     2   6 C    3.861 --     3 N    1.279     1 N    1.218     8 C    1.094
     3   7 N    3.040 --     4 C    1.406     2 C    1.279
     4   6 C    3.843 --     3 N    1.406     6 N    1.201     5 Cl   0.988
     5  17 Cl   1.146 --     4 C    0.988
     6   7 N    2.866 --     7 C    1.289     4 C    1.201
     7   6 C    3.901 --     6 N    1.289     8 C    1.216    11 N    1.187
     8   6 C    3.832 --     9 N    1.309     7 C    1.216     2 C    1.094
     9   7 N    3.002 --    10 C    1.387     8 C    1.309
    10   6 C    3.805 --     9 N    1.387    11 N    1.168    22 H    0.961
    11   7 N    3.585 --     7 C    1.187    10 C    1.168    12 C    0.959
    12   6 C    3.940 --    16 O    0.993    13 C    0.971    11 N    0.959
                            23 H    0.951
    13   6 C    3.987 --    14 C    0.984    25 H    0.975    12 C    0.971
                            24 H    0.971
    14   6 C    3.959 --    19 O    1.007    13 C    0.984    15 C    0.962
                            26 H    0.961
    15   6 C    3.947 --    17 C    0.983    16 O    0.964    14 C    0.962
                            27 H    0.959
    16   8 O    2.093 --    12 C    0.993    15 C    0.964
    17   6 C    3.961 --    18 O    1.001    15 C    0.983    29 H    0.969
                            28 H    0.967
    18   8 O    1.955 --    17 C    1.001    30 H    0.896
    19   8 O    1.980 --    14 C    1.007    31 H    0.894
    20   1 H    0.961 --     1 N    0.945
    21   1 H    0.958 --     1 N    0.942
    22   1 H    0.996 --    10 C    0.961
    23   1 H    0.997 --    12 C    0.951
    24   1 H    0.994 --    13 C    0.971
    25   1 H    0.995 --    13 C    0.975
    26   1 H    0.995 --    14 C    0.961
    27   1 H    0.996 --    15 C    0.959
    28   1 H    0.999 --    17 C    0.967
    29   1 H    0.999 --    17 C    0.969
    30   1 H    0.911 --    18 O    0.896
    31   1 H    0.911 --    19 O    0.894
 ---------------------------------------------------------------------------

Topologies differ in total number of bonds
Writing topology from bond orders to xtbtopo.mol

molecular dipole:
                 x           y           z       tot (Debye)
 q only:       -0.794       1.616       0.395
   full:       -1.098       1.996       0.284       5.834
molecular quadrupole (traceless):
                xx          xy          yy          xz          yz          zz
 q only:        5.751      12.944      -1.981       0.439       3.138      -3.770
  q+dip:        3.186      12.403      -3.495       0.885       5.396       0.309
   full:        2.675      12.169      -4.076       1.068       5.460       1.401


           -------------------------------------------------
          | TOTAL ENERGY              -58.831990860442 Eh   |
          | GRADIENT NORM               0.129458307128 Eh/α |
          | HOMO-LUMO GAP               0.390837060118 eV   |
           -------------------------------------------------

------------------------------------------------------------------------
 * finished run on 2025/05/15 at 16:22:27.300     
------------------------------------------------------------------------
 total:
 * wall-time:     0 d,  0 h,  0 min,  0.067 sec
 *  cpu-time:     0 d,  0 h,  0 min,  0.066 sec
 * ratio c/w:     0.977 speedup
 SCF:
 * wall-time:     0 d,  0 h,  0 min,  0.056 sec
 *  cpu-time:     0 d,  0 h,  0 min,  0.056 sec
 * ratio c/w:     0.995 speedup


