51
 energy: -84.105477205734 gnorm: 0.000712649167 xtb: 6.7.1 (edcfbbe)
F            8.57159956766318       -2.27718341316063        1.13556930203301
C            7.56679804270714       -1.58512831583153        0.56667564834088
C            7.53277600837117       -1.45436744073263       -0.81082019372716
C            6.49594622298525       -0.74166825744647       -1.37728239802095
C            5.49511125817215       -0.17119338276052       -0.58844549303796
C            5.56329475241814       -0.31419171474933        0.79656939869906
C            6.59916860605749       -1.01976257540562        1.37901993215648
C            4.41726403937665        0.57496457247814       -1.29765886053839
C            3.10929644447722        0.77600002227325       -0.55756565399484
C            2.15946739626555        1.67792273421914       -1.34258837112900
C            0.82794637607236        1.80614815716103       -0.61126191737846
N            0.22906268877141        0.49561353583792       -0.44535758341023
C            1.07960917418506       -0.35412526810154        0.36459886945523
C            2.41706790440810       -0.57498085326893       -0.33527232732663
C           -1.13642910312541        0.53322425383979        0.03438714658479
C           -1.93453619765854       -0.64214477756927       -0.54462704919405
N           -3.28038038336181       -0.67737856806608        0.00717539112594
C           -3.47420633258791       -1.46570686972194        1.12478183460349
N           -4.74944358225474       -1.47012017251876        1.63227802615283
C           -5.80261056900589       -0.75052124151289        1.12132680051302
C           -7.07349288384143       -0.80962288045165        1.69063222250251
C           -8.10083735028396       -0.06683423862393        1.14641671284000
C           -7.88180312905015        0.74294742223098        0.03651896954665
C           -6.62730676463245        0.80619698794220       -0.53005403445621
C           -5.57740606113711        0.06008435392140        0.00470280635759
C           -4.24159128192274        0.12591176985909       -0.59646522942993
O           -3.96239276563326        0.81511798251404       -1.55328874316212
O           -2.59401555418646       -2.12112583580994        1.63393243508385
O            4.58145759586746        0.96490319914226       -2.43179516567763
H            8.30646689798194       -1.90366783997203       -1.41348476783890
H            6.43706241689634       -0.61381508708052       -2.44779812964712
H            4.82192707505770        0.13712914065395        1.43629556828576
H            6.66735250556810       -1.13512105249876        2.44920662614470
H            3.31678638824407        1.23620063929589        0.41471996882340
H            1.98913279110140        1.24234548430382       -2.32719112639004
H            2.60548007496424        2.66393431986740       -1.48043474823167
H            0.14829273015257        2.42295576843857       -1.20288298502292
H            0.98827878798713        2.30674166337612        0.36334562383983
H            0.58209390806633       -1.31385776456502        0.51276256353099
H            1.25638254492223        0.09285861650715        1.36244442368369
H            2.23465804433525       -1.04300427213661       -1.30363888957200
H            3.04168899531193       -1.24218938253705        0.26091244883610
H           -1.19074972838213        0.49821853576720        1.13627184143027
H           -1.60965372808997        1.45872110415201       -0.30118448809216
H           -2.01272822131911       -0.52548283822238       -1.62603116619426
H           -1.45336524315517       -1.58950792568275       -0.30262444376038
H           -4.89490979300104       -2.05548752360869        2.44393683925682
H           -7.24240310547933       -1.43752599168197        2.55283031413516
H           -9.08427566605355       -0.11593850709000        1.58886413484317
H           -8.69434647886683        1.31900487013262       -0.37752876690652
H           -6.42238531536937        1.42360885688330       -1.39089331666308
