----- Optimization -----
      -----------------------------------------------------------      
     |                   =====================                   |     
     |                           x T B                           |     
     |                   =====================                   |     
     |                         S. Grimme                         |     
     |          Mulliken Center for Theoretical Chemistry        |     
     |                    University of Bonn                     |     
      -----------------------------------------------------------      

   * xtb version 6.7.1 (edcfbbe) compiled by 'conda@3ef47c1a292c' on 2024-11-25

   xtb is free software: you can redistribute it and/or modify it under
   the terms of the GNU Lesser General Public License as published by
   the Free Software Foundation, either version 3 of the License, or
   (at your option) any later version.
   
   xtb is distributed in the hope that it will be useful,
   but WITHOUT ANY WARRANTY; without even the implied warranty of
   MERCHANTABILITY or FITNESS FOR A PARTICULAR PURPOSE.  See the
   GNU Lesser General Public License for more details.
   
   Cite this work as:
   * C. Bannwarth, E. Caldeweyher, S. Ehlert, A. Hansen, P. Pracht,
     J. Seibert, S. Spicher, S. Grimme, WIREs Comput. Mol. Sci., 2020, 11,
     e01493. DOI: 10.1002/wcms.1493
   
   for GFN2-xTB:
   * C. Bannwarth, S. Ehlert and S. Grimme., J. Chem. Theory Comput., 2019,
     15, 1652-1671. DOI: 10.1021/acs.jctc.8b01176
   for GFN1-xTB:
   * S. Grimme, C. Bannwarth, P. Shushkov, J. Chem. Theory Comput., 2017,
     13, 1989-2009. DOI: 10.1021/acs.jctc.7b00118
   for GFN0-xTB:
   * P. Pracht, E. Caldeweyher, S. Ehlert, S. Grimme, ChemRxiv, 2019, preprint.
     DOI: 10.26434/chemrxiv.8326202.v1
   for GFN-FF:
   * S. Spicher and S. Grimme, Angew. Chem. Int. Ed., 2020, 59, 15665-15673.
     DOI: 10.1002/anie.202004239
   
   for ALPB and GBSA implicit solvation:
   * S. Ehlert, M. Stahn, S. Spicher, S. Grimme, J. Chem. Theory Comput.,
     2021, 17, 4250-4261. DOI: 10.1021/acs.jctc.1c00471
   
   for ddCOSMO and CPCM-X implicit solvation:
   * M. Stahn, S. Ehlert, S. Grimme, J. Phys. Chem. A,
     2023, XX, XXXX-XXXX. DOI: 10.1021/acs.jpca.3c04382
   
   for DFT-D4:
   * E. Caldeweyher, C. Bannwarth and S. Grimme, J. Chem. Phys., 2017,
     147, 034112. DOI: 10.1063/1.4993215
   * E. Caldeweyher, S. Ehlert, A. Hansen, H. Neugebauer, S. Spicher,
     C. Bannwarth and S. Grimme, J. Chem. Phys., 2019, 150, 154122.
     DOI: 10.1063/1.5090222
   * E. Caldeweyher, J.-M. Mewes, S. Ehlert and S. Grimme, Phys. Chem. Chem. Phys.
     2020, 22, 8499-8512. DOI: 10.1039/D0CP00502A
   
   for sTDA-xTB:
   * S. Grimme and C. Bannwarth, J. Chem. Phys., 2016, 145, 054103.
     DOI: 10.1063/1.4959605
   
   in the mass-spec context:
   * V. Asgeirsson, C. Bauer and S. Grimme, Chem. Sci., 2017, 8, 4879.
     DOI: 10.1039/c7sc00601b
   * J. Koopman and S. Grimme, ACS Omega 2019, 4, 12, 15120-15133.
     DOI: 10.1021/acsomega.9b02011
   
   for metadynamics refer to:
   * S. Grimme, J. Chem. Theory Comput., 2019, 155, 2847-2862
     DOI: 10.1021/acs.jctc.9b00143
   
   for SPH calculations refer to:
   * S. Spicher and S. Grimme, J. Chem. Theory Comput., 2021, 17, 1701-1714
     DOI: 10.1021/acs.jctc.0c01306
   
   for ONIOM refer to:
   * C. Plett, A. Katbashev, S. Ehlert, S. Grimme, M. Bursch,
     Phys. Chem. Chem. Phys., 2023, 25, 17860-17868. DOI: 10.1039/D3CP02178E
   
   for DIPRO refer to:
   * J. Kohn, N. Gildemeister, S. Grimme, D. Fazzi, A. Hansen,
     J. Chem. Phys., 2023, just accepted.
   
   for PTB refer to:
   * S. Grimme, M. Mueller, A. Hansen, J. Chem. Phys., 2023, 158, 124111.
     DOI: 10.1063/5.0137838
   
   with help from (in alphabetical order)
   P. Atkinson, C. Bannwarth, F. Bohle, G. Brandenburg, E. Caldeweyher
   M. Checinski, S. Dohm, S. Ehlert, S. Ehrlich, I. Gerasimov, C. Hölzer
   A. Katbashev, J. Kohn, J. Koopman, C. Lavigne, S. Lehtola, F. März, M. Müller,
   F. Musil, H. Neugebauer, J. Pisarek, C. Plett, P. Pracht, F. Pultar,
   J. Seibert, P. Shushkov, S. Spicher, M. Stahn, M. Steiner, T. Strunk,
   J. Stückrath, T. Rose, and J. Unsleber
   
 * started run on 2025/05/15 at 16:26:57.099     
   ID    Z sym.   atoms
    1    9 F      1
    2    6 C      2-11, 13-16, 18, 20-26
    3    7 N      12, 17, 19
    4    8 O      27-29
    5    1 H      30-51

           -------------------------------------------------
          |                Calculation Setup                |
           -------------------------------------------------

          program call               : xtb /rds/general/user/hgt20/home/callum/QDESCP/Ketanserin_rdkit_conf_7/Ketanserin_rdkit_conf_7.xyz --opt normal --acc 1 --gfn 2 --chrg 0 --uhf 0 -P 1
          hostname                   : login-c
          coordinate file            : /rds/general/user/hgt20/home/callum/QDESCP/Ketanserin_rdkit_conf_7/Ketanserin_rdkit_conf_7.xyz
          omp threads                :                     1


           -------------------------------------------------
          |                 G F N 2 - x T B                 |
           -------------------------------------------------

        Reference                      10.1021/acs.jctc.8b01176
      * Hamiltonian:
        H0-scaling (s, p, d)           1.850000    2.230000    2.230000
        zeta-weighting                 0.500000
      * Dispersion:
        s8                             2.700000
        a1                             0.520000
        a2                             5.000000
        s9                             5.000000
      * Repulsion:
        kExp                           1.500000    1.000000
        rExp                           1.000000
      * Coulomb:
        alpha                          2.000000
        third order                    shell-resolved
        anisotropic                    true
        a3                             3.000000
        a5                             4.000000
        cn-shift                       1.200000
        cn-exp                         4.000000
        max-rad                        5.000000


          ...................................................
          :                      SETUP                      :
          :.................................................:
          :  # basis functions                 138          :
          :  # atomic orbitals                 138          :
          :  # shells                           80          :
          :  # electrons                       150          :
          :  max. iterations                   250          :
          :  Hamiltonian                  GFN2-xTB          :
          :  restarted?                      false          :
          :  GBSA solvation                  false          :
          :  PC potential                    false          :
          :  electronic temp.          300.0000000     K    :
          :  accuracy                    1.0000000          :
          :  -> integral cutoff          0.2500000E+02      :
          :  -> integral neglect         0.1000000E-07      :
          :  -> SCF convergence          0.1000000E-05 Eh   :
          :  -> wf. convergence          0.1000000E-03 e    :
          :  Broyden damping             0.4000000          :
          :  net charge                          0          :
          :  unpaired electrons                  0          :
          ...................................................

 iter      E             dE          RMSdq      gap      omega  full diag
   1    -84.9890081 -0.849890E+02  0.423E+00    2.64       0.0  T
   2    -85.1506269 -0.161619E+00  0.243E+00    2.20       1.0  T
   3    -85.1601899 -0.956301E-02  0.136E+00    2.11       1.0  T
   4    -85.1739017 -0.137118E-01  0.313E-01    1.71       1.0  T
   5    -85.1772745 -0.337285E-02  0.928E-02    1.72       1.0  T
   6    -85.1773914 -0.116876E-03  0.494E-02    1.76       1.0  T
   7    -85.1774456 -0.541959E-04  0.193E-02    1.76       1.0  T
   8    -85.1774471 -0.146759E-05  0.800E-03    1.77       1.7  T
   9    -85.1774481 -0.107008E-05  0.350E-03    1.77       4.0  T
  10    -85.1774483 -0.132208E-06  0.115E-03    1.77      12.2  T
  11    -85.1774483 -0.200668E-07  0.594E-04    1.77      23.6  T
  12    -85.1774483 -0.366065E-08  0.187E-04    1.77      74.8  T

   *** convergence criteria satisfied after 12 iterations ***

         #    Occupation            Energy/Eh            Energy/eV
      -------------------------------------------------------------
         1        2.0000           -0.8284212             -22.5425
       ...           ...                  ...                  ...
        69        2.0000           -0.4286568             -11.6643
        70        2.0000           -0.4231706             -11.5151
        71        2.0000           -0.4213570             -11.4657
        72        2.0000           -0.4121311             -11.2147
        73        2.0000           -0.4088631             -11.1257
        74        2.0000           -0.3945817             -10.7371
        75        2.0000           -0.3553031              -9.6683 (HOMO)
        76                         -0.2904185              -7.9027 (LUMO)
        77                         -0.2840247              -7.7287
        78                         -0.2558417              -6.9618
        79                         -0.2542485              -6.9185
        80                         -0.2256454              -6.1401
       ...                                ...                  ...
       138                          0.6635404              18.0559
      -------------------------------------------------------------
                  HL-Gap            0.0648846 Eh            1.7656 eV
             Fermi-level           -0.3228608 Eh           -8.7855 eV

 SCC (total)                   0 d,  0 h,  0 min,  0.083 sec
 SCC setup                      ...        0 min,  0.001 sec (  0.614%)
 Dispersion                     ...        0 min,  0.001 sec (  0.864%)
 classical contributions        ...        0 min,  0.000 sec (  0.255%)
 integral evaluation            ...        0 min,  0.010 sec ( 11.927%)
 iterations                     ...        0 min,  0.039 sec ( 46.777%)
 molecular gradient             ...        0 min,  0.033 sec ( 39.194%)
 printout                       ...        0 min,  0.000 sec (  0.361%)

         :::::::::::::::::::::::::::::::::::::::::::::::::::::
         ::                     SUMMARY                     ::
         :::::::::::::::::::::::::::::::::::::::::::::::::::::
         :: total energy             -84.094542636883 Eh    ::
         :: gradient norm              0.085618959591 Eh/a0 ::
         :: HOMO-LUMO gap              1.765599750638 eV    ::
         ::.................................................::
         :: SCC energy               -85.177757273718 Eh    ::
         :: -> isotropic ES            0.116656251710 Eh    ::
         :: -> anisotropic ES          0.005585508670 Eh    ::
         :: -> anisotropic XC          0.029991233290 Eh    ::
         :: -> dispersion             -0.055091976786 Eh    ::
         :: repulsion energy           1.083214636835 Eh    ::
         :: add. restraining           0.000000000000 Eh    ::
         :: total charge              -0.000000000000 e     ::
         :::::::::::::::::::::::::::::::::::::::::::::::::::::

      ----------------------------------------------------------- 
     |                   =====================                   |
     |                        A N C O P T                        |
     |                   =====================                   |
     |               Approximate Normal Coordinate               |
     |                Rational Function Optimizer                |
      ----------------------------------------------------------- 
      ----------------------------------------------------------- 
     |                   =====================                   |
     |                        A N C O P T                        |
     |                   =====================                   |
     |               Approximate Normal Coordinate               |
     |                Rational Function Optimizer                |
      ----------------------------------------------------------- 

          ...................................................
          :                      SETUP                      :
          :.................................................:
          :   optimization level            normal          :
          :   max. optcycles                   200          :
          :   ANC micro-cycles                  20          :
          :   degrees of freedom               147          :
          :.................................................:
          :   RF solver                   davidson          :
          :   write xtbopt.log                true          :
          :   linear?                        false          :
          :   energy convergence         0.5000000E-05 Eh   :
          :   grad. convergence          0.1000000E-02 Eh/α :
          :   maxmium RF displ.          1.0000000          :
          :   Hlow (freq-cutoff)         0.1000000E-01      :
          :   Hmax (freq-cutoff)         5.0000000          :
          :   S6 in model hess.         20.0000000          :
          ...................................................

generating ANC from exact Hessian ...
Using Lindh-Hessian (1995)
 Shifting diagonal of input Hessian by    9.8110420350976651E-003
 Lowest  eigenvalues of input Hessian
    0.000000    0.000000    0.000000    0.000000    0.000000    0.000000
    0.010000    0.010069    0.010349    0.010422    0.010826    0.011054
    0.011998    0.013188    0.014094    0.015512    0.015760    0.017050
 Highest eigenvalues
    2.031285    2.047351    2.092226    2.102748    2.299264    2.471043


........................................................................
.............................. CYCLE    1 ..............................
........................................................................

 iter      E             dE          RMSdq      gap      omega  full diag
   1    -85.1774483 -0.851774E+02  0.668E-05    1.77       0.0  T
   2    -85.1774483 -0.431299E-10  0.402E-05    1.77     348.0  T
   3    -85.1774483 -0.198384E-10  0.255E-05    1.77     549.8  T
     SCC iter.                  ...        0 min,  0.010 sec
     gradient                   ...        0 min,  0.032 sec
 * total energy  :   -84.0945426 Eh     change       -0.4662866E-09 Eh
   gradient norm :     0.0856187 Eh/α   predicted     0.0000000E+00 (-100.00%)
   displ. norm   :     0.2816772 α      lambda       -0.1117207E-01
   maximum displ.:     0.0757444 α      in ANC's #9, #28, #53, ...

........................................................................
.............................. CYCLE    2 ..............................
........................................................................

 iter      E             dE          RMSdq      gap      omega  full diag
   1    -85.2254351 -0.852254E+02  0.165E-01    1.84       0.0  T
   2    -85.2255639 -0.128851E-03  0.962E-02    1.84       1.0  T
   3    -85.2255504  0.135191E-04  0.379E-02    1.84       1.0  T
   4    -85.2255750 -0.245785E-04  0.986E-03    1.84       1.4  T
   5    -85.2255791 -0.407914E-05  0.304E-03    1.84       4.6  T
   6    -85.2255792 -0.142797E-06  0.149E-03    1.84       9.4  T
   7    -85.2255792 -0.250357E-07  0.573E-04    1.84      24.4  T
   8    -85.2255792 -0.332621E-08  0.227E-04    1.84      61.8  T
     SCC iter.                  ...        0 min,  0.025 sec
     gradient                   ...        0 min,  0.032 sec
 * total energy  :   -84.1019972 Eh     change       -0.7454570E-02 Eh
   gradient norm :     0.0317004 Eh/α   predicted    -0.6036726E-02 ( -19.02%)
   displ. norm   :     0.2595081 α      lambda       -0.2801897E-02
   maximum displ.:     0.1181096 α      in ANC's #9, #7, #10, ...

........................................................................
.............................. CYCLE    3 ..............................
........................................................................

 iter      E             dE          RMSdq      gap      omega  full diag
   1    -85.2456682 -0.852457E+02  0.957E-02    1.83       0.0  T
   2    -85.2457067 -0.384900E-04  0.549E-02    1.84       1.0  T
   3    -85.2457004  0.630575E-05  0.240E-02    1.84       1.0  T
   4    -85.2457114 -0.109865E-04  0.545E-03    1.84       2.6  T
   5    -85.2457127 -0.132902E-05  0.155E-03    1.84       9.0  T
   6    -85.2457128 -0.349207E-07  0.743E-04    1.84      18.8  T
   7    -85.2457128 -0.656875E-08  0.308E-04    1.84      45.4  T
     SCC iter.                  ...        0 min,  0.043 sec
     gradient                   ...        0 min,  0.032 sec
 * total energy  :   -84.1036919 Eh     change       -0.1694703E-02 Eh
   gradient norm :     0.0088017 Eh/α   predicted    -0.1496211E-02 ( -11.71%)
   displ. norm   :     0.1986771 α      lambda       -0.5791497E-03
   maximum displ.:     0.1020851 α      in ANC's #7, #9, #10, ...

........................................................................
.............................. CYCLE    4 ..............................
........................................................................

 iter      E             dE          RMSdq      gap      omega  full diag
   1    -85.2477075 -0.852477E+02  0.468E-02    1.82       0.0  T
   2    -85.2477104 -0.285955E-05  0.270E-02    1.83       1.0  T
   3    -85.2477087  0.164886E-05  0.792E-03    1.83       1.8  T
   4    -85.2477109 -0.220537E-05  0.153E-03    1.83       9.2  T
   5    -85.2477110 -0.842407E-07  0.642E-04    1.83      21.8  T
   6    -85.2477110 -0.442523E-08  0.292E-04    1.83      47.9  T
     SCC iter.                  ...        0 min,  0.052 sec
     gradient                   ...        0 min,  0.032 sec
 * total energy  :   -84.1041098 Eh     change       -0.4179230E-03 Eh
   gradient norm :     0.0057443 Eh/α   predicted    -0.3010086E-03 ( -27.98%)
   displ. norm   :     0.2497253 α      lambda       -0.4111101E-03
   maximum displ.:     0.1530245 α      in ANC's #7, #9, #10, ...

........................................................................
.............................. CYCLE    5 ..............................
........................................................................

 iter      E             dE          RMSdq      gap      omega  full diag
   1    -85.2477215 -0.852477E+02  0.475E-02    1.81       0.0  T
   2    -85.2477238 -0.225378E-05  0.275E-02    1.82       1.0  T
   3    -85.2477235  0.241042E-06  0.444E-03    1.82       3.2  T
   4    -85.2477241 -0.548831E-06  0.137E-03    1.82      10.2  T
   5    -85.2477241 -0.432506E-07  0.661E-04    1.82      21.2  T
   6    -85.2477241 -0.384946E-08  0.259E-04    1.82      54.0  T
     SCC iter.                  ...        0 min,  0.058 sec
     gradient                   ...        0 min,  0.032 sec
 * total energy  :   -84.1043836 Eh     change       -0.2737394E-03 Eh
   gradient norm :     0.0048842 Eh/α   predicted    -0.2183765E-03 ( -20.22%)
   displ. norm   :     0.1832551 α      lambda       -0.1751223E-03
   maximum displ.:     0.1179448 α      in ANC's #7, #4, #5, ...

........................................................................
.............................. CYCLE    6 ..............................
........................................................................

 iter      E             dE          RMSdq      gap      omega  full diag
   1    -85.2474499 -0.852474E+02  0.324E-02    1.81       0.0  T
   2    -85.2474505 -0.678045E-06  0.190E-02    1.81       1.0  T
   3    -85.2474504  0.110000E-06  0.239E-03    1.82       5.9  T
   4    -85.2474506 -0.209324E-06  0.913E-04    1.82      15.3  T
   5    -85.2474507 -0.213482E-07  0.396E-04    1.82      35.4  T
     SCC iter.                  ...        0 min,  0.049 sec
     gradient                   ...        0 min,  0.032 sec
 * total energy  :   -84.1045143 Eh     change       -0.1307535E-03 Eh
   gradient norm :     0.0041825 Eh/α   predicted    -0.9054055E-04 ( -30.75%)
   displ. norm   :     0.2004862 α      lambda       -0.1538542E-03
   maximum displ.:     0.1234539 α      in ANC's #7, #5, #4, ...

........................................................................
.............................. CYCLE    7 ..............................
........................................................................

 iter      E             dE          RMSdq      gap      omega  full diag
   1    -85.2475881 -0.852476E+02  0.339E-02    1.82       0.0  T
   2    -85.2475886 -0.553068E-06  0.199E-02    1.82       1.0  T
   3    -85.2475883  0.307901E-06  0.307E-03    1.82       4.6  T
   4    -85.2475888 -0.436011E-06  0.858E-04    1.82      16.3  T
   5    -85.2475888 -0.168252E-07  0.408E-04    1.82      34.3  T
     SCC iter.                  ...        0 min,  0.055 sec
     gradient                   ...        0 min,  0.032 sec
 * total energy  :   -84.1046312 Eh     change       -0.1168482E-03 Eh
   gradient norm :     0.0033592 Eh/α   predicted    -0.8002266E-04 ( -31.52%)
   displ. norm   :     0.2322896 α      lambda       -0.1351386E-03
   maximum displ.:     0.1333971 α      in ANC's #7, #8, #4, ...

........................................................................
.............................. CYCLE    8 ..............................
........................................................................

 iter      E             dE          RMSdq      gap      omega  full diag
   1    -85.2479582 -0.852480E+02  0.385E-02    1.82       0.0  T
   2    -85.2479588 -0.632789E-06  0.227E-02    1.82       1.0  T
   3    -85.2479587  0.175905E-06  0.265E-03    1.82       5.3  T
   4    -85.2479590 -0.291449E-06  0.875E-04    1.82      16.0  T
   5    -85.2479590 -0.197268E-07  0.427E-04    1.82      32.8  T
     SCC iter.                  ...        0 min,  0.016 sec
     gradient                   ...        0 min,  0.067 sec
 * total energy  :   -84.1047292 Eh     change       -0.9797864E-04 Eh
   gradient norm :     0.0034181 Eh/α   predicted    -0.7121768E-04 ( -27.31%)
   displ. norm   :     0.2236349 α      lambda       -0.9313435E-04
   maximum displ.:     0.1203243 α      in ANC's #7, #8, #4, ...

........................................................................
.............................. CYCLE    9 ..............................
........................................................................

 iter      E             dE          RMSdq      gap      omega  full diag
   1    -85.2484560 -0.852485E+02  0.366E-02    1.82       0.0  T
   2    -85.2484567 -0.678874E-06  0.215E-02    1.82       1.0  T
   3    -85.2484567  0.343268E-07  0.206E-03    1.82       6.8  T
   4    -85.2484568 -0.136118E-06  0.809E-04    1.82      17.3  T
   5    -85.2484568 -0.152144E-07  0.430E-04    1.82      32.6  T
     SCC iter.                  ...        0 min,  0.061 sec
     gradient                   ...        0 min,  0.032 sec
 * total energy  :   -84.1047943 Eh     change       -0.6518620E-04 Eh
   gradient norm :     0.0028524 Eh/α   predicted    -0.4889880E-04 ( -24.99%)
   displ. norm   :     0.1754016 α      lambda       -0.5624240E-04
   maximum displ.:     0.0834960 α      in ANC's #8, #7, #4, ...

........................................................................
.............................. CYCLE   10 ..............................
........................................................................

 iter      E             dE          RMSdq      gap      omega  full diag
   1    -85.2489949 -0.852490E+02  0.310E-02    1.82       0.0  T
   2    -85.2489953 -0.359688E-06  0.182E-02    1.82       1.0  T
   3    -85.2489952  0.395212E-07  0.173E-03    1.82       8.1  T
   4    -85.2489953 -0.108372E-06  0.651E-04    1.82      21.5  T
   5    -85.2489954 -0.972541E-08  0.334E-04    1.82      42.0  T
     SCC iter.                  ...        0 min,  0.065 sec
     gradient                   ...        0 min,  0.032 sec
 * total energy  :   -84.1048338 Eh     change       -0.3948649E-04 Eh
   gradient norm :     0.0019412 Eh/α   predicted    -0.2898744E-04 ( -26.59%)
   displ. norm   :     0.1803917 α      lambda       -0.3523576E-04
   maximum displ.:     0.0808959 α      in ANC's #3, #8, #4, ...

........................................................................
.............................. CYCLE   11 ..............................
........................................................................

 iter      E             dE          RMSdq      gap      omega  full diag
   1    -85.2495573 -0.852496E+02  0.356E-02    1.81       0.0  T
   2    -85.2495579 -0.622563E-06  0.208E-02    1.81       1.0  T
   3    -85.2495578  0.120554E-06  0.240E-03    1.81       5.8  T
   4    -85.2495580 -0.222594E-06  0.817E-04    1.81      17.1  T
   5    -85.2495581 -0.185283E-07  0.384E-04    1.81      36.4  T
     SCC iter.                  ...        0 min,  0.016 sec
     gradient                   ...        0 min,  0.083 sec
 * total energy  :   -84.1048655 Eh     change       -0.3168521E-04 Eh
   gradient norm :     0.0018222 Eh/α   predicted    -0.1787321E-04 ( -43.59%)
   displ. norm   :     0.0783631 α      lambda       -0.1835767E-04
   maximum displ.:     0.0505494 α      in ANC's #3, #6, #4, ...

........................................................................
.............................. CYCLE   12 ..............................
........................................................................

 iter      E             dE          RMSdq      gap      omega  full diag
   1    -85.2494548 -0.852495E+02  0.166E-02    1.81       0.0  T
   2    -85.2494550 -0.144626E-06  0.974E-03    1.81       1.4  T
   3    -85.2494550  0.460332E-08  0.921E-04    1.81      15.2  T
   4    -85.2494550 -0.263646E-07  0.341E-04    1.81      41.1  T
     SCC iter.                  ...        0 min,  0.013 sec
     gradient                   ...        0 min,  0.083 sec
 * total energy  :   -84.1048880 Eh     change       -0.2250341E-04 Eh
   gradient norm :     0.0015413 Eh/α   predicted    -0.9216947E-05 ( -59.04%)
   displ. norm   :     0.1258932 α      lambda       -0.2589434E-04
   maximum displ.:     0.0814487 α      in ANC's #3, #6, #7, ...

........................................................................
.............................. CYCLE   13 ..............................
........................................................................

 iter      E             dE          RMSdq      gap      omega  full diag
   1    -85.2489559 -0.852490E+02  0.256E-02    1.81       0.0  T
   2    -85.2489561 -0.200772E-06  0.150E-02    1.81       1.0  T
   3    -85.2489561 -0.200423E-07  0.102E-03    1.81      13.7  T
   4    -85.2489561 -0.286796E-07  0.455E-04    1.81      30.8  T
   5    -85.2489561 -0.167985E-08  0.221E-04    1.81      63.4  T
     SCC iter.                  ...        0 min,  0.016 sec
     gradient                   ...        0 min,  0.081 sec
 * total energy  :   -84.1049168 Eh     change       -0.2882779E-04 Eh
   gradient norm :     0.0012567 Eh/α   predicted    -0.1304081E-04 ( -54.76%)
   displ. norm   :     0.1411279 α      lambda       -0.2059538E-04
   maximum displ.:     0.0951239 α      in ANC's #3, #6, #4, ...

........................................................................
.............................. CYCLE   14 ..............................
........................................................................

 iter      E             dE          RMSdq      gap      omega  full diag
   1    -85.2485663 -0.852486E+02  0.294E-02    1.80       0.0  T
   2    -85.2485666 -0.295178E-06  0.172E-02    1.80       1.0  T
   3    -85.2485666 -0.402468E-08  0.129E-03    1.80      10.8  T
   4    -85.2485667 -0.540013E-07  0.499E-04    1.80      28.1  T
   5    -85.2485667 -0.395131E-08  0.244E-04    1.80      57.5  T
     SCC iter.                  ...        0 min,  0.015 sec
     gradient                   ...        0 min,  0.083 sec
 * total energy  :   -84.1049407 Eh     change       -0.2386797E-04 Eh
   gradient norm :     0.0014240 Eh/α   predicted    -0.1039360E-04 ( -56.45%)
   displ. norm   :     0.1426160 α      lambda       -0.1838286E-04
   maximum displ.:     0.0979444 α      in ANC's #3, #6, #4, ...

........................................................................
.............................. CYCLE   15 ..............................
........................................................................

 iter      E             dE          RMSdq      gap      omega  full diag
   1    -85.2486574 -0.852487E+02  0.312E-02    1.80       0.0  T
   2    -85.2486576 -0.223913E-06  0.182E-02    1.80       1.0  T
   3    -85.2486576 -0.353275E-07  0.100E-03    1.80      14.0  T
   4    -85.2486577 -0.239030E-07  0.460E-04    1.80      30.4  T
   5    -85.2486577 -0.163683E-08  0.215E-04    1.80      65.3  T
     SCC iter.                  ...        0 min,  0.065 sec
     gradient                   ...        0 min,  0.032 sec
 * total energy  :   -84.1049645 Eh     change       -0.2374455E-04 Eh
   gradient norm :     0.0012334 Eh/α   predicted    -0.9276630E-05 ( -60.93%)
   displ. norm   :     0.1750988 α      lambda       -0.2235486E-04
   maximum displ.:     0.1207638 α      in ANC's #3, #4, #6, ...

........................................................................
.............................. CYCLE   16 ..............................
........................................................................

 iter      E             dE          RMSdq      gap      omega  full diag
   1    -85.2486666 -0.852487E+02  0.402E-02    1.80       0.0  T
   2    -85.2486669 -0.321607E-06  0.235E-02    1.80       1.0  T
   3    -85.2486670 -0.497015E-07  0.131E-03    1.80      10.7  T
   4    -85.2486670 -0.452125E-07  0.559E-04    1.80      25.1  T
   5    -85.2486670 -0.169928E-08  0.239E-04    1.80      58.6  T
     SCC iter.                  ...        0 min,  0.015 sec
     gradient                   ...        0 min,  0.032 sec
 * total energy  :   -84.1049934 Eh     change       -0.2890214E-04 Eh
   gradient norm :     0.0010805 Eh/α   predicted    -0.1133194E-04 ( -60.79%)
   displ. norm   :     0.1929647 α      lambda       -0.2293218E-04
   maximum displ.:     0.1375731 α      in ANC's #3, #4, #6, ...

........................................................................
.............................. CYCLE   17 ..............................
........................................................................

 iter      E             dE          RMSdq      gap      omega  full diag
   1    -85.2489994 -0.852490E+02  0.465E-02    1.80       0.0  T
   2    -85.2489998 -0.367460E-06  0.272E-02    1.80       1.0  T
   3    -85.2489998 -0.735806E-07  0.135E-03    1.80      10.4  T
   4    -85.2489999 -0.425169E-07  0.629E-04    1.80      22.2  T
   5    -85.2489999 -0.210332E-08  0.280E-04    1.80      50.0  T
     SCC iter.                  ...        0 min,  0.016 sec
     gradient                   ...        0 min,  0.032 sec
 * total energy  :   -84.1050226 Eh     change       -0.2927466E-04 Eh
   gradient norm :     0.0008469 Eh/α   predicted    -0.1165802E-04 ( -60.18%)
   displ. norm   :     0.1906560 α      lambda       -0.2025815E-04
   maximum displ.:     0.1388715 α      in ANC's #3, #4, #6, ...

........................................................................
.............................. CYCLE   18 ..............................
........................................................................

 iter      E             dE          RMSdq      gap      omega  full diag
   1    -85.2489521 -0.852490E+02  0.472E-02    1.79       0.0  T
   2    -85.2489524 -0.340454E-06  0.276E-02    1.79       1.0  T
   3    -85.2489525 -0.723857E-07  0.137E-03    1.79      10.2  T
   4    -85.2489525 -0.449648E-07  0.633E-04    1.79      22.1  T
   5    -85.2489525 -0.192870E-08  0.284E-04    1.79      49.3  T
     SCC iter.                  ...        0 min,  0.015 sec
     gradient                   ...        0 min,  0.032 sec
 * total energy  :   -84.1050491 Eh     change       -0.2651114E-04 Eh
   gradient norm :     0.0008305 Eh/α   predicted    -0.1029733E-04 ( -61.16%)
   displ. norm   :     0.1590906 α      lambda       -0.1841520E-04
   maximum displ.:     0.1202250 α      in ANC's #3, #4, #2, ...

........................................................................
.............................. CYCLE   19 ..............................
........................................................................

 iter      E             dE          RMSdq      gap      omega  full diag
   1    -85.2493522 -0.852494E+02  0.423E-02    1.79       0.0  T
   2    -85.2493524 -0.222220E-06  0.248E-02    1.79       1.0  T
   3    -85.2493525 -0.605903E-07  0.107E-03    1.79      13.1  T
   4    -85.2493525 -0.236214E-07  0.553E-04    1.79      25.3  T
   5    -85.2493525 -0.226383E-08  0.247E-04    1.79      56.7  T
     SCC iter.                  ...        0 min,  0.015 sec
     gradient                   ...        0 min,  0.077 sec
 * total energy  :   -84.1050739 Eh     change       -0.2471685E-04 Eh
   gradient norm :     0.0009053 Eh/α   predicted    -0.9314827E-05 ( -62.31%)
   displ. norm   :     0.1871194 α      lambda       -0.2184296E-04
   maximum displ.:     0.1402432 α      in ANC's #3, #4, #2, ...

........................................................................
.............................. CYCLE   20 ..............................
........................................................................

 iter      E             dE          RMSdq      gap      omega  full diag
   1    -85.2492763 -0.852493E+02  0.510E-02    1.79       0.0  T
   2    -85.2492766 -0.274511E-06  0.299E-02    1.79       1.0  T
   3    -85.2492767 -0.923855E-07  0.119E-03    1.79      11.7  T
   4    -85.2492767 -0.249253E-07  0.652E-04    1.79      21.5  T
   5    -85.2492767 -0.309157E-08  0.275E-04    1.79      51.0  T
     SCC iter.                  ...        0 min,  0.015 sec
     gradient                   ...        0 min,  0.083 sec
 * total energy  :   -84.1051040 Eh     change       -0.3016997E-04 Eh
   gradient norm :     0.0009024 Eh/α   predicted    -0.1109556E-04 ( -63.22%)
   displ. norm   :     0.2054463 α      lambda       -0.2499271E-04
   maximum displ.:     0.1543107 α      in ANC's #3, #4, #2, ...
 * RMSD in coord.:     0.3680123 α      energy gain  -0.1056139E-01 Eh

generating ANC from exact Hessian ...
Using Lindh-Hessian (1995)
 Shifting diagonal of input Hessian by    9.7961048370391445E-003
 Lowest  eigenvalues of input Hessian
    0.000000    0.000000    0.000000    0.000000    0.000000    0.000000
    0.010000    0.010048    0.010372    0.010439    0.010907    0.011161
    0.012014    0.013532    0.014644    0.016213    0.016276    0.017682
 Highest eigenvalues
    2.078008    2.105439    2.142723    2.188209    2.377863    2.550780


........................................................................
.............................. CYCLE   21 ..............................
........................................................................

 iter      E             dE          RMSdq      gap      omega  full diag
   1    -85.2493311 -0.852493E+02  0.587E-02    1.79       0.0  T
   2    -85.2493314 -0.315345E-06  0.344E-02    1.79       1.0  T
   3    -85.2493316 -0.117251E-06  0.129E-03    1.79      10.9  T
   4    -85.2493316 -0.256030E-07  0.737E-04    1.79      19.0  T
   5    -85.2493316 -0.542724E-08  0.278E-04    1.79      50.3  T
     SCC iter.                  ...        0 min,  0.056 sec
     gradient                   ...        0 min,  0.033 sec
 * total energy  :   -84.1051378 Eh     change       -0.3374750E-04 Eh
   gradient norm :     0.0011286 Eh/α   predicted     0.0000000E+00 (-100.00%)
   displ. norm   :     0.0342423 α      lambda       -0.7972158E-05
   maximum displ.:     0.0238793 α      in ANC's #3, #6, #9, ...

........................................................................
.............................. CYCLE   22 ..............................
........................................................................

 iter      E             dE          RMSdq      gap      omega  full diag
   1    -85.2496044 -0.852496E+02  0.108E-02    1.79       0.0  T
   2    -85.2496044 -0.506578E-07  0.635E-03    1.79       2.2  T
   3    -85.2496044  0.157146E-07  0.725E-04    1.79      19.3  T
   4    -85.2496044 -0.231438E-07  0.195E-04    1.79      71.8  T
     SCC iter.                  ...        0 min,  0.058 sec
     gradient                   ...        0 min,  0.032 sec
 * total energy  :   -84.1051478 Eh     change       -0.9983901E-05 Eh
   gradient norm :     0.0004753 Eh/α   predicted    -0.4126740E-05 ( -58.67%)
   displ. norm   :     0.0916958 α      lambda       -0.1519900E-04
   maximum displ.:     0.0592781 α      in ANC's #3, #6, #2, ...

........................................................................
.............................. CYCLE   23 ..............................
........................................................................

 iter      E             dE          RMSdq      gap      omega  full diag
   1    -85.2496278 -0.852496E+02  0.283E-02    1.80       0.0  T
   2    -85.2496279 -0.124700E-06  0.166E-02    1.80       1.0  T
   3    -85.2496279  0.267784E-08  0.102E-03    1.80      13.7  T
   4    -85.2496279 -0.382919E-07  0.420E-04    1.80      33.3  T
   5    -85.2496280 -0.297132E-08  0.216E-04    1.80      64.7  T
     SCC iter.                  ...        0 min,  0.067 sec
     gradient                   ...        0 min,  0.089 sec
 * total energy  :   -84.1051653 Eh     change       -0.1751443E-04 Eh
   gradient norm :     0.0011106 Eh/α   predicted    -0.7629538E-05 ( -56.44%)
   displ. norm   :     0.1166280 α      lambda       -0.1427506E-04
   maximum displ.:     0.0758696 α      in ANC's #3, #6, #4, ...

........................................................................
.............................. CYCLE   24 ..............................
........................................................................

 iter      E             dE          RMSdq      gap      omega  full diag
   1    -85.2493567 -0.852494E+02  0.369E-02    1.80       0.0  T
   2    -85.2493569 -0.141374E-06  0.217E-02    1.80       1.0  T
   3    -85.2493569 -0.298554E-07  0.896E-04    1.80      15.6  T
   4    -85.2493569 -0.198677E-07  0.422E-04    1.80      33.2  T
     SCC iter.                  ...        0 min,  0.013 sec
     gradient                   ...        0 min,  0.084 sec
 * total energy  :   -84.1051807 Eh     change       -0.1544364E-04 Eh
   gradient norm :     0.0012034 Eh/α   predicted    -0.7180911E-05 ( -53.50%)
   displ. norm   :     0.1017431 α      lambda       -0.1038588E-04
   maximum displ.:     0.0682396 α      in ANC's #3, #6, #4, ...

........................................................................
.............................. CYCLE   25 ..............................
........................................................................

 iter      E             dE          RMSdq      gap      omega  full diag
   1    -85.2494014 -0.852494E+02  0.321E-02    1.80       0.0  T
   2    -85.2494015 -0.905371E-07  0.189E-02    1.80       1.0  T
   3    -85.2494015 -0.910757E-08  0.984E-04    1.80      14.2  T
   4    -85.2494015 -0.313010E-07  0.403E-04    1.80      34.7  T
     SCC iter.                  ...        0 min,  0.012 sec
     gradient                   ...        0 min,  0.077 sec
 * total energy  :   -84.1051928 Eh     change       -0.1204589E-04 Eh
   gradient norm :     0.0007573 Eh/α   predicted    -0.5220981E-05 ( -56.66%)
   displ. norm   :     0.0923458 α      lambda       -0.8871230E-05
   maximum displ.:     0.0628627 α      in ANC's #3, #6, #4, ...

........................................................................
.............................. CYCLE   26 ..............................
........................................................................

 iter      E             dE          RMSdq      gap      omega  full diag
   1    -85.2494700 -0.852495E+02  0.292E-02    1.80       0.0  T
   2    -85.2494700 -0.722501E-07  0.171E-02    1.80       1.0  T
   3    -85.2494700 -0.624564E-08  0.774E-04    1.80      18.1  T
   4    -85.2494701 -0.201974E-07  0.322E-04    1.80      43.5  T
     SCC iter.                  ...        0 min,  0.012 sec
     gradient                   ...        0 min,  0.077 sec
 * total energy  :   -84.1052041 Eh     change       -0.1138310E-04 Eh
   gradient norm :     0.0005440 Eh/α   predicted    -0.4454025E-05 ( -60.87%)
   displ. norm   :     0.1122528 α      lambda       -0.1116604E-04
   maximum displ.:     0.0763613 α      in ANC's #3, #4, #6, ...

........................................................................
.............................. CYCLE   27 ..............................
........................................................................

 iter      E             dE          RMSdq      gap      omega  full diag
   1    -85.2494634 -0.852495E+02  0.351E-02    1.80       0.0  T
   2    -85.2494635 -0.996470E-07  0.206E-02    1.80       1.0  T
   3    -85.2494635 -0.254471E-08  0.999E-04    1.80      14.0  T
   4    -85.2494636 -0.369040E-07  0.384E-04    1.80      36.5  T
     SCC iter.                  ...        0 min,  0.012 sec
     gradient                   ...        0 min,  0.077 sec
 * total energy  :   -84.1052183 Eh     change       -0.1413523E-04 Eh
   gradient norm :     0.0008185 Eh/α   predicted    -0.5615653E-05 ( -60.27%)
   displ. norm   :     0.1420131 α      lambda       -0.1277651E-04
   maximum displ.:     0.0968934 α      in ANC's #3, #4, #2, ...

........................................................................
.............................. CYCLE   28 ..............................
........................................................................

 iter      E             dE          RMSdq      gap      omega  full diag
   1    -85.2494405 -0.852494E+02  0.440E-02    1.80       0.0  T
   2    -85.2494406 -0.132801E-06  0.258E-02    1.80       1.0  T
   3    -85.2494406  0.772958E-08  0.133E-03    1.80      10.6  T
   4    -85.2494407 -0.717091E-07  0.439E-04    1.80      31.9  T
   5    -85.2494407 -0.119198E-08  0.178E-04    1.80      78.8  T
     SCC iter.                  ...        0 min,  0.016 sec
     gradient                   ...        0 min,  0.077 sec
 * total energy  :   -84.1052342 Eh     change       -0.1588870E-04 Eh
   gradient norm :     0.0010302 Eh/α   predicted    -0.6446660E-05 ( -59.43%)
   displ. norm   :     0.1614554 α      lambda       -0.1289980E-04
   maximum displ.:     0.1108351 α      in ANC's #3, #4, #2, ...

........................................................................
.............................. CYCLE   29 ..............................
........................................................................

 iter      E             dE          RMSdq      gap      omega  full diag
   1    -85.2493981 -0.852494E+02  0.489E-02    1.80       0.0  T
   2    -85.2493983 -0.175587E-06  0.287E-02    1.80       1.0  T
   3    -85.2493983  0.396854E-08  0.147E-03    1.80       9.5  T
   4    -85.2493984 -0.882839E-07  0.515E-04    1.80      27.2  T
   5    -85.2493984 -0.166305E-08  0.211E-04    1.80      66.5  T
     SCC iter.                  ...        0 min,  0.016 sec
     gradient                   ...        0 min,  0.083 sec
 * total energy  :   -84.1052506 Eh     change       -0.1647378E-04 Eh
   gradient norm :     0.0009944 Eh/α   predicted    -0.6526304E-05 ( -60.38%)
   displ. norm   :     0.1991253 α      lambda       -0.1554282E-04
   maximum displ.:     0.1365397 α      in ANC's #3, #4, #2, ...

........................................................................
.............................. CYCLE   30 ..............................
........................................................................

 iter      E             dE          RMSdq      gap      omega  full diag
   1    -85.2493705 -0.852494E+02  0.586E-02    1.81       0.0  T
   2    -85.2493707 -0.283221E-06  0.343E-02    1.81       1.0  T
   3    -85.2493707  0.289499E-07  0.190E-03    1.81       7.4  T
   4    -85.2493709 -0.159189E-06  0.652E-04    1.81      21.5  T
   5    -85.2493709 -0.346949E-08  0.280E-04    1.81      50.0  T
     SCC iter.                  ...        0 min,  0.016 sec
     gradient                   ...        0 min,  0.078 sec
 * total energy  :   -84.1052709 Eh     change       -0.2025799E-04 Eh
   gradient norm :     0.0008856 Eh/α   predicted    -0.7909845E-05 ( -60.95%)
   displ. norm   :     0.2832210 α      lambda       -0.2219866E-04
   maximum displ.:     0.1933591 α      in ANC's #3, #4, #2, ...

........................................................................
.............................. CYCLE   31 ..............................
........................................................................

 iter      E             dE          RMSdq      gap      omega  full diag
   1    -85.2491895 -0.852492E+02  0.801E-02    1.81       0.0  T
   2    -85.2491901 -0.593547E-06  0.469E-02    1.81       1.0  T
   3    -85.2491901  0.473579E-07  0.269E-03    1.81       5.2  T
   4    -85.2491904 -0.306173E-06  0.948E-04    1.81      14.8  T
   5    -85.2491904 -0.858304E-08  0.417E-04    1.81      33.6  T
     SCC iter.                  ...        0 min,  0.067 sec
     gradient                   ...        0 min,  0.032 sec
 * total energy  :   -84.1052991 Eh     change       -0.2817395E-04 Eh
   gradient norm :     0.0009343 Eh/α   predicted    -0.1149563E-04 ( -59.20%)
   displ. norm   :     0.4138627 α      lambda       -0.3044597E-04
   maximum displ.:     0.2819520 α      in ANC's #3, #4, #2, ...

........................................................................
.............................. CYCLE   32 ..............................
........................................................................

 iter      E             dE          RMSdq      gap      omega  full diag
   1    -85.2484250 -0.852484E+02  0.113E-01    1.81       0.0  T
   2    -85.2484263 -0.129487E-05  0.664E-02    1.81       1.0  T
   3    -85.2484261  0.126446E-06  0.398E-03    1.81       3.5  T
   4    -85.2484268 -0.678769E-06  0.142E-03    1.81       9.9  T
   5    -85.2484268 -0.202455E-07  0.622E-04    1.81      22.5  T
   6    -85.2484268 -0.355762E-08  0.182E-04    1.81      76.8  T
     SCC iter.                  ...        0 min,  0.019 sec
     gradient                   ...        0 min,  0.090 sec
 * total energy  :   -84.1053333 Eh     change       -0.3422277E-04 Eh
   gradient norm :     0.0017903 Eh/α   predicted    -0.1638325E-04 ( -52.13%)
   displ. norm   :     0.4280696 α      lambda       -0.3260251E-04
   maximum displ.:     0.2904234 α      in ANC's #3, #4, #2, ...

........................................................................
.............................. CYCLE   33 ..............................
........................................................................

 iter      E             dE          RMSdq      gap      omega  full diag
   1    -85.2485037 -0.852485E+02  0.111E-01    1.81       0.0  T
   2    -85.2485051 -0.143079E-05  0.652E-02    1.81       1.0  T
   3    -85.2485050  0.124038E-06  0.406E-03    1.81       3.4  T
   4    -85.2485057 -0.691240E-06  0.150E-03    1.81       9.3  T
   5    -85.2485057 -0.271480E-07  0.664E-04    1.81      21.1  T
   6    -85.2485057 -0.383403E-08  0.193E-04    1.81      72.4  T
     SCC iter.                  ...        0 min,  0.076 sec
     gradient                   ...        0 min,  0.032 sec
 * total energy  :   -84.1053671 Eh     change       -0.3383941E-04 Eh
   gradient norm :     0.0019926 Eh/α   predicted    -0.1763215E-04 ( -47.89%)
   displ. norm   :     0.2591876 α      lambda       -0.2824562E-04
   maximum displ.:     0.1719323 α      in ANC's #3, #4, #2, ...

........................................................................
.............................. CYCLE   34 ..............................
........................................................................

 iter      E             dE          RMSdq      gap      omega  full diag
   1    -85.2506739 -0.852507E+02  0.631E-02    1.81       0.0  T
   2    -85.2506746 -0.651114E-06  0.369E-02    1.81       1.0  T
   3    -85.2506744  0.187974E-06  0.290E-03    1.81       4.8  T
   4    -85.2506748 -0.415090E-06  0.963E-04    1.81      14.5  T
   5    -85.2506748 -0.123020E-07  0.470E-04    1.81      29.8  T
     SCC iter.                  ...        0 min,  0.016 sec
     gradient                   ...        0 min,  0.090 sec
 * total energy  :   -84.1053942 Eh     change       -0.2707412E-04 Eh
   gradient norm :     0.0016685 Eh/α   predicted    -0.1454606E-04 ( -46.27%)
   displ. norm   :     0.7185854 α      lambda       -0.4143384E-04
   maximum displ.:     0.4869504 α      in ANC's #3, #4, #2, ...

........................................................................
.............................. CYCLE   35 ..............................
........................................................................

 iter      E             dE          RMSdq      gap      omega  full diag
   1    -85.2449411 -0.852449E+02  0.189E-01    1.81       0.0  T
   2    -85.2449453 -0.418714E-05  0.110E-01    1.80       1.0  T
   3    -85.2449450  0.352934E-06  0.737E-03    1.80       1.9  T
   4    -85.2449470 -0.199428E-05  0.250E-03    1.80       5.6  T
   5    -85.2449470 -0.448723E-07  0.116E-03    1.81      12.1  T
   6    -85.2449470 -0.117722E-07  0.369E-04    1.81      37.9  T
   7    -85.2449470 -0.278273E-08  0.158E-04    1.81      88.6  T
     SCC iter.                  ...        0 min,  0.022 sec
     gradient                   ...        0 min,  0.089 sec
 * total energy  :   -84.1053807 Eh     change        0.1347705E-04 Eh
   gradient norm :     0.0052992 Eh/α   predicted    -0.2547833E-04 (-289.05%)
   displ. norm   :     0.2094792 α      lambda       -0.8549656E-04
   maximum displ.:     0.1419268 α      in ANC's #3, #4, #2, ...

........................................................................
.............................. CYCLE   36 ..............................
........................................................................

 iter      E             dE          RMSdq      gap      omega  full diag
   1    -85.2490055 -0.852490E+02  0.590E-02    1.81       0.0  T
   2    -85.2490061 -0.548166E-06  0.346E-02    1.81       1.0  T
   3    -85.2490058  0.319908E-06  0.343E-03    1.81       4.1  T
   4    -85.2490063 -0.522175E-06  0.784E-04    1.81      17.9  T
   5    -85.2490063 -0.440002E-08  0.412E-04    1.81      34.0  T
     SCC iter.                  ...        0 min,  0.073 sec
     gradient                   ...        0 min,  0.032 sec
 * total energy  :   -84.1054281 Eh     change       -0.4737470E-04 Eh
   gradient norm :     0.0020326 Eh/α   predicted    -0.4462716E-04 (  -5.80%)
   displ. norm   :     0.0401268 α      lambda       -0.1678461E-04
   maximum displ.:     0.0185503 α      in ANC's #3, #1, #4, ...

........................................................................
.............................. CYCLE   37 ..............................
........................................................................

 iter      E             dE          RMSdq      gap      omega  full diag
   1    -85.2498800 -0.852499E+02  0.113E-02    1.81       0.0  T
   2    -85.2498801 -0.707857E-07  0.669E-03    1.81       2.1  T
   3    -85.2498800  0.586647E-07  0.132E-03    1.81      10.6  T
   4    -85.2498801 -0.781722E-07  0.220E-04    1.81      63.7  T
   5    -85.2498801 -0.497096E-09  0.124E-04    1.81     112.6  T
     SCC iter.                  ...        0 min,  0.016 sec
     gradient                   ...        0 min,  0.089 sec
 * total energy  :   -84.1054395 Eh     change       -0.1133926E-04 Eh
   gradient norm :     0.0006239 Eh/α   predicted    -0.8410453E-05 ( -25.83%)
   displ. norm   :     0.1982684 α      lambda       -0.1414249E-04
   maximum displ.:     0.1226640 α      in ANC's #3, #4, #2, ...

........................................................................
.............................. CYCLE   38 ..............................
........................................................................

 iter      E             dE          RMSdq      gap      omega  full diag
   1    -85.2509349 -0.852509E+02  0.485E-02    1.81       0.0  T
   2    -85.2509352 -0.347725E-06  0.284E-02    1.81       1.0  T
   3    -85.2509353 -0.537935E-07  0.151E-03    1.81       9.3  T
   4    -85.2509354 -0.653854E-07  0.690E-04    1.81      20.3  T
   5    -85.2509354 -0.371546E-08  0.336E-04    1.81      41.7  T
     SCC iter.                  ...        0 min,  0.016 sec
     gradient                   ...        0 min,  0.090 sec
 * total energy  :   -84.1054522 Eh     change       -0.1274861E-04 Eh
   gradient norm :     0.0012617 Eh/α   predicted    -0.7195957E-05 ( -43.55%)
   displ. norm   :     0.2807254 α      lambda       -0.1198620E-04
   maximum displ.:     0.1835506 α      in ANC's #3, #4, #2, ...

........................................................................
.............................. CYCLE   39 ..............................
........................................................................

 iter      E             dE          RMSdq      gap      omega  full diag
   1    -85.2496009 -0.852496E+02  0.702E-02    1.81       0.0  T
   2    -85.2496014 -0.570663E-06  0.411E-02    1.81       1.0  T
   3    -85.2496016 -0.141836E-06  0.180E-03    1.81       7.8  T
   4    -85.2496016 -0.698212E-07  0.942E-04    1.81      14.9  T
   5    -85.2496017 -0.833722E-08  0.419E-04    1.81      33.4  T
     SCC iter.                  ...        0 min,  0.073 sec
     gradient                   ...        0 min,  0.032 sec
 * total energy  :   -84.1054636 Eh     change       -0.1135447E-04 Eh
   gradient norm :     0.0010354 Eh/α   predicted    -0.6203673E-05 ( -45.36%)
   displ. norm   :     0.1403097 α      lambda       -0.5740523E-05
   maximum displ.:     0.0891800 α      in ANC's #3, #4, #2, ...

........................................................................
.............................. CYCLE   40 ..............................
........................................................................

 iter      E             dE          RMSdq      gap      omega  full diag
   1    -85.2492901 -0.852493E+02  0.340E-02    1.80       0.0  T
   2    -85.2492902 -0.135763E-06  0.199E-02    1.80       1.0  T
   3    -85.2492902  0.445004E-08  0.125E-03    1.80      11.2  T
   4    -85.2492903 -0.547887E-07  0.448E-04    1.80      31.3  T
   5    -85.2492903 -0.165221E-08  0.215E-04    1.80      65.2  T
     SCC iter.                  ...        0 min,  0.015 sec
     gradient                   ...        0 min,  0.083 sec
 * total energy  :   -84.1054685 Eh     change       -0.4904525E-05 Eh
   gradient norm :     0.0012080 Eh/α   predicted    -0.2897099E-05 ( -40.93%)
   displ. norm   :     0.0661291 α      lambda       -0.5687898E-05
   maximum displ.:     0.0303248 α      in ANC's #3, #1, #7, ...

........................................................................
.............................. CYCLE   41 ..............................
........................................................................

 iter      E             dE          RMSdq      gap      omega  full diag
   1    -85.2501158 -0.852501E+02  0.135E-02    1.80       0.0  T
   2    -85.2501159 -0.367267E-07  0.794E-03    1.80       1.8  T
   3    -85.2501159  0.645375E-08  0.620E-04    1.80      22.6  T
   4    -85.2501159 -0.166633E-07  0.211E-04    1.80      66.5  T
     SCC iter.                  ...        0 min,  0.012 sec
     gradient                   ...        0 min,  0.089 sec
 * total energy  :   -84.1054741 Eh     change       -0.5610405E-05 Eh
   gradient norm :     0.0008568 Eh/α   predicted    -0.2850243E-05 ( -49.20%)
   displ. norm   :     0.0841331 α      lambda       -0.3852097E-05
   maximum displ.:     0.0465405 α      in ANC's #3, #1, #4, ...

........................................................................
.............................. CYCLE   42 ..............................
........................................................................

 iter      E             dE          RMSdq      gap      omega  full diag
   1    -85.2501765 -0.852502E+02  0.176E-02    1.80       0.0  T
   2    -85.2501766 -0.518371E-07  0.103E-02    1.80       1.4  T
   3    -85.2501766 -0.570358E-08  0.629E-04    1.80      22.3  T
   4    -85.2501766 -0.117440E-07  0.270E-04    1.80      51.9  T
     SCC iter.                  ...        0 min,  0.013 sec
     gradient                   ...        0 min,  0.083 sec
 * total energy  :   -84.1054772 Eh     change       -0.3136434E-05 Eh
   gradient norm :     0.0007121 Eh/α   predicted    -0.1932998E-05 ( -38.37%)
   displ. norm   :     0.0613207 α      lambda       -0.2187091E-05
   maximum displ.:     0.0357053 α      in ANC's #3, #1, #2, ...

   *** GEOMETRY OPTIMIZATION CONVERGED AFTER 42 ITERATIONS ***

------------------------------------------------------------------------
 total energy gain   :        -0.0109346 Eh       -6.8615 kcal/mol
 total RMSD          :         0.7722796 a0        0.4087 Å
 total power (kW/mol):        -0.6835406 (step)   -5.9586 (real)
------------------------------------------------------------------------

 ANCopt (total)                0 d,  0 h,  0 min,  4.818 sec
 optimizer setup                ...        0 min,  0.000 sec (  0.002%)
 model hessian                  ...        0 min,  0.039 sec (  0.812%)
 ANC generation                 ...        0 min,  0.004 sec (  0.090%)
 coordinate transformation      ...        0 min,  0.000 sec (  0.009%)
 single point calculation       ...        0 min,  4.761 sec ( 98.807%)
 optimization log               ...        0 min,  0.006 sec (  0.133%)
 hessian update                 ...        0 min,  0.001 sec (  0.015%)
 rational function              ...        0 min,  0.003 sec (  0.066%)

================
 final structure:
================
51
 xtb: 6.7.1 (edcfbbe)
F            8.57159956766318       -2.27718341316063        1.13556930203301
C            7.56679804270714       -1.58512831583153        0.56667564834088
C            7.53277600837117       -1.45436744073263       -0.81082019372716
C            6.49594622298525       -0.74166825744647       -1.37728239802095
C            5.49511125817215       -0.17119338276052       -0.58844549303796
C            5.56329475241814       -0.31419171474933        0.79656939869906
C            6.59916860605749       -1.01976257540562        1.37901993215648
C            4.41726403937665        0.57496457247814       -1.29765886053839
C            3.10929644447722        0.77600002227325       -0.55756565399484
C            2.15946739626555        1.67792273421914       -1.34258837112900
C            0.82794637607236        1.80614815716103       -0.61126191737846
N            0.22906268877141        0.49561353583792       -0.44535758341023
C            1.07960917418506       -0.35412526810154        0.36459886945523
C            2.41706790440810       -0.57498085326893       -0.33527232732663
C           -1.13642910312541        0.53322425383979        0.03438714658479
C           -1.93453619765854       -0.64214477756927       -0.54462704919405
N           -3.28038038336181       -0.67737856806608        0.00717539112594
C           -3.47420633258791       -1.46570686972194        1.12478183460349
N           -4.74944358225474       -1.47012017251876        1.63227802615283
C           -5.80261056900589       -0.75052124151289        1.12132680051302
C           -7.07349288384143       -0.80962288045165        1.69063222250251
C           -8.10083735028396       -0.06683423862393        1.14641671284000
C           -7.88180312905015        0.74294742223098        0.03651896954665
C           -6.62730676463245        0.80619698794220       -0.53005403445621
C           -5.57740606113711        0.06008435392140        0.00470280635759
C           -4.24159128192274        0.12591176985909       -0.59646522942993
O           -3.96239276563326        0.81511798251404       -1.55328874316212
O           -2.59401555418646       -2.12112583580994        1.63393243508385
O            4.58145759586746        0.96490319914226       -2.43179516567763
H            8.30646689798194       -1.90366783997203       -1.41348476783890
H            6.43706241689634       -0.61381508708052       -2.44779812964712
H            4.82192707505770        0.13712914065395        1.43629556828576
H            6.66735250556810       -1.13512105249876        2.44920662614470
H            3.31678638824407        1.23620063929589        0.41471996882340
H            1.98913279110140        1.24234548430382       -2.32719112639004
H            2.60548007496424        2.66393431986740       -1.48043474823167
H            0.14829273015257        2.42295576843857       -1.20288298502292
H            0.98827878798713        2.30674166337612        0.36334562383983
H            0.58209390806633       -1.31385776456502        0.51276256353099
H            1.25638254492223        0.09285861650715        1.36244442368369
H            2.23465804433525       -1.04300427213661       -1.30363888957200
H            3.04168899531193       -1.24218938253705        0.26091244883610
H           -1.19074972838213        0.49821853576720        1.13627184143027
H           -1.60965372808997        1.45872110415201       -0.30118448809216
H           -2.01272822131911       -0.52548283822238       -1.62603116619426
H           -1.45336524315517       -1.58950792568275       -0.30262444376038
H           -4.89490979300104       -2.05548752360869        2.44393683925682
H           -7.24240310547933       -1.43752599168197        2.55283031413516
H           -9.08427566605355       -0.11593850709000        1.58886413484317
H           -8.69434647886683        1.31900487013262       -0.37752876690652
H           -6.42238531536937        1.42360885688330       -1.39089331666308

 Bond Distances (Angstroems)
 ---------------------------
F1-C2=1.3462         C2-F1=1.3462         C2-C3=1.3841         C2-C7=1.3841         C3-C2=1.3841         C3-C4=1.3798         
C3-H30=1.0787        C4-C3=1.3798         C4-C5=1.3962         C4-H31=1.0797        C5-C4=1.3962         C5-C6=1.3940         
C5-C8=1.4905         C6-C5=1.3940         C6-C7=1.3821         C6-H32=1.0782        C7-C2=1.3841         C7-C6=1.3821         
C7-H33=1.0785        C8-C5=1.4905         C8-C9=1.5162         C8-O29=1.2105        C9-C8=1.5162         C9-C10=1.5271        
C9-C14=1.5342        C9-H34=1.0955        C10-C9=1.5271        C10-C11=1.5245       C10-H35=1.0900       C10-H36=1.0909       
C11-C10=1.5245       C11-N12=1.4504       C11-H37=1.0920       C11-H38=1.1073       N12-C11=1.4504       N12-C13=1.4497       
N12-C15=1.4478       C13-N12=1.4497       C13-C14=1.5256       C13-H39=1.0911       C13-H40=1.1076       C14-C9=1.5342        
C14-C13=1.5256       C14-H41=1.0909       C14-H42=1.0912       C15-N12=1.4478       C15-C16=1.5342       C15-H43=1.1038       
C15-H44=1.0923       C16-C15=1.5342       C16-N17=1.4550       C16-H45=1.0905       C16-H46=1.0898       N17-C16=1.4550       
N17-C18=1.3813       N17-C26=1.3905       C18-N17=1.3813       C18-N19=1.3725       C18-O28=1.2098       N19-C18=1.3725       
N19-C20=1.3741       N19-H47=1.0112       C20-N19=1.3741       C20-C21=1.3938       C20-C25=1.3981       C21-C20=1.3938       
C21-C22=1.3796       C21-H48=1.0799       C22-C21=1.3796       C22-C23=1.3913       C22-H49=1.0795       C23-C22=1.3913       
C23-C24=1.3780       C23-H50=1.0787       C24-C23=1.3780       C24-C25=1.3946       C24-H51=1.0790       C25-C20=1.3981       
C25-C24=1.3946       C25-C26=1.4663       C26-N17=1.3905       C26-C25=1.4663       C26-O27=1.2118       O27-C26=1.2118       
O28-C18=1.2098       O29-C8=1.2105        H30-C3=1.0787        H31-C4=1.0797        H32-C6=1.0782        H33-C7=1.0785        
H34-C9=1.0955        H35-C10=1.0900       H36-C10=1.0909       H37-C11=1.0920       H38-C11=1.1073       H39-C13=1.0911       
H40-C13=1.1076       H41-C14=1.0909       H42-C14=1.0912       H43-C15=1.1038       H44-C15=1.0923       H45-C16=1.0905       
H46-C16=1.0898       H47-N19=1.0112       H48-C21=1.0799       H49-C22=1.0795       H50-C23=1.0787       H51-C24=1.0790       
 C  H  Rav=1.0888 sigma=0.0092  Rmin=1.0782  Rmax=1.1076    21
 C  C  Rav=1.4387 sigma=0.0640  Rmin=1.3780  Rmax=1.5342    20
 N  H  Rav=1.0112 sigma=0.0000  Rmin=1.0112  Rmax=1.0112     1
 N  C  Rav=1.4152 sigma=0.0360  Rmin=1.3725  Rmax=1.4550     8
 O  C  Rav=1.2107 sigma=0.0008  Rmin=1.2098  Rmax=1.2118     3
 F  C  Rav=1.3462 sigma=0.0000  Rmin=1.3462  Rmax=1.3462     1

 selected bond angles (degree)
 --------------------
C3-C2-F1=119.18                C7-C2-F1=118.93                C7-C2-C3=121.89                C4-C3-C2=118.41                
H30-C3-C2=119.94               H30-C3-C4=121.65               C5-C4-C3=121.18                H31-C4-C3=120.61               
H31-C4-C5=118.21               C6-C5-C4=118.97                C8-C5-C4=117.01                C8-C5-C6=124.02                
C7-C6-C5=120.51                H32-C6-C5=120.86               H32-C6-C7=118.62               C6-C7-C2=119.02                
H33-C7-C2=119.63               H33-C7-C6=121.34               C9-C8-C5=117.25                O29-C8-C5=120.60               
O29-C8-C9=122.12               C10-C9-C8=111.34               C14-C9-C8=110.07               C14-C9-C10=108.30              
H34-C9-C8=109.00               H34-C9-C10=109.02              H34-C9-C14=109.07              C11-C10-C9=110.26              
H35-C10-C9=109.00              H35-C10-C11=109.29             H36-C10-C9=110.15              H36-C10-C11=109.98             
H36-C10-H35=108.11             

 selected dihedral angles (degree)
 ---------------------------------
C4-C3-C2-F1=180.01            C4-C3-C2-C7=359.75            H30-C3-C2-F1=359.93           H30-C3-C2-C7=179.67           
C5-C4-C3-C2=359.52            C5-C4-C3-H30=179.60           H31-C4-C3-C2=179.72           H31-C4-C3-H30=359.80          
C6-C5-C4-C3=  0.88            C6-C5-C4-H31=180.68           C8-C5-C4-C3=180.19            C8-C5-C4-H31=  0.00           
C7-C6-C5-C4=359.44            C7-C6-C5-C8=180.18            H32-C6-C5-C4=178.29           H32-C6-C5-C8=359.03           
C6-C7-C2-F1=180.30            C6-C7-C2-C3=  0.56            H33-C7-C2-F1=  0.42           H33-C7-C2-C3=180.68           
C2-C7-C6-C5=359.86            C2-C7-C6-H32=180.98           H33-C7-C6-C5=179.74           H33-C7-C6-H32=  0.86          
C9-C8-C5-C4=159.19            C9-C8-C5-C6=338.46            O29-C8-C5-C4=341.22           O29-C8-C5-C6=160.49           
C10-C9-C8-C5=173.97           C10-C9-C8-O29=351.90          C14-C9-C8-C5=294.08           C14-C9-C8-O29=112.01          
H34-C9-C8-C5= 53.66           H34-C9-C8-O29=231.60          C11-C10-C9-C8=177.14          C11-C10-C9-C14= 55.99         
C11-C10-C9-H34=297.43         H35-C10-C9-C8= 57.16          H35-C10-C9-C14=296.01         H35-C10-C9-H34=177.45         
H36-C10-C9-C8=298.70          H36-C10-C9-C14=177.55         H36-C10-C9-H34= 58.99         
           -------------------------------------------------
          |                Final Singlepoint                |
           -------------------------------------------------

          ...................................................
          :                      SETUP                      :
          :.................................................:
          :  # basis functions                 138          :
          :  # atomic orbitals                 138          :
          :  # shells                           80          :
          :  # electrons                       150          :
          :  max. iterations                   250          :
          :  Hamiltonian                  GFN2-xTB          :
          :  restarted?                      false          :
          :  GBSA solvation                  false          :
          :  PC potential                    false          :
          :  electronic temp.          300.0000000     K    :
          :  accuracy                    1.0000000          :
          :  -> integral cutoff          0.2500000E+02      :
          :  -> integral neglect         0.1000000E-07      :
          :  -> SCF convergence          0.1000000E-05 Eh   :
          :  -> wf. convergence          0.1000000E-03 e    :
          :  Broyden damping             0.4000000          :
          :  net charge                          0          :
          :  unpaired electrons                  0          :
          ...................................................

 iter      E             dE          RMSdq      gap      omega  full diag
   1    -85.2501766 -0.852502E+02  0.131E-04    1.80       0.0  T
   2    -85.2501766 -0.121034E-09  0.808E-05    1.80     173.2  T
   3    -85.2501766 -0.611919E-10  0.525E-05    1.80     266.9  T

   *** convergence criteria satisfied after 3 iterations ***

         #    Occupation            Energy/Eh            Energy/eV
      -------------------------------------------------------------
         1        2.0000           -0.8256289             -22.4665
       ...           ...                  ...                  ...
        69        2.0000           -0.4282923             -11.6544
        70        2.0000           -0.4224333             -11.4950
        71        2.0000           -0.4212621             -11.4631
        72        2.0000           -0.4128153             -11.2333
        73        2.0000           -0.4077736             -11.0961
        74        2.0000           -0.3932062             -10.6997
        75        2.0000           -0.3522034              -9.5839 (HOMO)
        76                         -0.2859146              -7.7801 (LUMO)
        77                         -0.2809730              -7.6457
        78                         -0.2529359              -6.8827
        79                         -0.2504276              -6.8145
        80                         -0.2199068              -5.9840
       ...                                ...                  ...
       138                          0.7013391              19.0844
      -------------------------------------------------------------
                  HL-Gap            0.0662888 Eh            1.8038 eV
             Fermi-level           -0.3190590 Eh           -8.6820 eV

 SCC (total)                   0 d,  0 h,  0 min,  0.107 sec
 SCC setup                      ...        0 min,  0.000 sec (  0.402%)
 Dispersion                     ...        0 min,  0.000 sec (  0.407%)
 classical contributions        ...        0 min,  0.000 sec (  0.191%)
 integral evaluation            ...        0 min,  0.010 sec (  8.968%)
 iterations                     ...        0 min,  0.064 sec ( 59.453%)
 molecular gradient             ...        0 min,  0.032 sec ( 30.366%)
 printout                       ...        0 min,  0.000 sec (  0.208%)

         :::::::::::::::::::::::::::::::::::::::::::::::::::::
         ::                     SUMMARY                     ::
         :::::::::::::::::::::::::::::::::::::::::::::::::::::
         :: total energy             -84.105477205734 Eh    ::
         :: gradient norm              0.000712649167 Eh/a0 ::
         :: HOMO-LUMO gap              1.803808987509 eV    ::
         ::.................................................::
         :: SCC energy               -85.250450184434 Eh    ::
         :: -> isotropic ES            0.113851223153 Eh    ::
         :: -> anisotropic ES          0.004871415426 Eh    ::
         :: -> anisotropic XC          0.028387329215 Eh    ::
         :: -> dispersion             -0.055900889258 Eh    ::
         :: repulsion energy           1.144972978699 Eh    ::
         :: add. restraining           0.000000000000 Eh    ::
         :: total charge              -0.000000000000 e     ::
         :::::::::::::::::::::::::::::::::::::::::::::::::::::

           -------------------------------------------------
          |                Property Printout                |
           -------------------------------------------------

    * Orbital Energies and Occupations

         #    Occupation            Energy/Eh            Energy/eV
      -------------------------------------------------------------
         1        2.0000           -0.8256289             -22.4665
       ...           ...                  ...                  ...
        63        2.0000           -0.4451793             -12.1139
        64        2.0000           -0.4424582             -12.0399
        65        2.0000           -0.4350046             -11.8371
        66        2.0000           -0.4340099             -11.8100
        67        2.0000           -0.4327740             -11.7764
        68        2.0000           -0.4311354             -11.7318
        69        2.0000           -0.4282923             -11.6544
        70        2.0000           -0.4224333             -11.4950
        71        2.0000           -0.4212621             -11.4631
        72        2.0000           -0.4128153             -11.2333
        73        2.0000           -0.4077736             -11.0961
        74        2.0000           -0.3932062             -10.6997
        75        2.0000           -0.3522034              -9.5839 (HOMO)
        76                         -0.2859146              -7.7801 (LUMO)
        77                         -0.2809730              -7.6457
        78                         -0.2529359              -6.8827
        79                         -0.2504276              -6.8145
        80                         -0.2199068              -5.9840
        81                         -0.2095625              -5.7025
        82                         -0.1804720              -4.9109
        83                         -0.1086841              -2.9574
        84                         -0.0951521              -2.5892
        85                         -0.0347952              -0.9468
        86                          0.0092710               0.2523
       ...                                ...                  ...
       138                          0.7013391              19.0844
      -------------------------------------------------------------
                  HL-Gap            0.0662888 Eh            1.8038 eV
             Fermi-level           -0.3190590 Eh           -8.6820 eV

     #   Z          covCN         q      C6AA      α(0)
     1   9 F        0.787    -0.217    11.415     3.991
     2   6 C        2.788     0.176    24.202     8.058
     3   6 C        2.914    -0.046    29.142     8.852
     4   6 C        2.932    -0.017    28.444     8.747
     5   6 C        2.968    -0.017    28.438     8.747
     6   6 C        2.925    -0.027    28.686     8.783
     7   6 C        2.915    -0.048    29.191     8.860
     8   6 C        2.825     0.227    23.238     7.899
     9   6 C        3.858    -0.038    21.215     6.551
    10   6 C        3.811    -0.061    21.669     6.626
    11   6 C        3.764     0.011    20.431     6.443
    12   7 N        2.732    -0.174    24.754     7.389
    13   6 C        3.768     0.012    20.406     6.438
    14   6 C        3.811    -0.059    21.633     6.620
    15   6 C        3.757     0.009    20.475     6.452
    16   6 C        3.758    -0.002    20.665     6.481
    17   7 N        2.744    -0.110    23.395     7.184
    18   6 C        2.705     0.327    21.433     7.578
    19   7 N        2.702    -0.161    24.478     7.348
    20   6 C        2.916     0.076    26.306     8.411
    21   6 C        2.919    -0.052    29.287     8.875
    22   6 C        2.921    -0.019    28.491     8.753
    23   6 C        2.917    -0.034    28.838     8.806
    24   6 C        2.923    -0.016    28.414     8.741
    25   6 C        2.982    -0.037    28.915     8.821
    26   6 C        2.771     0.271    22.424     7.756
    27   8 O        0.859    -0.407    21.818     6.263
    28   8 O        0.860    -0.444    22.569     6.369
    29   8 O        0.858    -0.357    20.839     6.120
    30   1 H        0.926     0.066     2.130     2.282
    31   1 H        0.926     0.074     2.043     2.235
    32   1 H        0.926     0.052     2.295     2.369
    33   1 H        0.926     0.063     2.162     2.299
    34   1 H        0.924     0.047     2.363     2.404
    35   1 H        0.925     0.064     2.153     2.294
    36   1 H        0.924     0.045     2.388     2.417
    37   1 H        0.924     0.041     2.442     2.444
    38   1 H        0.922     0.005     2.975     2.697
    39   1 H        0.924     0.044     2.392     2.419
    40   1 H        0.922     0.008     2.916     2.671
    41   1 H        0.924     0.052     2.294     2.369
    42   1 H        0.924     0.035     2.511     2.478
    43   1 H        0.923     0.017     2.784     2.609
    44   1 H        0.924     0.049     2.330     2.387
    45   1 H        0.924     0.083     1.953     2.185
    46   1 H        0.925     0.076     2.025     2.225
    47   1 H        0.860     0.201     1.100     1.643
    48   1 H        0.926     0.043     2.412     2.428
    49   1 H        0.926     0.049     2.331     2.387
    50   1 H        0.926     0.049     2.330     2.387
    51   1 H        0.926     0.071     2.072     2.251

 Mol. C6AA /au·bohr⁶  :      30541.787050
 Mol. C8AA /au·bohr⁸  :     723401.057056
 Mol. α(0) /au        :        269.842970


Wiberg/Mayer (AO) data.
largest (>0.10) Wiberg bond orders for each atom

 ---------------------------------------------------------------------------
     #   Z sym  total        # sym  WBO       # sym  WBO       # sym  WBO
 ---------------------------------------------------------------------------
     1   9 F    1.098 --     2 C    0.967
     2   6 C    3.889 --     3 C    1.388     7 C    1.388     1 F    0.967
     3   6 C    3.989 --     4 C    1.458     2 C    1.388    30 H    0.965
                             6 C    0.105
     4   6 C    3.986 --     3 C    1.458     5 C    1.381    31 H    0.964
                             7 C    0.105
     5   6 C    3.988 --     6 C    1.386     4 C    1.381     8 C    1.016
     6   6 C    3.990 --     7 C    1.456     5 C    1.386    32 H    0.963
                             3 C    0.105
     7   6 C    3.989 --     6 C    1.456     2 C    1.388    33 H    0.966
                             4 C    0.105
     8   6 C    3.921 --    29 O    1.831     5 C    1.016     9 C    0.975
     9   6 C    3.995 --    10 C    0.997     8 C    0.975    14 C    0.971
                            34 H    0.944
    10   6 C    3.993 --    11 C    1.004     9 C    0.997    36 H    0.975
                            35 H    0.973
    11   6 C    3.986 --    10 C    1.004    12 N    1.002    37 H    0.972
                            38 H    0.963
[...]
   
   for DIPRO refer to:
   * J. Kohn, N. Gildemeister, S. Grimme, D. Fazzi, A. Hansen,
     J. Chem. Phys., 2023, just accepted.
   
   for PTB refer to:
   * S. Grimme, M. Mueller, A. Hansen, J. Chem. Phys., 2023, 158, 124111.
     DOI: 10.1063/5.0137838
   
   with help from (in alphabetical order)
   P. Atkinson, C. Bannwarth, F. Bohle, G. Brandenburg, E. Caldeweyher
   M. Checinski, S. Dohm, S. Ehlert, S. Ehrlich, I. Gerasimov, C. Hölzer
   A. Katbashev, J. Kohn, J. Koopman, C. Lavigne, S. Lehtola, F. März, M. Müller,
   F. Musil, H. Neugebauer, J. Pisarek, C. Plett, P. Pracht, F. Pultar,
   J. Seibert, P. Shushkov, S. Spicher, M. Stahn, M. Steiner, T. Strunk,
   J. Stückrath, T. Rose, and J. Unsleber
   
 * started run on 2025/05/15 at 16:27:06.097     
   ID    Z sym.   atoms
    1    9 F      1
    2    6 C      2-11, 13-16, 18, 20-26
    3    7 N      12, 17, 19
    4    8 O      27-29
    5    1 H      30-51

           -------------------------------------------------
          |                Calculation Setup                |
           -------------------------------------------------

          program call               : xtb /rds/general/user/hgt20/home/callum/QDESCP/Ketanserin_rdkit_conf_7/Ketanserin_rdkit_conf_7.xyz --acc 1 --gfn 2 --chrg 0 --uhf 2 --etemp 300 --input /rds/general/user/hgt20/home/callum/QDESCP/Ketanserin_rdkit_conf_7/Ketanserin_rdkit_conf_7_xtb.inp -P 1
          hostname                   : login-c
          coordinate file            : /rds/general/user/hgt20/home/callum/QDESCP/Ketanserin_rdkit_conf_7/Ketanserin_rdkit_conf_7.xyz
          omp threads                :                     1


           -------------------------------------------------
          |                 G F N 2 - x T B                 |
           -------------------------------------------------

        Reference                      10.1021/acs.jctc.8b01176
      * Hamiltonian:
        H0-scaling (s, p, d)           1.850000    2.230000    2.230000
        zeta-weighting                 0.500000
      * Dispersion:
        s8                             2.700000
        a1                             0.520000
        a2                             5.000000
        s9                             5.000000
      * Repulsion:
        kExp                           1.500000    1.000000
        rExp                           1.000000
      * Coulomb:
        alpha                          2.000000
        third order                    shell-resolved
        anisotropic                    true
        a3                             3.000000
        a5                             4.000000
        cn-shift                       1.200000
        cn-exp                         4.000000
        max-rad                        5.000000


          ...................................................
          :                      SETUP                      :
          :.................................................:
          :  # basis functions                 138          :
          :  # atomic orbitals                 138          :
          :  # shells                           80          :
          :  # electrons                       150          :
          :  max. iterations                   250          :
          :  Hamiltonian                  GFN2-xTB          :
          :  restarted?                      false          :
          :  GBSA solvation                  false          :
          :  PC potential                    false          :
          :  electronic temp.          300.0000000     K    :
          :  accuracy                    1.0000000          :
          :  -> integral cutoff          0.2500000E+02      :
          :  -> integral neglect         0.1000000E-07      :
          :  -> SCF convergence          0.1000000E-05 Eh   :
          :  -> wf. convergence          0.1000000E-03 e    :
          :  Broyden damping             0.4000000          :
          :  net charge                          0          :
          :  unpaired electrons                  2          :
          ...................................................

 iter      E             dE          RMSdq      gap      omega  full diag
   1    -84.7993294 -0.847993E+02  0.402E+00    0.15       0.0  T
   2    -84.7320788  0.672506E-01  0.305E+00    0.70       1.0  T
   3    -84.7716992 -0.396203E-01  0.233E+00    1.86       1.0  T
   4    -84.9413591 -0.169660E+00  0.162E+00    1.03       1.0  T
   5    -84.9646493 -0.232901E-01  0.116E+00    0.91       1.0  T
   6    -84.9471236  0.175257E-01  0.109E+00    0.23       1.0  T
   7    -84.9853196 -0.381960E-01  0.129E+00    0.61       1.0  T
   8    -84.9130120  0.723076E-01  0.116E+00    0.58       1.0  T
   9    -85.0342303 -0.121218E+00  0.100E+00    0.37       1.0  T
  10    -85.1281112 -0.938808E-01  0.524E-01    0.08       1.0  T
  11    -85.1322640 -0.415285E-02  0.478E-01    0.09       1.0  T
  12    -85.1248710  0.739299E-02  0.451E-01    0.05       1.0  T
  13    -85.1048737  0.199974E-01  0.540E-01    0.23       1.0  T
  14    -85.0973937  0.747992E-02  0.528E-01    0.00       1.0  T
  15    -85.1386844 -0.412907E-01  0.215E-01    0.08       1.0  T
  16    -85.1357250  0.295941E-02  0.171E-01    0.04       1.0  T
  17    -85.1390866 -0.336162E-02  0.990E-02    0.05       1.0  T
  18    -85.1387718  0.314856E-03  0.101E-01    0.05       1.0  T
  19    -85.1406967 -0.192490E-02  0.196E-02    0.07       1.0  T
  20    -85.1404717  0.224938E-03  0.371E-02    0.06       1.0  T
  21    -85.1406854 -0.213682E-03  0.162E-02    0.06       1.0  T
  22    -85.1407263 -0.408813E-04  0.628E-03    0.06       2.2  T
  23    -85.1407266 -0.293837E-06  0.519E-03    0.06       2.7  T
  24    -85.1407302 -0.364063E-05  0.157E-03    0.07       8.9  T
  25    -85.1407304 -0.153423E-06  0.579E-04    0.07      24.2  T
  26    -85.1407304 -0.328806E-07  0.286E-04    0.07      49.0  T

   *** convergence criteria satisfied after 26 iterations ***

         #    Occupation            Energy/Eh            Energy/eV
      -------------------------------------------------------------
         1        2.0000           -0.8048451             -21.9010
       ...           ...                  ...                  ...
        70        2.0000           -0.4133806             -11.2487
        71        1.9998           -0.4074356             -11.0869
        72        1.9923           -0.4040672             -10.9952
        73        1.9584           -0.4024348             -10.9508
        74        1.8628           -0.4012022             -10.9173
        75        1.1868           -0.3980581             -10.8317
        76        0.7810           -0.2752131              -7.4889 (HOMO)
        77        0.2190           -0.2727972              -7.4232 (LUMO)
        78                         -0.2476336              -6.7385
        79                         -0.2314045              -6.2968
        80                         -0.2147375              -5.8433
        81                         -0.1948227              -5.3014
       ...                                ...                  ...
       138                          0.7066950              19.2302
      -------------------------------------------------------------
                  HL-Gap            0.0024159 Eh            0.0657 eV
             Fermi-level           -0.3367303 Eh           -9.1629 eV

 transition dipole moment (au) for excitation:          75          76
     X       Y       Z   
  -0.1179   0.0458  -0.0109  total (au/Debye):    0.127   0.323
 dE (eV)             :    3.343
 oscillator strength :  0.18677E-02

 SCC (total)                   0 d,  0 h,  0 min,  0.230 sec
 SCC setup                      ...        0 min,  0.000 sec (  0.216%)
 Dispersion                     ...        0 min,  0.001 sec (  0.298%)
 classical contributions        ...        0 min,  0.000 sec (  0.092%)
 integral evaluation            ...        0 min,  0.010 sec (  4.339%)
 iterations                     ...        0 min,  0.178 sec ( 77.202%)
 molecular gradient             ...        0 min,  0.033 sec ( 14.179%)
 printout                       ...        0 min,  0.008 sec (  3.670%)

         :::::::::::::::::::::::::::::::::::::::::::::::::::::
         ::                     SUMMARY                     ::
         :::::::::::::::::::::::::::::::::::::::::::::::::::::
         :: total energy             -83.996031057370 Eh    ::
         :: gradient norm              0.098083670571 Eh/a0 ::
         :: HOMO-LUMO gap              0.065739886485 eV    ::
         ::.................................................::
         :: SCC energy               -85.141004036069 Eh    ::
         :: -> isotropic ES            0.112390313365 Eh    ::
         :: -> anisotropic ES          0.004435654381 Eh    ::
         :: -> anisotropic XC          0.024358190500 Eh    ::
         :: -> dispersion             -0.055546058001 Eh    ::
         :: repulsion energy           1.144972978699 Eh    ::
         :: add. restraining           0.000000000000 Eh    ::
         :: total charge              -0.000000000001 e     ::
         :::::::::::::::::::::::::::::::::::::::::::::::::::::

           -------------------------------------------------
          |                Property Printout                |
           -------------------------------------------------

    * Orbital Energies and Occupations

         #    Occupation            Energy/Eh            Energy/eV
      -------------------------------------------------------------
         1        2.0000           -0.8048451             -21.9010
       ...           ...                  ...                  ...
        64        2.0000           -0.4518257             -12.2948
        65        2.0000           -0.4451394             -12.1129
        66        2.0000           -0.4339153             -11.8074
        67        2.0000           -0.4304002             -11.7118
        68        2.0000           -0.4258017             -11.5867
        69        2.0000           -0.4240797             -11.5398
        70        2.0000           -0.4133806             -11.2487
        71        1.9998           -0.4074356             -11.0869
        72        1.9923           -0.4040672             -10.9952
        73        1.9584           -0.4024348             -10.9508
        74        1.8628           -0.4012022             -10.9173
        75        1.1868           -0.3980581             -10.8317
        76        0.7810           -0.2752131              -7.4889 (HOMO)
        77        0.2190           -0.2727972              -7.4232 (LUMO)
        78                         -0.2476336              -6.7385
        79                         -0.2314045              -6.2968
        80                         -0.2147375              -5.8433
        81                         -0.1948227              -5.3014
        82                         -0.1753807              -4.7724
        83                         -0.0907032              -2.4682
        84                         -0.0873078              -2.3758
        85                         -0.0477378              -1.2990
        86                         -0.0019512              -0.0531
        87                          0.0236552               0.6437
       ...                                ...                  ...
       138                          0.7066950              19.2302
      -------------------------------------------------------------
                  HL-Gap            0.0024159 Eh            0.0657 eV
             Fermi-level           -0.3367303 Eh           -9.1629 eV

     #   Z          covCN         q      C6AA      α(0)
     1   9 F        0.787    -0.233    11.580     4.020
     2   6 C        2.788     0.154    24.646     8.132
     3   6 C        2.914    -0.050    29.240     8.867
     4   6 C        2.932    -0.032    28.788     8.799
     5   6 C        2.968    -0.018    28.448     8.749
     6   6 C        2.925    -0.048    29.200     8.862
     7   6 C        2.915    -0.050    29.240     8.867
     8   6 C        2.825     0.180    24.147     8.052
     9   6 C        3.858    -0.014    20.785     6.484
    10   6 C        3.811    -0.061    21.659     6.624
    11   6 C        3.764     0.000    20.619     6.472
    12   7 N        2.732    -0.097    23.131     7.143
    13   6 C        3.768     0.001    20.606     6.469
    14   6 C        3.811    -0.066    21.748     6.638
    15   6 C        3.757    -0.003    20.690     6.485
    16   6 C        3.758     0.002    20.598     6.471
    17   7 N        2.744    -0.118    23.562     7.209
    18   6 C        2.705     0.325    21.470     7.584
    19   7 N        2.702    -0.159    24.447     7.343
    20   6 C        2.916     0.072    26.389     8.424
    21   6 C        2.919    -0.055    29.359     8.885
    22   6 C        2.921    -0.029    28.719     8.788
    23   6 C        2.917    -0.031    28.778     8.797
    24   6 C        2.923    -0.024    28.592     8.769
    25   6 C        2.982    -0.043    29.053     8.842
    26   6 C        2.771     0.259    22.641     7.793
    27   8 O        0.859    -0.430    22.280     6.328
    28   8 O        0.860    -0.454    22.784     6.400
    29   8 O        0.858    -0.332    20.376     6.052
    30   1 H        0.926     0.059     2.208     2.324
    31   1 H        0.926     0.055     2.257     2.349
    32   1 H        0.926     0.034     2.535     2.490
    33   1 H        0.926     0.052     2.297     2.370
    34   1 H        0.924     0.052     2.301     2.372
    35   1 H        0.925     0.070     2.084     2.257
    36   1 H        0.924     0.058     2.226     2.333
    37   1 H        0.924     0.059     2.216     2.328
    38   1 H        0.922     0.035     2.524     2.484
    39   1 H        0.924     0.063     2.163     2.300
    40   1 H        0.922     0.038     2.472     2.459
    41   1 H        0.924     0.062     2.176     2.307
    42   1 H        0.924     0.056     2.249     2.345
    43   1 H        0.923     0.044     2.396     2.420
    44   1 H        0.924     0.066     2.132     2.283
    45   1 H        0.924     0.086     1.915     2.164
    46   1 H        0.925     0.077     2.013     2.219
    47   1 H        0.860     0.200     1.106     1.648
    48   1 H        0.926     0.037     2.494     2.470
    49   1 H        0.926     0.042     2.423     2.434
    50   1 H        0.926     0.044     2.390     2.418
    51   1 H        0.926     0.064     2.150     2.293

 Mol. C6AA /au·bohr⁶  :      30442.607168
 Mol. C8AA /au·bohr⁸  :     722576.680833
 Mol. α(0) /au        :        269.417557


Wiberg/Mayer (AO) data.
largest (>0.10) Wiberg bond orders for each atom

 ---------------------------------------------------------------------------
     #   Z sym  total        # sym  WBO       # sym  WBO       # sym  WBO
 ---------------------------------------------------------------------------
     1   9 F    1.065 --     2 C    0.951
     2   6 C    3.819 --     7 C    1.358     3 C    1.352     1 F    0.951
     3   6 C    3.978 --     4 C    1.489     2 C    1.352    30 H    0.960
     4   6 C    3.937 --     3 C    1.489     5 C    1.286    31 H    0.966
     5   6 C    3.866 --     6 C    1.306     4 C    1.286     8 C    1.053
     6   6 C    3.940 --     7 C    1.473     5 C    1.306    32 H    0.960
     7   6 C    3.977 --     6 C    1.473     2 C    1.358    33 H    0.967
     8   6 C    3.731 --    29 O    1.626     5 C    1.053     9 C    0.886
     9   6 C    3.939 --    10 C    0.998    14 C    0.983    34 H    0.947
                             8 C    0.886
    10   6 C    3.983 --     9 C    0.998    11 C    0.990    36 H    0.973
                            35 H    0.972
    11   6 C    3.969 --    12 N    1.006    10 C    0.990    37 H    0.969
                            38 H    0.952
    12   7 N    3.185 --    13 C    1.010    11 C    1.006    15 C    1.006
    13   6 C    3.968 --    12 N    1.010    14 C    0.985    39 H    0.966
                            40 H    0.950
    14   6 C    3.980 --    13 C    0.985     9 C    0.983    41 H    0.973
                            42 H    0.971
    15   6 C    3.964 --    12 N    1.006    16 C    0.980    44 H    0.969
                            43 H    0.955
    16   6 C    3.947 --    15 C    0.980    17 N    0.979    45 H    0.964
                            46 H    0.963
    17   7 N    3.522 --    18 C    1.118    26 C    1.076    16 C    0.979
                            28 O    0.130    27 O    0.127
    18   6 C    3.956 --    28 O    1.626    19 N    1.136    17 N    1.118
    19   7 N    3.466 --    18 C    1.136    20 C    1.121    47 H    0.927
                            28 O    0.132
    20   6 C    3.925 --    21 C    1.357    25 C    1.288    19 N    1.121
    21   6 C    3.945 --    22 C    1.441    20 C    1.357    48 H    0.967
    22   6 C    3.921 --    21 C    1.441    23 C    1.391    49 H    0.971
    23   6 C    3.954 --    24 C    1.467    22 C    1.391    50 H    0.970
    24   6 C    3.923 --    23 C    1.467    25 C    1.342    51 H    0.965
    25   6 C    3.940 --    24 C    1.342    20 C    1.288    26 C    1.066
    26   6 C    3.883 --    27 O    1.658    17 N    1.076    25 C    1.066
    27   8 O    1.951 --    26 C    1.658    17 N    0.127
    28   8 O    1.965 --    18 C    1.626    19 N    0.132    17 N    0.130
    29   8 O    1.958 --     8 C    1.626
    30   1 H    0.991 --     3 C    0.960
    31   1 H    0.997 --     4 C    0.966
    32   1 H    0.997 --     6 C    0.960
    33   1 H    0.996 --     7 C    0.967
    34   1 H    0.993 --     9 C    0.947
    35   1 H    0.994 --    10 C    0.972
    36   1 H    0.996 --    10 C    0.973
    37   1 H    0.995 --    11 C    0.969
    38   1 H    0.984 --    11 C    0.952
    39   1 H    0.994 --    13 C    0.966
    40   1 H    0.984 --    13 C    0.950
    41   1 H    0.995 --    14 C    0.973
    42   1 H    0.996 --    14 C    0.971
    43   1 H    0.979 --    15 C    0.955
    44   1 H    0.995 --    15 C    0.969
    45   1 H    0.991 --    16 C    0.964
    46   1 H    0.993 --    16 C    0.963
    47   1 H    0.959 --    19 N    0.927
    48   1 H    0.998 --    21 C    0.967
    49   1 H    0.997 --    22 C    0.971
    50   1 H    0.997 --    23 C    0.970
    51   1 H    0.995 --    24 C    0.965
 ---------------------------------------------------------------------------

Topologies differ in total number of bonds
Writing topology from bond orders to xtbtopo.mol

molecular dipole:
                 x           y           z       tot (Debye)
 q only:       -2.213       0.532       0.908
   full:       -2.477       0.491       1.527       7.501
molecular quadrupole (traceless):
                xx          xy          yy          xz          yz          zz
 q only:      -15.332      12.762       9.330     -11.167       8.670       6.002
  q+dip:      -16.572      14.395       7.646     -13.497       9.391       8.926
   full:      -16.701      16.647      10.318     -12.810      11.692       6.383


           -------------------------------------------------
          | TOTAL ENERGY              -83.996031057370 Eh   |
          | GRADIENT NORM               0.098083670571 Eh/α |
          | HOMO-LUMO GAP               0.065739886485 eV   |
           -------------------------------------------------

------------------------------------------------------------------------
 * finished run on 2025/05/15 at 16:27:06.343     
------------------------------------------------------------------------
 total:
 * wall-time:     0 d,  0 h,  0 min,  0.246 sec
 *  cpu-time:     0 d,  0 h,  0 min,  0.149 sec
 * ratio c/w:     0.605 speedup
 SCF:
 * wall-time:     0 d,  0 h,  0 min,  0.230 sec
 *  cpu-time:     0 d,  0 h,  0 min,  0.135 sec
 * ratio c/w:     0.585 speedup


