31
 energy: -58.963779887154 gnorm: 0.000424728190 xtb: 6.7.1 (edcfbbe)
N            4.41278625789613        1.03307825279530       -1.74353090297600
C            3.54499750074750        0.91649898061584       -0.73122370149291
N            3.78778361625119        1.58381852880828        0.39971627757260
C            2.93414879951571        1.48408565638681        1.40135910010263
Cl           3.34440777598579        2.37384511522658        2.79523771751930
N            1.81480601810641        0.79586161040139        1.47448202304894
C            1.56713326835292        0.12202706807356        0.34963613888691
C            2.38094353154755        0.12719402375601       -0.79614211880788
N            1.82815238757263       -0.68299950140547       -1.75400541603910
C            0.74542879747730       -1.15096742567876       -1.21312056365839
N            0.51679406469075       -0.69485600540193        0.05844652912565
C           -0.57927469318512       -1.02907875352194        0.95154802032318
C           -1.23759836264371        0.23910635640295        1.52183816938304
C           -2.73802003663514        0.02290915526123        1.27334372664711
C           -2.74220399659642       -0.97328336943994        0.09840888790650
O           -1.55808341170882       -1.75452479544335        0.26267139931457
C           -2.81680724542317       -0.28457777330437       -1.27719407420043
O           -1.90476729726616        0.76820063130706       -1.44389736670474
O           -3.41980158333616       -0.47034186220680        2.39282068732092
H            4.25505821877292        0.51806018741165       -2.59033524680865
H            5.23372472422920        1.59848564545217       -1.62002498838033
H            0.08015289491882       -1.84457368688354       -1.68847591626919
H           -0.16655085760105       -1.67698716819395        1.74054157066778
H           -0.88963287298212        1.11822887975645        0.98287826474273
H           -1.02040007231896        0.37164427017183        2.57862495319527
H           -3.24499261776924        0.95166498856831        1.00852269535436
H           -3.58343955218571       -1.67029139389540        0.17349696126306
H           -3.80946988987877        0.15971640077597       -1.38047163463529
H           -2.68933657633425       -1.04727074853573       -2.05624067725893
H           -1.01740453240572        0.40710696434753       -1.55913525320812
H           -3.02853425780107       -1.31158023160440        2.65802473806029
