----- Optimization -----
      -----------------------------------------------------------      
     |                   =====================                   |     
     |                           x T B                           |     
     |                   =====================                   |     
     |                         S. Grimme                         |     
     |          Mulliken Center for Theoretical Chemistry        |     
     |                    University of Bonn                     |     
      -----------------------------------------------------------      

   * xtb version 6.7.1 (edcfbbe) compiled by 'conda@3ef47c1a292c' on 2024-11-25

   xtb is free software: you can redistribute it and/or modify it under
   the terms of the GNU Lesser General Public License as published by
   the Free Software Foundation, either version 3 of the License, or
   (at your option) any later version.
   
   xtb is distributed in the hope that it will be useful,
   but WITHOUT ANY WARRANTY; without even the implied warranty of
   MERCHANTABILITY or FITNESS FOR A PARTICULAR PURPOSE.  See the
   GNU Lesser General Public License for more details.
   
   Cite this work as:
   * C. Bannwarth, E. Caldeweyher, S. Ehlert, A. Hansen, P. Pracht,
     J. Seibert, S. Spicher, S. Grimme, WIREs Comput. Mol. Sci., 2020, 11,
     e01493. DOI: 10.1002/wcms.1493
   
   for GFN2-xTB:
   * C. Bannwarth, S. Ehlert and S. Grimme., J. Chem. Theory Comput., 2019,
     15, 1652-1671. DOI: 10.1021/acs.jctc.8b01176
   for GFN1-xTB:
   * S. Grimme, C. Bannwarth, P. Shushkov, J. Chem. Theory Comput., 2017,
     13, 1989-2009. DOI: 10.1021/acs.jctc.7b00118
   for GFN0-xTB:
   * P. Pracht, E. Caldeweyher, S. Ehlert, S. Grimme, ChemRxiv, 2019, preprint.
     DOI: 10.26434/chemrxiv.8326202.v1
   for GFN-FF:
   * S. Spicher and S. Grimme, Angew. Chem. Int. Ed., 2020, 59, 15665-15673.
     DOI: 10.1002/anie.202004239
   
   for ALPB and GBSA implicit solvation:
   * S. Ehlert, M. Stahn, S. Spicher, S. Grimme, J. Chem. Theory Comput.,
     2021, 17, 4250-4261. DOI: 10.1021/acs.jctc.1c00471
   
   for ddCOSMO and CPCM-X implicit solvation:
   * M. Stahn, S. Ehlert, S. Grimme, J. Phys. Chem. A,
     2023, XX, XXXX-XXXX. DOI: 10.1021/acs.jpca.3c04382
   
   for DFT-D4:
   * E. Caldeweyher, C. Bannwarth and S. Grimme, J. Chem. Phys., 2017,
     147, 034112. DOI: 10.1063/1.4993215
   * E. Caldeweyher, S. Ehlert, A. Hansen, H. Neugebauer, S. Spicher,
     C. Bannwarth and S. Grimme, J. Chem. Phys., 2019, 150, 154122.
     DOI: 10.1063/1.5090222
   * E. Caldeweyher, J.-M. Mewes, S. Ehlert and S. Grimme, Phys. Chem. Chem. Phys.
     2020, 22, 8499-8512. DOI: 10.1039/D0CP00502A
   
   for sTDA-xTB:
   * S. Grimme and C. Bannwarth, J. Chem. Phys., 2016, 145, 054103.
     DOI: 10.1063/1.4959605
   
   in the mass-spec context:
   * V. Asgeirsson, C. Bauer and S. Grimme, Chem. Sci., 2017, 8, 4879.
     DOI: 10.1039/c7sc00601b
   * J. Koopman and S. Grimme, ACS Omega 2019, 4, 12, 15120-15133.
     DOI: 10.1021/acsomega.9b02011
   
   for metadynamics refer to:
   * S. Grimme, J. Chem. Theory Comput., 2019, 155, 2847-2862
     DOI: 10.1021/acs.jctc.9b00143
   
   for SPH calculations refer to:
   * S. Spicher and S. Grimme, J. Chem. Theory Comput., 2021, 17, 1701-1714
     DOI: 10.1021/acs.jctc.0c01306
   
   for ONIOM refer to:
   * C. Plett, A. Katbashev, S. Ehlert, S. Grimme, M. Bursch,
     Phys. Chem. Chem. Phys., 2023, 25, 17860-17868. DOI: 10.1039/D3CP02178E
   
   for DIPRO refer to:
   * J. Kohn, N. Gildemeister, S. Grimme, D. Fazzi, A. Hansen,
     J. Chem. Phys., 2023, just accepted.
   
   for PTB refer to:
   * S. Grimme, M. Mueller, A. Hansen, J. Chem. Phys., 2023, 158, 124111.
     DOI: 10.1063/5.0137838
   
   with help from (in alphabetical order)
   P. Atkinson, C. Bannwarth, F. Bohle, G. Brandenburg, E. Caldeweyher
   M. Checinski, S. Dohm, S. Ehlert, S. Ehrlich, I. Gerasimov, C. Hölzer
   A. Katbashev, J. Kohn, J. Koopman, C. Lavigne, S. Lehtola, F. März, M. Müller,
   F. Musil, H. Neugebauer, J. Pisarek, C. Plett, P. Pracht, F. Pultar,
   J. Seibert, P. Shushkov, S. Spicher, M. Stahn, M. Steiner, T. Strunk,
   J. Stückrath, T. Rose, and J. Unsleber
   
 * started run on 2025/05/15 at 16:24:39.196     
   ID    Z sym.   atoms
    1    7 N      1, 3, 6, 9, 11
    2    6 C      2, 4, 7, 8, 10, 12-15, 17
    3   17 Cl     5
    4    8 O      16, 18, 19
    5    1 H      20-31

           -------------------------------------------------
          |                Calculation Setup                |
           -------------------------------------------------

          program call               : xtb /rds/general/user/hgt20/home/callum/QDESCP/Cladribine_rdkit_conf_18/Cladribine_rdkit_conf_18.xyz --opt normal --acc 1 --gfn 2 --chrg 0 --uhf 0 -P 1
          hostname                   : login-c
          coordinate file            : /rds/general/user/hgt20/home/callum/QDESCP/Cladribine_rdkit_conf_18/Cladribine_rdkit_conf_18.xyz
          omp threads                :                     1


           -------------------------------------------------
          |                 G F N 2 - x T B                 |
           -------------------------------------------------

        Reference                      10.1021/acs.jctc.8b01176
      * Hamiltonian:
        H0-scaling (s, p, d)           1.850000    2.230000    2.230000
        zeta-weighting                 0.500000
      * Dispersion:
        s8                             2.700000
        a1                             0.520000
        a2                             5.000000
        s9                             5.000000
      * Repulsion:
        kExp                           1.500000    1.000000
        rExp                           1.000000
      * Coulomb:
        alpha                          2.000000
        third order                    shell-resolved
        anisotropic                    true
        a3                             3.000000
        a5                             4.000000
        cn-shift                       1.200000
        cn-exp                         4.000000
        max-rad                        5.000000


          ...................................................
          :                      SETUP                      :
          :.................................................:
          :  # basis functions                  94          :
          :  # atomic orbitals                  93          :
          :  # shells                           51          :
          :  # electrons                       102          :
          :  max. iterations                   250          :
          :  Hamiltonian                  GFN2-xTB          :
          :  restarted?                      false          :
          :  GBSA solvation                  false          :
          :  PC potential                    false          :
          :  electronic temp.          300.0000000     K    :
          :  accuracy                    1.0000000          :
          :  -> integral cutoff          0.2500000E+02      :
          :  -> integral neglect         0.1000000E-07      :
          :  -> SCF convergence          0.1000000E-05 Eh   :
          :  -> wf. convergence          0.1000000E-03 e    :
          :  Broyden damping             0.4000000          :
          :  net charge                          0          :
          :  unpaired electrons                  0          :
          ...................................................

 iter      E             dE          RMSdq      gap      omega  full diag
   1    -59.3758899 -0.593759E+02  0.428E+00    2.95       0.0  T
   2    -59.4964869 -0.120597E+00  0.257E+00    3.31       1.0  T
   3    -59.5092807 -0.127938E-01  0.126E+00    3.16       1.0  T
   4    -59.5138866 -0.460588E-02  0.260E-01    3.08       1.0  T
   5    -59.5150348 -0.114817E-02  0.102E-01    3.05       1.0  T
   6    -59.5151362 -0.101400E-03  0.516E-02    3.05       1.0  T
   7    -59.5151640 -0.278012E-04  0.303E-02    3.05       1.0  T
   8    -59.5151698 -0.585949E-05  0.167E-02    3.05       1.1  T
   9    -59.5151719 -0.208484E-05  0.131E-02    3.05       1.4  T
  10    -59.5151738 -0.185153E-05  0.859E-03    3.05       2.1  T
  11    -59.5151749 -0.108160E-05  0.385E-03    3.05       4.7  T
  12    -59.5151751 -0.207638E-06  0.180E-03    3.05      10.0  T
  13    -59.5151751 -0.277785E-07  0.499E-04    3.05      36.0  T
  14    -59.5151751 -0.212278E-08  0.174E-04    3.05     103.0  T

   *** convergence criteria satisfied after 14 iterations ***

         #    Occupation            Energy/Eh            Energy/eV
      -------------------------------------------------------------
         1        2.0000           -1.0558759             -28.7318
       ...           ...                  ...                  ...
        45        2.0000           -0.4323195             -11.7640
        46        2.0000           -0.4258551             -11.5881
        47        2.0000           -0.4244870             -11.5509
        48        2.0000           -0.4222256             -11.4893
        49        2.0000           -0.4106397             -11.1741
        50        2.0000           -0.3983846             -10.8406
        51        2.0000           -0.3880140             -10.5584 (HOMO)
        52                         -0.2758678              -7.5067 (LUMO)
        53                         -0.2489619              -6.7746
        54                         -0.2176500              -5.9226
        55                         -0.1429270              -3.8892
        56                         -0.1233214              -3.3557
       ...                                ...                  ...
        93                          0.6192164              16.8497
      -------------------------------------------------------------
                  HL-Gap            0.1121461 Eh            3.0517 eV
             Fermi-level           -0.3319409 Eh           -9.0326 eV

 SCC (total)                   0 d,  0 h,  0 min,  0.043 sec
 SCC setup                      ...        0 min,  0.000 sec (  0.648%)
 Dispersion                     ...        0 min,  0.000 sec (  0.645%)
 classical contributions        ...        0 min,  0.000 sec (  0.208%)
 integral evaluation            ...        0 min,  0.006 sec ( 13.505%)
 iterations                     ...        0 min,  0.021 sec ( 49.838%)
 molecular gradient             ...        0 min,  0.015 sec ( 34.827%)
 printout                       ...        0 min,  0.000 sec (  0.312%)

         :::::::::::::::::::::::::::::::::::::::::::::::::::::
         ::                     SUMMARY                     ::
         :::::::::::::::::::::::::::::::::::::::::::::::::::::
         :: total energy             -58.949890400885 Eh    ::
         :: gradient norm              0.090738549950 Eh/a0 ::
         :: HOMO-LUMO gap              3.051651900534 eV    ::
         ::.................................................::
         :: SCC energy               -59.514969353576 Eh    ::
         :: -> isotropic ES            0.114700510524 Eh    ::
         :: -> anisotropic ES          0.002462999058 Eh    ::
         :: -> anisotropic XC          0.020199295851 Eh    ::
         :: -> dispersion             -0.033803754329 Eh    ::
         :: repulsion energy           0.565078952691 Eh    ::
         :: add. restraining           0.000000000000 Eh    ::
         :: total charge               0.000000000000 e     ::
         :::::::::::::::::::::::::::::::::::::::::::::::::::::

      ----------------------------------------------------------- 
     |                   =====================                   |
     |                        A N C O P T                        |
     |                   =====================                   |
     |               Approximate Normal Coordinate               |
     |                Rational Function Optimizer                |
      ----------------------------------------------------------- 
      ----------------------------------------------------------- 
     |                   =====================                   |
     |                        A N C O P T                        |
     |                   =====================                   |
     |               Approximate Normal Coordinate               |
     |                Rational Function Optimizer                |
      ----------------------------------------------------------- 

          ...................................................
          :                      SETUP                      :
          :.................................................:
          :   optimization level            normal          :
          :   max. optcycles                   200          :
          :   ANC micro-cycles                  20          :
          :   degrees of freedom                87          :
          :.................................................:
          :   RF solver                   davidson          :
          :   write xtbopt.log                true          :
          :   linear?                        false          :
          :   energy convergence         0.5000000E-05 Eh   :
          :   grad. convergence          0.1000000E-02 Eh/α :
          :   maxmium RF displ.          1.0000000          :
          :   Hlow (freq-cutoff)         0.1000000E-01      :
          :   Hmax (freq-cutoff)         5.0000000          :
          :   S6 in model hess.         20.0000000          :
          ...................................................

generating ANC from exact Hessian ...
Using Lindh-Hessian (1995)
 Shifting diagonal of input Hessian by    9.2454099303658482E-003
 Lowest  eigenvalues of input Hessian
    0.000000    0.000000    0.000000    0.000000    0.000000    0.000000
    0.010000    0.010356    0.011140    0.013147    0.014476    0.015511
    0.018594    0.020014    0.021578    0.023062    0.025161    0.027102
 Highest eigenvalues
    1.786635    1.925087    2.064161    2.092541    2.173726    2.292479


........................................................................
.............................. CYCLE    1 ..............................
........................................................................

 iter      E             dE          RMSdq      gap      omega  full diag
   1    -59.5151751 -0.595152E+02  0.648E-05    3.05       0.0  T
   2    -59.5151751 -0.311147E-10  0.437E-05    3.05     410.6  T
   3    -59.5151751 -0.134648E-10  0.313E-05    3.05     574.5  T
     SCC iter.                  ...        0 min,  0.005 sec
     gradient                   ...        0 min,  0.015 sec
 * total energy  :   -58.9498904 Eh     change       -0.2306848E-09 Eh
   gradient norm :     0.0907390 Eh/α   predicted     0.0000000E+00 (-100.00%)
   displ. norm   :     0.2418242 α      lambda       -0.1164215E-01
   maximum displ.:     0.0851262 α      in ANC's #20, #40, #19, ...

........................................................................
.............................. CYCLE    2 ..............................
........................................................................

 iter      E             dE          RMSdq      gap      omega  full diag
   1    -59.5457256 -0.595457E+02  0.195E-01    3.16       0.0  T
   2    -59.5459011 -0.175505E-03  0.120E-01    3.12       1.0  T
   3    -59.5459369 -0.357677E-04  0.679E-02    3.14       1.0  T
   4    -59.5459670 -0.301682E-04  0.191E-02    3.13       1.0  T
   5    -59.5459727 -0.562954E-05  0.111E-02    3.13       1.6  T
   6    -59.5459734 -0.730218E-06  0.836E-03    3.13       2.1  T
   7    -59.5459740 -0.647355E-06  0.604E-03    3.13       3.0  T
   8    -59.5459746 -0.545555E-06  0.273E-03    3.13       6.6  T
   9    -59.5459747 -0.887940E-07  0.134E-03    3.13      13.4  T
  10    -59.5459747 -0.249463E-07  0.456E-04    3.13      39.4  T
  11    -59.5459747 -0.251982E-08  0.200E-04    3.13      90.0  T
     SCC iter.                  ...        0 min,  0.016 sec
     gradient                   ...        0 min,  0.052 sec
 * total energy  :   -58.9580126 Eh     change       -0.8122174E-02 Eh
   gradient norm :     0.0418952 Eh/α   predicted    -0.6162778E-02 ( -24.12%)
   displ. norm   :     0.2442187 α      lambda       -0.4466593E-02
   maximum displ.:     0.1021351 α      in ANC's #5, #20, #6, ...

........................................................................
.............................. CYCLE    3 ..............................
........................................................................

 iter      E             dE          RMSdq      gap      omega  full diag
   1    -59.5624946 -0.595625E+02  0.156E-01    3.22       0.0  T
   2    -59.5626556 -0.161008E-03  0.943E-02    3.18       1.0  T
   3    -59.5626917 -0.361177E-04  0.535E-02    3.19       1.0  T
   4    -59.5627050 -0.132553E-04  0.161E-02    3.19       1.1  T
   5    -59.5627094 -0.443766E-05  0.788E-03    3.19       2.3  T
   6    -59.5627098 -0.374282E-06  0.563E-03    3.19       3.2  T
   7    -59.5627101 -0.268749E-06  0.419E-03    3.19       4.3  T
   8    -59.5627103 -0.235379E-06  0.223E-03    3.19       8.1  T
   9    -59.5627104 -0.636180E-07  0.112E-03    3.19      16.0  T
  10    -59.5627104 -0.178529E-07  0.408E-04    3.19      44.0  T
  11    -59.5627104 -0.184493E-08  0.168E-04    3.19     106.6  T
     SCC iter.                  ...        0 min,  0.016 sec
     gradient                   ...        0 min,  0.015 sec
 * total energy  :   -58.9606281 Eh     change       -0.2615493E-02 Eh
   gradient norm :     0.0142658 Eh/α   predicted    -0.2367863E-02 (  -9.47%)
   displ. norm   :     0.1830609 α      lambda       -0.8980403E-03
   maximum displ.:     0.1014488 α      in ANC's #5, #6, #11, ...

........................................................................
.............................. CYCLE    4 ..............................
........................................................................

 iter      E             dE          RMSdq      gap      omega  full diag
   1    -59.5620686 -0.595621E+02  0.709E-02    3.20       0.0  T
   2    -59.5620873 -0.186600E-04  0.413E-02    3.19       1.0  T
   3    -59.5620869  0.432956E-06  0.233E-02    3.20       1.0  T
   4    -59.5620928 -0.597542E-05  0.544E-03    3.20       3.3  T
   5    -59.5620934 -0.597786E-06  0.230E-03    3.19       7.8  T
   6    -59.5620935 -0.292177E-07  0.100E-03    3.20      17.9  T
   7    -59.5620935 -0.800169E-08  0.524E-04    3.20      34.3  T
   8    -59.5620935 -0.159118E-08  0.325E-04    3.20      55.2  T
     SCC iter.                  ...        0 min,  0.011 sec
     gradient                   ...        0 min,  0.041 sec
 * total energy  :   -58.9613203 Eh     change       -0.6922189E-03 Eh
   gradient norm :     0.0154850 Eh/α   predicted    -0.4640946E-03 ( -32.96%)
   displ. norm   :     0.2936181 α      lambda       -0.1043774E-02
   maximum displ.:     0.1632202 α      in ANC's #5, #6, #7, ...

........................................................................
.............................. CYCLE    5 ..............................
........................................................................

 iter      E             dE          RMSdq      gap      omega  full diag
   1    -59.5593110 -0.595593E+02  0.102E-01    3.20       0.0  T
   2    -59.5593349 -0.238962E-04  0.599E-02    3.20       1.0  T
   3    -59.5593264  0.851121E-05  0.313E-02    3.20       1.0  T
   4    -59.5593435 -0.171821E-04  0.666E-03    3.20       2.7  T
   5    -59.5593442 -0.677468E-06  0.332E-03    3.20       5.4  T
   6    -59.5593443 -0.563844E-07  0.150E-03    3.20      12.0  T
   7    -59.5593443 -0.164930E-07  0.940E-04    3.20      19.1  T
   8    -59.5593443 -0.645712E-08  0.640E-04    3.20      28.1  T
     SCC iter.                  ...        0 min,  0.012 sec
     gradient                   ...        0 min,  0.015 sec
 * total energy  :   -58.9620140 Eh     change       -0.6937442E-03 Eh
   gradient norm :     0.0158761 Eh/α   predicted    -0.5668978E-03 ( -18.28%)
   displ. norm   :     0.2053091 α      lambda       -0.5092847E-03
   maximum displ.:     0.0991865 α      in ANC's #6, #5, #4, ...

........................................................................
.............................. CYCLE    6 ..............................
........................................................................

 iter      E             dE          RMSdq      gap      omega  full diag
   1    -59.5598639 -0.595599E+02  0.643E-02    3.21       0.0  T
   2    -59.5598697 -0.585861E-05  0.380E-02    3.20       1.0  T
   3    -59.5598649  0.487455E-05  0.174E-02    3.20       1.0  T
   4    -59.5598722 -0.738150E-05  0.362E-03    3.20       5.0  T
   5    -59.5598724 -0.128094E-06  0.192E-03    3.20       9.4  T
   6    -59.5598724 -0.156973E-07  0.795E-04    3.20      22.6  T
   7    -59.5598724 -0.484383E-08  0.502E-04    3.20      35.8  T
     SCC iter.                  ...        0 min,  0.010 sec
     gradient                   ...        0 min,  0.015 sec
 * total energy  :   -58.9623871 Eh     change       -0.3730446E-03 Eh
   gradient norm :     0.0099908 Eh/α   predicted    -0.2654664E-03 ( -28.84%)
   displ. norm   :     0.2694389 α      lambda       -0.4567307E-03
   maximum displ.:     0.1236630 α      in ANC's #6, #5, #1, ...

........................................................................
.............................. CYCLE    7 ..............................
........................................................................

 iter      E             dE          RMSdq      gap      omega  full diag
   1    -59.5609270 -0.595609E+02  0.773E-02    3.22       0.0  T
   2    -59.5609345 -0.753100E-05  0.463E-02    3.21       1.0  T
   3    -59.5609261  0.845488E-05  0.223E-02    3.21       1.0  T
   4    -59.5609385 -0.124039E-04  0.400E-03    3.21       4.5  T
   5    -59.5609386 -0.960782E-07  0.213E-03    3.21       8.4  T
   6    -59.5609386 -0.131878E-07  0.596E-04    3.21      30.1  T
   7    -59.5609386 -0.260921E-08  0.306E-04    3.21      58.6  T
     SCC iter.                  ...        0 min,  0.010 sec
     gradient                   ...        0 min,  0.015 sec
 * total energy  :   -58.9627009 Eh     change       -0.3138491E-03 Eh
   gradient norm :     0.0089330 Eh/α   predicted    -0.2449480E-03 ( -21.95%)
   displ. norm   :     0.2315469 α      lambda       -0.3557717E-03
   maximum displ.:     0.1071806 α      in ANC's #1, #6, #4, ...

........................................................................
.............................. CYCLE    8 ..............................
........................................................................

 iter      E             dE          RMSdq      gap      omega  full diag
   1    -59.5643282 -0.595643E+02  0.664E-02    3.22       0.0  T
   2    -59.5643324 -0.411495E-05  0.392E-02    3.22       1.0  T
   3    -59.5643296  0.273503E-05  0.124E-02    3.22       1.4  T
   4    -59.5643336 -0.400191E-05  0.343E-03    3.22       5.2  T
   5    -59.5643338 -0.130388E-06  0.169E-03    3.22      10.7  T
   6    -59.5643338 -0.156562E-07  0.752E-04    3.22      23.9  T
   7    -59.5643338 -0.315739E-08  0.487E-04    3.22      36.9  T
     SCC iter.                  ...        0 min,  0.010 sec
     gradient                   ...        0 min,  0.015 sec
 * total energy  :   -58.9628796 Eh     change       -0.1786782E-03 Eh
   gradient norm :     0.0071244 Eh/α   predicted    -0.1874246E-03 (   4.90%)
   displ. norm   :     0.1814846 α      lambda       -0.1585755E-03
   maximum displ.:     0.0910933 α      in ANC's #1, #6, #5, ...

........................................................................
.............................. CYCLE    9 ..............................
........................................................................

 iter      E             dE          RMSdq      gap      omega  full diag
   1    -59.5637446 -0.595637E+02  0.488E-02    3.23       0.0  T
   2    -59.5637470 -0.244124E-05  0.292E-02    3.23       1.0  T
   3    -59.5637440  0.304002E-05  0.131E-02    3.23       1.4  T
   4    -59.5637484 -0.440810E-05  0.264E-03    3.23       6.8  T
   5    -59.5637484 -0.233018E-07  0.147E-03    3.23      12.2  T
   6    -59.5637484 -0.840559E-08  0.570E-04    3.23      31.5  T
   7    -59.5637484 -0.295766E-08  0.377E-04    3.23      47.6  T
     SCC iter.                  ...        0 min,  0.037 sec
     gradient                   ...        0 min,  0.015 sec
 * total energy  :   -58.9629509 Eh     change       -0.7134394E-04 Eh
   gradient norm :     0.0058102 Eh/α   predicted    -0.8189959E-04 (  14.80%)
   displ. norm   :     0.0484845 α      lambda       -0.5870246E-04
   maximum displ.:     0.0291531 α      in ANC's #1, #8, #5, ...

........................................................................
.............................. CYCLE   10 ..............................
........................................................................

 iter      E             dE          RMSdq      gap      omega  full diag
   1    -59.5646016 -0.595646E+02  0.146E-02    3.22       0.0  T
   2    -59.5646019 -0.286515E-06  0.855E-03    3.23       2.1  T
   3    -59.5646016  0.246544E-06  0.392E-03    3.23       4.6  T
   4    -59.5646020 -0.360390E-06  0.740E-04    3.23      24.3  T
   5    -59.5646020 -0.696201E-08  0.412E-04    3.23      43.5  T
     SCC iter.                  ...        0 min,  0.007 sec
     gradient                   ...        0 min,  0.015 sec
 * total energy  :   -58.9629927 Eh     change       -0.4170667E-04 Eh
   gradient norm :     0.0025619 Eh/α   predicted    -0.2943693E-04 ( -29.42%)
   displ. norm   :     0.1069007 α      lambda       -0.6349400E-04
   maximum displ.:     0.0723161 α      in ANC's #1, #8, #3, ...

........................................................................
.............................. CYCLE   11 ..............................
........................................................................

 iter      E             dE          RMSdq      gap      omega  full diag
   1    -59.5649497 -0.595649E+02  0.270E-02    3.22       0.0  T
   2    -59.5649502 -0.503974E-06  0.161E-02    3.22       1.1  T
   3    -59.5649500  0.194125E-06  0.373E-03    3.22       4.8  T
   4    -59.5649504 -0.328718E-06  0.130E-03    3.22      13.8  T
   5    -59.5649504 -0.168981E-07  0.815E-04    3.22      22.0  T
   6    -59.5649504 -0.458220E-08  0.459E-04    3.22      39.2  T
     SCC iter.                  ...        0 min,  0.009 sec
     gradient                   ...        0 min,  0.048 sec
 * total energy  :   -58.9630308 Eh     change       -0.3811397E-04 Eh
   gradient norm :     0.0036767 Eh/α   predicted    -0.3211053E-04 ( -15.75%)
   displ. norm   :     0.1251814 α      lambda       -0.4392698E-04
   maximum displ.:     0.0885429 α      in ANC's #1, #3, #6, ...

........................................................................
.............................. CYCLE   12 ..............................
........................................................................

 iter      E             dE          RMSdq      gap      omega  full diag
   1    -59.5640805 -0.595641E+02  0.298E-02    3.22       0.0  T
   2    -59.5640809 -0.369794E-06  0.177E-02    3.22       1.0  T
   3    -59.5640809 -0.121086E-07  0.264E-03    3.22       6.8  T
   4    -59.5640810 -0.100759E-06  0.120E-03    3.22      15.0  T
   5    -59.5640810 -0.591523E-08  0.732E-04    3.22      24.5  T
   6    -59.5640810 -0.391945E-08  0.402E-04    3.22      44.7  T
     SCC iter.                  ...        0 min,  0.009 sec
     gradient                   ...        0 min,  0.015 sec
 * total energy  :   -58.9630607 Eh     change       -0.2991501E-04 Eh
   gradient norm :     0.0036859 Eh/α   predicted    -0.2231174E-04 ( -25.42%)
   displ. norm   :     0.1283203 α      lambda       -0.5111179E-04
   maximum displ.:     0.0889721 α      in ANC's #1, #3, #4, ...

........................................................................
.............................. CYCLE   13 ..............................
........................................................................

 iter      E             dE          RMSdq      gap      omega  full diag
   1    -59.5641681 -0.595642E+02  0.296E-02    3.22       0.0  T
   2    -59.5641685 -0.443948E-06  0.176E-02    3.22       1.0  T
   3    -59.5641684  0.162257E-06  0.339E-03    3.22       5.3  T
   4    -59.5641687 -0.274670E-06  0.117E-03    3.22      15.4  T
   5    -59.5641687 -0.139532E-07  0.679E-04    3.22      26.5  T
   6    -59.5641687 -0.246509E-08  0.349E-04    3.22      51.4  T
     SCC iter.                  ...        0 min,  0.009 sec
     gradient                   ...        0 min,  0.015 sec
 * total energy  :   -58.9631005 Eh     change       -0.3986229E-04 Eh
   gradient norm :     0.0035202 Eh/α   predicted    -0.2597767E-04 ( -34.83%)
   displ. norm   :     0.2033579 α      lambda       -0.7740311E-04
   maximum displ.:     0.1378702 α      in ANC's #1, #3, #6, ...

........................................................................
.............................. CYCLE   14 ..............................
........................................................................

 iter      E             dE          RMSdq      gap      omega  full diag
   1    -59.5634956 -0.595635E+02  0.482E-02    3.22       0.0  T
   2    -59.5634965 -0.830041E-06  0.289E-02    3.22       1.0  T
   3    -59.5634958  0.667286E-06  0.623E-03    3.22       2.9  T
   4    -59.5634968 -0.100458E-05  0.182E-03    3.22       9.9  T
   5    -59.5634968 -0.151025E-07  0.102E-03    3.22      17.7  T
   6    -59.5634968 -0.386596E-08  0.493E-04    3.22      36.4  T
   7    -59.5634968 -0.185460E-08  0.348E-04    3.22      51.6  T
     SCC iter.                  ...        0 min,  0.010 sec
     gradient                   ...        0 min,  0.017 sec
 * total energy  :   -58.9631588 Eh     change       -0.5820728E-04 Eh
   gradient norm :     0.0034847 Eh/α   predicted    -0.4030702E-04 ( -30.75%)
   displ. norm   :     0.2814872 α      lambda       -0.9210743E-04
   maximum displ.:     0.1965030 α      in ANC's #1, #3, #4, ...

........................................................................
.............................. CYCLE   15 ..............................
........................................................................

 iter      E             dE          RMSdq      gap      omega  full diag
   1    -59.5632806 -0.595633E+02  0.644E-02    3.22       0.0  T
   2    -59.5632822 -0.153920E-05  0.386E-02    3.22       1.0  T
   3    -59.5632815  0.643938E-06  0.707E-03    3.22       2.5  T
   4    -59.5632827 -0.119398E-05  0.252E-03    3.22       7.1  T
   5    -59.5632827 -0.353117E-07  0.146E-03    3.22      12.3  T
   6    -59.5632827 -0.883658E-08  0.687E-04    3.22      26.1  T
   7    -59.5632828 -0.290584E-08  0.498E-04    3.22      36.0  T
     SCC iter.                  ...        0 min,  0.010 sec
     gradient                   ...        0 min,  0.015 sec
 * total energy  :   -58.9632166 Eh     change       -0.5789018E-04 Eh
   gradient norm :     0.0058124 Eh/α   predicted    -0.4970442E-04 ( -14.14%)
   displ. norm   :     0.2436047 α      lambda       -0.8506452E-04
   maximum displ.:     0.1699800 α      in ANC's #1, #3, #6, ...

........................................................................
.............................. CYCLE   16 ..............................
........................................................................

 iter      E             dE          RMSdq      gap      omega  full diag
   1    -59.5633375 -0.595633E+02  0.518E-02    3.22       0.0  T
   2    -59.5633385 -0.986678E-06  0.311E-02    3.22       1.0  T
   3    -59.5633383  0.142565E-06  0.446E-03    3.21       4.0  T
   4    -59.5633388 -0.432693E-06  0.191E-03    3.22       9.4  T
   5    -59.5633388 -0.262581E-07  0.118E-03    3.22      15.3  T
   6    -59.5633388 -0.820729E-08  0.551E-04    3.22      32.6  T
   7    -59.5633388 -0.188533E-08  0.383E-04    3.22      46.9  T
     SCC iter.                  ...        0 min,  0.010 sec
     gradient                   ...        0 min,  0.015 sec
 * total energy  :   -58.9632808 Eh     change       -0.6419640E-04 Eh
   gradient norm :     0.0046572 Eh/α   predicted    -0.4505845E-04 ( -29.81%)
   displ. norm   :     0.3399662 α      lambda       -0.1157151E-03
   maximum displ.:     0.2459193 α      in ANC's #1, #3, #6, ...

........................................................................
.............................. CYCLE   17 ..............................
........................................................................

 iter      E             dE          RMSdq      gap      omega  full diag
   1    -59.5636381 -0.595636E+02  0.680E-02    3.21       0.0  T
   2    -59.5636401 -0.201652E-05  0.406E-02    3.21       1.0  T
   3    -59.5636399  0.179502E-06  0.587E-03    3.21       3.1  T
   4    -59.5636406 -0.672541E-06  0.240E-03    3.21       7.5  T
   5    -59.5636406 -0.416651E-07  0.149E-03    3.21      12.1  T
   6    -59.5636406 -0.183052E-07  0.657E-04    3.21      27.3  T
   7    -59.5636406 -0.242537E-08  0.470E-04    3.21      38.2  T
     SCC iter.                  ...        0 min,  0.039 sec
     gradient                   ...        0 min,  0.015 sec
 * total energy  :   -58.9633704 Eh     change       -0.8955187E-04 Eh
   gradient norm :     0.0041062 Eh/α   predicted    -0.6454610E-04 ( -27.92%)
   displ. norm   :     0.2996406 α      lambda       -0.1019110E-03
   maximum displ.:     0.2195018 α      in ANC's #1, #3, #6, ...

........................................................................
.............................. CYCLE   18 ..............................
........................................................................

 iter      E             dE          RMSdq      gap      omega  full diag
   1    -59.5641207 -0.595641E+02  0.577E-02    3.21       0.0  T
   2    -59.5641225 -0.177329E-05  0.343E-02    3.21       1.0  T
   3    -59.5641218  0.725821E-06  0.673E-03    3.21       2.7  T
   4    -59.5641229 -0.115094E-05  0.240E-03    3.21       7.5  T
   5    -59.5641230 -0.764544E-07  0.146E-03    3.21      12.3  T
   6    -59.5641230 -0.147112E-07  0.726E-04    3.21      24.7  T
   7    -59.5641230 -0.317757E-08  0.554E-04    3.21      32.4  T
     SCC iter.                  ...        0 min,  0.010 sec
     gradient                   ...        0 min,  0.015 sec
 * total energy  :   -58.9634465 Eh     change       -0.7614200E-04 Eh
   gradient norm :     0.0035618 Eh/α   predicted    -0.5553398E-04 ( -27.07%)
   displ. norm   :     0.2722896 α      lambda       -0.6539945E-04
   maximum displ.:     0.1996126 α      in ANC's #1, #3, #6, ...

........................................................................
.............................. CYCLE   19 ..............................
........................................................................

 iter      E             dE          RMSdq      gap      omega  full diag
   1    -59.5634463 -0.595634E+02  0.523E-02    3.20       0.0  T
   2    -59.5634478 -0.154230E-05  0.311E-02    3.20       1.0  T
   3    -59.5634467  0.108696E-05  0.718E-03    3.20       2.5  T
   4    -59.5634483 -0.153691E-05  0.228E-03    3.20       7.9  T
   5    -59.5634483 -0.635800E-07  0.141E-03    3.20      12.8  T
   6    -59.5634483 -0.116390E-07  0.761E-04    3.20      23.6  T
   7    -59.5634483 -0.396479E-08  0.592E-04    3.20      30.3  T
     SCC iter.                  ...        0 min,  0.043 sec
     gradient                   ...        0 min,  0.015 sec
 * total energy  :   -58.9634962 Eh     change       -0.4965409E-04 Eh
   gradient norm :     0.0033014 Eh/α   predicted    -0.3512935E-04 ( -29.25%)
   displ. norm   :     0.1855945 α      lambda       -0.5413621E-04
   maximum displ.:     0.1401150 α      in ANC's #1, #3, #4, ...

........................................................................
.............................. CYCLE   20 ..............................
........................................................................

 iter      E             dE          RMSdq      gap      omega  full diag
   1    -59.5647671 -0.595648E+02  0.366E-02    3.20       0.0  T
   2    -59.5647680 -0.815035E-06  0.216E-02    3.20       1.0  T
   3    -59.5647670  0.953259E-06  0.615E-03    3.20       2.9  T
   4    -59.5647683 -0.125026E-05  0.146E-03    3.20      12.3  T
   5    -59.5647683 -0.195208E-07  0.863E-04    3.20      20.8  T
   6    -59.5647683 -0.312924E-08  0.468E-04    3.20      38.3  T
     SCC iter.                  ...        0 min,  0.009 sec
     gradient                   ...        0 min,  0.015 sec
 * total energy  :   -58.9635297 Eh     change       -0.3348631E-04 Eh
   gradient norm :     0.0030881 Eh/α   predicted    -0.2800403E-04 ( -16.37%)
   displ. norm   :     0.2479910 α      lambda       -0.4142225E-04
   maximum displ.:     0.1901269 α      in ANC's #1, #3, #6, ...
 * RMSD in coord.:     0.6069427 α      energy gain  -0.1363927E-01 Eh

generating ANC from exact Hessian ...
Using Lindh-Hessian (1995)
 Shifting diagonal of input Hessian by    9.2305168307338821E-003
 Lowest  eigenvalues of input Hessian
    0.000000    0.000000    0.000000    0.000000    0.000000    0.000000
    0.010000    0.010294    0.011047    0.012477    0.014729    0.015252
    0.018952    0.020431    0.021782    0.024914    0.026012    0.026789
 Highest eigenvalues
    1.942562    2.012411    2.148501    2.191379    2.318888    2.347990


........................................................................
.............................. CYCLE   21 ..............................
........................................................................

 iter      E             dE          RMSdq      gap      omega  full diag
   1    -59.5631911 -0.595632E+02  0.491E-02    3.19       0.0  T
   2    -59.5631923 -0.118210E-05  0.292E-02    3.20       1.0  T
   3    -59.5631914  0.921099E-06  0.632E-03    3.19       2.8  T
   4    -59.5631927 -0.129480E-05  0.188E-03    3.20       9.5  T
   5    -59.5631927 -0.311837E-07  0.106E-03    3.20      16.9  T
   6    -59.5631927 -0.489681E-08  0.503E-04    3.20      35.7  T
   7    -59.5631927 -0.159457E-08  0.355E-04    3.20      50.6  T
     SCC iter.                  ...        0 min,  0.010 sec
     gradient                   ...        0 min,  0.015 sec
 * total energy  :   -58.9635507 Eh     change       -0.2099696E-04 Eh
   gradient norm :     0.0025581 Eh/α   predicted     0.0000000E+00 (-100.00%)
   displ. norm   :     0.0278574 α      lambda       -0.2357790E-04
   maximum displ.:     0.0147361 α      in ANC's #3, #1, #2, ...

........................................................................
.............................. CYCLE   22 ..............................
........................................................................

 iter      E             dE          RMSdq      gap      omega  full diag
   1    -59.5639514 -0.595640E+02  0.925E-03    3.20       0.0  T
   2    -59.5639515 -0.172823E-06  0.525E-03    3.20       3.4  T
   3    -59.5639515  0.528125E-07  0.239E-03    3.20       7.5  T
   4    -59.5639516 -0.104200E-06  0.638E-04    3.20      28.1  T
   5    -59.5639516 -0.623304E-08  0.383E-04    3.20      46.9  T
     SCC iter.                  ...        0 min,  0.007 sec
     gradient                   ...        0 min,  0.015 sec
 * total energy  :   -58.9635702 Eh     change       -0.1953312E-04 Eh
   gradient norm :     0.0013394 Eh/α   predicted    -0.1188973E-04 ( -39.13%)
   displ. norm   :     0.1255030 α      lambda       -0.4431372E-04
   maximum displ.:     0.0697485 α      in ANC's #3, #1, #2, ...

........................................................................
.............................. CYCLE   23 ..............................
........................................................................

 iter      E             dE          RMSdq      gap      omega  full diag
   1    -59.5654131 -0.595654E+02  0.379E-02    3.21       0.0  T
   2    -59.5654156 -0.252679E-05  0.216E-02    3.20       1.0  T
   3    -59.5654146  0.959456E-06  0.917E-03    3.21       2.0  T
   4    -59.5654164 -0.175951E-05  0.252E-03    3.20       7.1  T
   5    -59.5654165 -0.826285E-07  0.155E-03    3.20      11.6  T
   6    -59.5654165 -0.134702E-07  0.924E-04    3.20      19.4  T
   7    -59.5654165 -0.735698E-08  0.687E-04    3.20      26.2  T
     SCC iter.                  ...        0 min,  0.010 sec
     gradient                   ...        0 min,  0.033 sec
 * total energy  :   -58.9636027 Eh     change       -0.3246183E-04 Eh
   gradient norm :     0.0031531 Eh/α   predicted    -0.2231237E-04 ( -31.27%)
   displ. norm   :     0.0341500 α      lambda       -0.1552513E-04
   maximum displ.:     0.0226964 α      in ANC's #1, #3, #2, ...

........................................................................
.............................. CYCLE   24 ..............................
........................................................................

 iter      E             dE          RMSdq      gap      omega  full diag
   1    -59.5651365 -0.595651E+02  0.102E-02    3.20       0.0  T
   2    -59.5651365 -0.502471E-07  0.597E-03    3.20       3.0  T
   3    -59.5651365  0.412306E-08  0.103E-03    3.20      17.5  T
   4    -59.5651365 -0.235832E-07  0.472E-04    3.20      38.1  T
   5    -59.5651365 -0.776417E-09  0.264E-04    3.20      68.0  T
     SCC iter.                  ...        0 min,  0.007 sec
     gradient                   ...        0 min,  0.015 sec
 * total energy  :   -58.9636169 Eh     change       -0.1420510E-04 Eh
   gradient norm :     0.0024306 Eh/α   predicted    -0.7772009E-05 ( -45.29%)
   displ. norm   :     0.1356724 α      lambda       -0.5201396E-04
   maximum displ.:     0.0878101 α      in ANC's #1, #3, #2, ...

........................................................................
.............................. CYCLE   25 ..............................
........................................................................

 iter      E             dE          RMSdq      gap      omega  full diag
   1    -59.5640749 -0.595641E+02  0.413E-02    3.21       0.0  T
   2    -59.5640755 -0.607635E-06  0.242E-02    3.20       1.0  T
   3    -59.5640756 -0.125222E-06  0.302E-03    3.21       5.9  T
   4    -59.5640758 -0.133554E-06  0.164E-03    3.20      11.0  T
   5    -59.5640758 -0.741472E-08  0.651E-04    3.20      27.6  T
   6    -59.5640758 -0.405319E-08  0.412E-04    3.20      43.6  T
     SCC iter.                  ...        0 min,  0.009 sec
     gradient                   ...        0 min,  0.015 sec
 * total energy  :   -58.9636534 Eh     change       -0.3654763E-04 Eh
   gradient norm :     0.0009262 Eh/α   predicted    -0.2648583E-04 ( -27.53%)
   displ. norm   :     0.1856718 α      lambda       -0.2304916E-04
   maximum displ.:     0.1204026 α      in ANC's #1, #3, #2, ...

........................................................................
.............................. CYCLE   26 ..............................
........................................................................

 iter      E             dE          RMSdq      gap      omega  full diag
   1    -59.5632543 -0.595633E+02  0.550E-02    3.21       0.0  T
   2    -59.5632552 -0.906739E-06  0.322E-02    3.21       1.0  T
   3    -59.5632555 -0.344707E-06  0.337E-03    3.21       5.3  T
   4    -59.5632556 -0.771571E-07  0.211E-03    3.20       8.5  T
   5    -59.5632556 -0.223368E-07  0.878E-04    3.21      20.5  T
   6    -59.5632556 -0.774518E-08  0.624E-04    3.21      28.8  T
     SCC iter.                  ...        0 min,  0.036 sec
     gradient                   ...        0 min,  0.015 sec
 * total energy  :   -58.9636750 Eh     change       -0.2160954E-04 Eh
   gradient norm :     0.0019007 Eh/α   predicted    -0.1171058E-04 ( -45.81%)
   displ. norm   :     0.0903982 α      lambda       -0.1243287E-04
   maximum displ.:     0.0589745 α      in ANC's #1, #2, #3, ...

........................................................................
.............................. CYCLE   27 ..............................
........................................................................

 iter      E             dE          RMSdq      gap      omega  full diag
   1    -59.5640739 -0.595641E+02  0.260E-02    3.21       0.0  T
   2    -59.5640741 -0.165079E-06  0.152E-02    3.21       1.2  T
   3    -59.5640742 -0.592126E-07  0.157E-03    3.21      11.4  T
   4    -59.5640742 -0.218218E-07  0.101E-03    3.21      17.8  T
   5    -59.5640742 -0.613322E-08  0.471E-04    3.21      38.1  T
   6    -59.5640742 -0.206322E-08  0.333E-04    3.21      53.9  T
     SCC iter.                  ...        0 min,  0.009 sec
     gradient                   ...        0 min,  0.015 sec
 * total energy  :   -58.9636903 Eh     change       -0.1523644E-04 Eh
   gradient norm :     0.0011353 Eh/α   predicted    -0.6239705E-05 ( -59.05%)
   displ. norm   :     0.1202752 α      lambda       -0.1397745E-04
   maximum displ.:     0.0789151 α      in ANC's #1, #2, #3, ...

........................................................................
.............................. CYCLE   28 ..............................
........................................................................

 iter      E             dE          RMSdq      gap      omega  full diag
   1    -59.5647090 -0.595647E+02  0.330E-02    3.21       0.0  T
   2    -59.5647092 -0.247687E-06  0.193E-02    3.21       1.0  T
   3    -59.5647093 -0.612262E-07  0.203E-03    3.21       8.8  T
   4    -59.5647093 -0.558267E-07  0.123E-03    3.21      14.6  T
   5    -59.5647093 -0.691217E-08  0.646E-04    3.21      27.8  T
   6    -59.5647094 -0.442625E-08  0.410E-04    3.21      43.8  T
     SCC iter.                  ...        0 min,  0.009 sec
     gradient                   ...        0 min,  0.015 sec
 * total energy  :   -58.9637058 Eh     change       -0.1549129E-04 Eh
   gradient norm :     0.0005789 Eh/α   predicted    -0.7035032E-05 ( -54.59%)
   displ. norm   :     0.0976297 α      lambda       -0.7956813E-05
   maximum displ.:     0.0654226 α      in ANC's #1, #2, #3, ...

........................................................................
.............................. CYCLE   29 ..............................
........................................................................

 iter      E             dE          RMSdq      gap      omega  full diag
   1    -59.5649725 -0.595650E+02  0.255E-02    3.21       0.0  T
   2    -59.5649726 -0.131128E-06  0.150E-02    3.21       1.2  T
   3    -59.5649725  0.458670E-07  0.197E-03    3.21       9.1  T
   4    -59.5649726 -0.109222E-06  0.919E-04    3.21      19.5  T
   5    -59.5649726 -0.408516E-08  0.535E-04    3.21      33.5  T
     SCC iter.                  ...        0 min,  0.007 sec
     gradient                   ...        0 min,  0.015 sec
 * total energy  :   -58.9637148 Eh     change       -0.9036361E-05 Eh
   gradient norm :     0.0009537 Eh/α   predicted    -0.3996291E-05 ( -55.78%)
   displ. norm   :     0.0739166 α      lambda       -0.5413548E-05
   maximum displ.:     0.0508194 α      in ANC's #1, #2, #3, ...

........................................................................
.............................. CYCLE   30 ..............................
........................................................................

 iter      E             dE          RMSdq      gap      omega  full diag
   1    -59.5648299 -0.595648E+02  0.175E-02    3.21       0.0  T
   2    -59.5648299 -0.671446E-07  0.103E-02    3.21       1.7  T
   3    -59.5648300 -0.674545E-08  0.120E-03    3.21      15.0  T
   4    -59.5648300 -0.233785E-07  0.702E-04    3.21      25.6  T
   5    -59.5648300 -0.273945E-08  0.427E-04    3.21      42.0  T
     SCC iter.                  ...        0 min,  0.007 sec
     gradient                   ...        0 min,  0.015 sec
 * total energy  :   -58.9637218 Eh     change       -0.7035756E-05 Eh
   gradient norm :     0.0007379 Eh/α   predicted    -0.2715953E-05 ( -61.40%)
   displ. norm   :     0.0737426 α      lambda       -0.6542097E-05
   maximum displ.:     0.0506321 α      in ANC's #2, #1, #5, ...

........................................................................
.............................. CYCLE   31 ..............................
........................................................................

 iter      E             dE          RMSdq      gap      omega  full diag
   1    -59.5647477 -0.595647E+02  0.165E-02    3.21       0.0  T
   2    -59.5647478 -0.730870E-07  0.971E-03    3.21       1.8  T
   3    -59.5647477  0.112023E-07  0.135E-03    3.21      13.3  T
   4    -59.5647478 -0.396881E-07  0.611E-04    3.21      29.4  T
   5    -59.5647478 -0.199289E-08  0.343E-04    3.21      52.4  T
     SCC iter.                  ...        0 min,  0.007 sec
     gradient                   ...        0 min,  0.015 sec
 * total energy  :   -58.9637307 Eh     change       -0.8886071E-05 Eh
   gradient norm :     0.0007481 Eh/α   predicted    -0.3285272E-05 ( -63.03%)
   displ. norm   :     0.1216932 α      lambda       -0.1098962E-04
   maximum displ.:     0.0850725 α      in ANC's #2, #1, #5, ...

........................................................................
.............................. CYCLE   32 ..............................
........................................................................

 iter      E             dE          RMSdq      gap      omega  full diag
   1    -59.5645046 -0.595645E+02  0.269E-02    3.21       0.0  T
   2    -59.5645048 -0.210029E-06  0.158E-02    3.21       1.1  T
   3    -59.5645048 -0.277316E-07  0.184E-03    3.21       9.8  T
   4    -59.5645049 -0.513245E-07  0.913E-04    3.21      19.7  T
   5    -59.5645049 -0.336099E-08  0.410E-04    3.21      43.8  T
     SCC iter.                  ...        0 min,  0.016 sec
     gradient                   ...        0 min,  0.015 sec
 * total energy  :   -58.9637449 Eh     change       -0.1423599E-04 Eh
   gradient norm :     0.0006875 Eh/α   predicted    -0.5535775E-05 ( -61.11%)
   displ. norm   :     0.1770747 α      lambda       -0.1332266E-04
   maximum displ.:     0.1243757 α      in ANC's #2, #1, #8, ...

........................................................................
.............................. CYCLE   33 ..............................
........................................................................

 iter      E             dE          RMSdq      gap      omega  full diag
   1    -59.5642142 -0.595642E+02  0.386E-02    3.21       0.0  T
   2    -59.5642146 -0.430690E-06  0.226E-02    3.21       1.0  T
   3    -59.5642147 -0.899429E-07  0.238E-03    3.21       7.6  T
   4    -59.5642148 -0.705988E-07  0.124E-03    3.20      14.5  T
   5    -59.5642148 -0.515294E-08  0.516E-04    3.20      34.8  T
   6    -59.5642148 -0.340961E-08  0.225E-04    3.20      79.8  T
     SCC iter.                  ...        0 min,  0.009 sec
     gradient                   ...        0 min,  0.015 sec
 * total energy  :   -58.9637603 Eh     change       -0.1536788E-04 Eh
   gradient norm :     0.0010406 Eh/α   predicted    -0.6757339E-05 ( -56.03%)
   displ. norm   :     0.1699380 α      lambda       -0.9173496E-05
   maximum displ.:     0.1197618 α      in ANC's #2, #1, #8, ...

........................................................................
.............................. CYCLE   34 ..............................
........................................................................

 iter      E             dE          RMSdq      gap      omega  full diag
   1    -59.5640604 -0.595641E+02  0.365E-02    3.20       0.0  T
   2    -59.5640607 -0.349270E-06  0.214E-02    3.20       1.0  T
   3    -59.5640608 -0.617309E-07  0.226E-03    3.20       7.9  T
   4    -59.5640608 -0.751156E-07  0.123E-03    3.20      14.7  T
   5    -59.5640609 -0.776491E-08  0.539E-04    3.20      33.3  T
   6    -59.5640609 -0.425133E-08  0.250E-04    3.20      71.9  T
     SCC iter.                  ...        0 min,  0.009 sec
     gradient                   ...        0 min,  0.015 sec
 * total energy  :   -58.9637700 Eh     change       -0.9688992E-05 Eh
   gradient norm :     0.0011524 Eh/α   predicted    -0.4649805E-05 ( -52.01%)
   displ. norm   :     0.1200089 α      lambda       -0.5281487E-05
   maximum displ.:     0.0844399 α      in ANC's #2, #1, #8, ...

........................................................................
.............................. CYCLE   35 ..............................
........................................................................

 iter      E             dE          RMSdq      gap      omega  full diag
   1    -59.5642619 -0.595643E+02  0.254E-02    3.20       0.0  T
   2    -59.5642621 -0.166816E-06  0.149E-02    3.20       1.2  T
   3    -59.5642620  0.299119E-07  0.202E-03    3.20       8.9  T
   4    -59.5642621 -0.938546E-07  0.902E-04    3.20      19.9  T
   5    -59.5642621 -0.566025E-08  0.485E-04    3.20      37.0  T
     SCC iter.                  ...        0 min,  0.016 sec
     gradient                   ...        0 min,  0.015 sec
 * total energy  :   -58.9637758 Eh     change       -0.5770426E-05 Eh
   gradient norm :     0.0007010 Eh/α   predicted    -0.2659325E-05 ( -53.91%)
   displ. norm   :     0.1008330 α      lambda       -0.3891014E-05
   maximum displ.:     0.0702675 α      in ANC's #2, #1, #6, ...

........................................................................
.............................. CYCLE   36 ..............................
........................................................................

 iter      E             dE          RMSdq      gap      omega  full diag
   1    -59.5645818 -0.595646E+02  0.216E-02    3.20       0.0  T
   2    -59.5645819 -0.975534E-07  0.126E-02    3.20       1.4  T
   3    -59.5645819  0.131649E-07  0.165E-03    3.20      10.9  T
   4    -59.5645819 -0.579163E-07  0.795E-04    3.20      22.6  T
   5    -59.5645819 -0.359040E-08  0.435E-04    3.20      41.3  T
     SCC iter.                  ...        0 min,  0.007 sec
     gradient                   ...        0 min,  0.015 sec
 * total energy  :   -58.9637799 Eh     change       -0.4108412E-05 Eh
   gradient norm :     0.0004256 Eh/α   predicted    -0.1959045E-05 ( -52.32%)
   displ. norm   :     0.0761247 α      lambda       -0.2006581E-05
   maximum displ.:     0.0518740 α      in ANC's #2, #1, #6, ...

   *** GEOMETRY OPTIMIZATION CONVERGED AFTER 36 ITERATIONS ***

------------------------------------------------------------------------
 total energy gain   :        -0.0138895 Eh       -8.7158 kcal/mol
 total RMSD          :         0.7788007 a0        0.4121 Å
 total power (kW/mol):        -1.0129677 (step)  -24.5657 (real)
------------------------------------------------------------------------

 ANCopt (total)                0 d,  0 h,  0 min,  1.484 sec
 optimizer setup                ...        0 min,  0.000 sec (  0.005%)
 model hessian                  ...        0 min,  0.060 sec (  4.068%)
 ANC generation                 ...        0 min,  0.002 sec (  0.113%)
 coordinate transformation      ...        0 min,  0.000 sec (  0.013%)
 single point calculation       ...        0 min,  1.413 sec ( 95.158%)
 optimization log               ...        0 min,  0.005 sec (  0.326%)
 hessian update                 ...        0 min,  0.000 sec (  0.021%)
 rational function              ...        0 min,  0.002 sec (  0.165%)

================
 final structure:
================
31
 xtb: 6.7.1 (edcfbbe)
N            4.41278625789613        1.03307825279530       -1.74353090297600
C            3.54499750074750        0.91649898061584       -0.73122370149291
N            3.78778361625119        1.58381852880828        0.39971627757260
C            2.93414879951571        1.48408565638681        1.40135910010263
Cl           3.34440777598579        2.37384511522658        2.79523771751930
N            1.81480601810641        0.79586161040139        1.47448202304894
C            1.56713326835292        0.12202706807356        0.34963613888691
C            2.38094353154755        0.12719402375601       -0.79614211880788
N            1.82815238757263       -0.68299950140547       -1.75400541603910
C            0.74542879747730       -1.15096742567876       -1.21312056365839
N            0.51679406469075       -0.69485600540193        0.05844652912565
C           -0.57927469318512       -1.02907875352194        0.95154802032318
C           -1.23759836264371        0.23910635640295        1.52183816938304
C           -2.73802003663514        0.02290915526123        1.27334372664711
C           -2.74220399659642       -0.97328336943994        0.09840888790650
O           -1.55808341170882       -1.75452479544335        0.26267139931457
C           -2.81680724542317       -0.28457777330437       -1.27719407420043
O           -1.90476729726616        0.76820063130706       -1.44389736670474
O           -3.41980158333616       -0.47034186220680        2.39282068732092
H            4.25505821877292        0.51806018741165       -2.59033524680865
H            5.23372472422920        1.59848564545217       -1.62002498838033
H            0.08015289491882       -1.84457368688354       -1.68847591626919
H           -0.16655085760105       -1.67698716819395        1.74054157066778
H           -0.88963287298212        1.11822887975645        0.98287826474273
H           -1.02040007231896        0.37164427017183        2.57862495319527
H           -3.24499261776924        0.95166498856831        1.00852269535436
H           -3.58343955218571       -1.67029139389540        0.17349696126306
H           -3.80946988987877        0.15971640077597       -1.38047163463529
H           -2.68933657633425       -1.04727074853573       -2.05624067725893
H           -1.01740453240572        0.40710696434753       -1.55913525320812
H           -3.02853425780107       -1.31158023160440        2.65802473806029

 Bond Distances (Angstroems)
 ---------------------------
N1-C2=1.3384         N1-H20=1.0036        N1-H21=1.0044        C2-N1=1.3384         C2-N3=1.3354         C2-C8=1.4079         
N3-C2=1.3354         N3-C4=1.3198         C4-N3=1.3198         C4-Cl5=1.7038        C4-N6=1.3160         Cl5-C4=1.7038        
N6-C4=1.3160         N6-C7=1.3344         C7-N6=1.3344         C7-C8=1.4054         C7-N11=1.3621        C8-C2=1.4079         
C8-C7=1.4054         C8-N9=1.3709         N9-C8=1.3709         N9-C10=1.2976        C10-N9=1.2976        C10-N11=1.3701       
C10-H22=1.0722       N11-C7=1.3621        N11-C10=1.3701       N11-C12=1.4528       C12-N11=1.4528       C12-C13=1.5385       
C12-O16=1.3996       C12-H23=1.1012       C13-C12=1.5385       C13-C14=1.5361       C13-H24=1.0883       C13-H25=1.0870       
C14-C13=1.5361       C14-C15=1.5404       C14-O19=1.4005       C14-H26=1.0908       C15-C14=1.5404       C15-O16=1.4281       
C15-C17=1.5402       C15-H27=1.0951       O16-C12=1.3996       O16-C15=1.4281       C17-C15=1.5402       C17-O18=1.4028       
C17-H28=1.0924       C17-H29=1.0977       O18-C17=1.4028       O18-H30=0.9649       O19-C14=1.4005       O19-H31=0.9649       
H20-N1=1.0036        H21-N1=1.0044        H22-C10=1.0722       H23-C12=1.1012       H24-C13=1.0883       H25-C13=1.0870       
H26-C14=1.0908       H27-C15=1.0951       H28-C17=1.0924       H29-C17=1.0977       H30-O18=0.9649       H31-O19=0.9649       
 C  H  Rav=1.0906 sigma=0.0082  Rmin=1.0722  Rmax=1.1012     8
 C  C  Rav=1.4948 sigma=0.0623  Rmin=1.4054  Rmax=1.5404     6
 N  H  Rav=1.0040 sigma=0.0004  Rmin=1.0036  Rmax=1.0044     2
 N  C  Rav=1.3498 sigma=0.0412  Rmin=1.2976  Rmax=1.4528    10
 O  H  Rav=0.9649 sigma=0.0000  Rmin=0.9649  Rmax=0.9649     2
 O  C  Rav=1.4078 sigma=0.0118  Rmin=1.3996  Rmax=1.4281     4
 Cl C  Rav=1.7038 sigma=0.0000  Rmin=1.7038  Rmax=1.7038     1

 selected bond angles (degree)
 --------------------
H20-N1-C2=119.44               H21-N1-C2=119.07               H21-N1-H20=121.40              N3-C2-N1=118.63                
C8-C2-N1=123.37                C8-C2-N3=118.00                C4-N3-C2=119.17                Cl5-C4-N3=115.19               
N6-C4-N3=129.18                N6-C4-Cl5=115.62               C7-N6-C4=112.03                C8-C7-N6=125.30                
N11-C7-N6=128.77               N11-C7-C8=105.93               C7-C8-C2=116.31                N9-C8-C2=134.18                
N9-C8-C7=109.51                C10-N9-C8=104.97               N11-C10-N9=113.96              H22-C10-N9=124.49              
H22-C10-N11=121.55             

 selected dihedral angles (degree)
 ---------------------------------
N3-C2-N1-H20=178.40           N3-C2-N1-H21=  1.54           C8-C2-N1-H20=358.18           C8-C2-N1-H21=181.32           
C4-N3-C2-N1=179.52            C4-N3-C2-C8=359.73            Cl5-C4-N3-C2=179.87           N6-C4-N3-C2=359.90            
C7-N6-C4-N3=  0.32            C7-N6-C4-Cl5=180.35           C8-C7-N6-C4=359.83            N11-C7-N6-C4=179.72           
C7-C8-C2-N1=180.60            C7-C8-C2-N3=  0.38            N9-C8-C2-N1=  1.05            N9-C8-C2-N3=180.84            
C2-C8-C7-N6=359.84            C2-C8-C7-N11=179.93           N9-C8-C7-N6=179.49            N9-C8-C7-N11=359.59           
C10-N9-C8-C2=179.42           C10-N9-C8-C7=359.85           N11-C10-N9-C8=  0.68          H22-C10-N9-C8=181.62          
           -------------------------------------------------
          |                Final Singlepoint                |
           -------------------------------------------------

          ...................................................
          :                      SETUP                      :
          :.................................................:
          :  # basis functions                  94          :
          :  # atomic orbitals                  93          :
          :  # shells                           51          :
          :  # electrons                       102          :
          :  max. iterations                   250          :
          :  Hamiltonian                  GFN2-xTB          :
          :  restarted?                      false          :
          :  GBSA solvation                  false          :
          :  PC potential                    false          :
          :  electronic temp.          300.0000000     K    :
          :  accuracy                    1.0000000          :
          :  -> integral cutoff          0.2500000E+02      :
          :  -> integral neglect         0.1000000E-07      :
          :  -> SCF convergence          0.1000000E-05 Eh   :
          :  -> wf. convergence          0.1000000E-03 e    :
          :  Broyden damping             0.4000000          :
          :  net charge                          0          :
          :  unpaired electrons                  0          :
          ...................................................

 iter      E             dE          RMSdq      gap      omega  full diag
   1    -59.5645819 -0.595646E+02  0.257E-04    3.20       0.0  T
   2    -59.5645819 -0.252356E-09  0.215E-04    3.20      83.7  T
   3    -59.5645819 -0.330807E-09  0.120E-04    3.20     149.7  T

   *** convergence criteria satisfied after 3 iterations ***

         #    Occupation            Energy/Eh            Energy/eV
      -------------------------------------------------------------
         1        2.0000           -1.0544809             -28.6939
       ...           ...                  ...                  ...
        45        2.0000           -0.4343134             -11.8183
        46        2.0000           -0.4237718             -11.5314
        47        2.0000           -0.4228053             -11.5051
        48        2.0000           -0.4193548             -11.4112
        49        2.0000           -0.4097698             -11.1504
        50        2.0000           -0.3965663             -10.7911
        51        2.0000           -0.3842234             -10.4553 (HOMO)
        52                         -0.2664458              -7.2504 (LUMO)
        53                         -0.2425241              -6.5994
        54                         -0.2118428              -5.7645
        55                         -0.1372833              -3.7357
        56                         -0.1148273              -3.1246
       ...                                ...                  ...
        93                          0.6423699              17.4798
      -------------------------------------------------------------
                  HL-Gap            0.1177776 Eh            3.2049 eV
             Fermi-level           -0.3253346 Eh           -8.8528 eV

 SCC (total)                   0 d,  0 h,  0 min,  0.026 sec
 SCC setup                      ...        0 min,  0.000 sec (  0.785%)
 Dispersion                     ...        0 min,  0.000 sec (  0.633%)
 classical contributions        ...        0 min,  0.000 sec (  0.305%)
 integral evaluation            ...        0 min,  0.006 sec ( 22.043%)
 iterations                     ...        0 min,  0.004 sec ( 17.065%)
 molecular gradient             ...        0 min,  0.015 sec ( 58.699%)
 printout                       ...        0 min,  0.000 sec (  0.444%)

         :::::::::::::::::::::::::::::::::::::::::::::::::::::
         ::                     SUMMARY                     ::
         :::::::::::::::::::::::::::::::::::::::::::::::::::::
         :: total energy             -58.963779887154 Eh    ::
         :: gradient norm              0.000424728190 Eh/a0 ::
         :: HOMO-LUMO gap              3.204890750864 eV    ::
         ::.................................................::
         :: SCC energy               -59.564301466156 Eh    ::
         :: -> isotropic ES            0.112928369793 Eh    ::
         :: -> anisotropic ES          0.001565035732 Eh    ::
         :: -> anisotropic XC          0.018075896467 Eh    ::
         :: -> dispersion             -0.034898676117 Eh    ::
         :: repulsion energy           0.600521579002 Eh    ::
         :: add. restraining           0.000000000000 Eh    ::
         :: total charge              -0.000000000000 e     ::
         :::::::::::::::::::::::::::::::::::::::::::::::::::::

           -------------------------------------------------
          |                Property Printout                |
           -------------------------------------------------

    * Orbital Energies and Occupations

         #    Occupation            Energy/Eh            Energy/eV
      -------------------------------------------------------------
         1        2.0000           -1.0544809             -28.6939
       ...           ...                  ...                  ...
        39        2.0000           -0.4823864             -13.1264
        40        2.0000           -0.4713214             -12.8253
        41        2.0000           -0.4596822             -12.5086
        42        2.0000           -0.4563420             -12.4177
        43        2.0000           -0.4415321             -12.0147
        44        2.0000           -0.4360520             -11.8656
        45        2.0000           -0.4343134             -11.8183
        46        2.0000           -0.4237718             -11.5314
        47        2.0000           -0.4228053             -11.5051
        48        2.0000           -0.4193548             -11.4112
        49        2.0000           -0.4097698             -11.1504
        50        2.0000           -0.3965663             -10.7911
        51        2.0000           -0.3842234             -10.4553 (HOMO)
        52                         -0.2664458              -7.2504 (LUMO)
        53                         -0.2425241              -6.5994
        54                         -0.2118428              -5.7645
        55                         -0.1372833              -3.7357
        56                         -0.1148273              -3.1246
        57                         -0.0369309              -1.0049
        58                         -0.0254286              -0.6919
        59                         -0.0027769              -0.0756
        60                          0.0125040               0.3403
        61                          0.0176974               0.4816
        62                          0.0187940               0.5114
       ...                                ...                  ...
        93                          0.6423699              17.4798
      -------------------------------------------------------------
                  HL-Gap            0.1177776 Eh            3.2049 eV
             Fermi-level           -0.3253346 Eh           -8.8528 eV

     #   Z          covCN         q      C6AA      α(0)
     1   7 N        2.647    -0.229    26.023     7.576
     2   6 C        2.881     0.174    24.263     8.075
     3   7 N        1.928    -0.303    28.693     7.943
     4   6 C        2.918     0.265    22.550     7.787
     5  17 Cl       1.052    -0.119   102.898    15.519
     6   7 N        1.907    -0.312    28.932     7.975
     7   6 C        3.174     0.134    24.709     8.118
     8   6 C        3.222     0.009    27.075     8.458
     9   7 N        1.884    -0.275    27.997     7.844
    10   6 C        3.182     0.098    25.414     8.229
    11   7 N        2.827    -0.074    22.678     7.073
    12   6 C        3.714     0.183    17.796     6.027
    13   6 C        3.817    -0.089    22.182     6.703
    14   6 C        3.738     0.108    18.891     6.202
    15   6 C        3.777     0.081    19.259     6.252
    16   8 O        1.702    -0.326    19.461     5.956
    17   6 C        3.673     0.066    19.691     6.359
    18   8 O        1.656    -0.436    21.552     6.267
    19   8 O        1.656    -0.432    21.489     6.258
    20   1 H        0.861     0.204     1.086     1.633
    21   1 H        0.860     0.205     1.079     1.627
    22   1 H        0.926     0.059     2.210     2.325
    23   1 H        0.923     0.049     2.337     2.391
    24   1 H        0.925     0.073     2.053     2.241
    25   1 H        0.925     0.074     2.038     2.233
    26   1 H        0.924     0.068     2.104     2.268
    27   1 H        0.924     0.057     2.231     2.336
    28   1 H        0.924     0.060     2.197     2.318
    29   1 H        0.924     0.036     2.499     2.472
    30   1 H        0.805     0.294     0.738     1.350
    31   1 H        0.805     0.297     0.729     1.341

 Mol. C6AA /au·bohr⁶  :      12582.383339
 Mol. C8AA /au·bohr⁸  :     307833.486702
 Mol. α(0) /au        :        169.155852


Wiberg/Mayer (AO) data.
largest (>0.10) Wiberg bond orders for each atom

 ---------------------------------------------------------------------------
     #   Z sym  total        # sym  WBO       # sym  WBO       # sym  WBO
 ---------------------------------------------------------------------------
     1   7 N    3.404 --     2 C    1.284    20 H    0.942    21 H    0.939
     2   6 C    3.971 --     3 N    1.322     1 N    1.284     8 C    1.214
     3   7 N    3.036 --     4 C    1.384     2 C    1.322
     4   6 C    3.938 --     6 N    1.418     3 N    1.384     5 Cl   1.000
     5  17 Cl   1.167 --     4 C    1.000
     6   7 N    3.024 --     4 C    1.418     7 C    1.283
     7   6 C    3.958 --     6 N    1.283     8 C    1.275    11 N    1.175
     8   6 C    3.972 --     7 C    1.275     2 C    1.214     9 N    1.213
     9   7 N    3.023 --    10 C    1.593     8 C    1.213    11 N    0.109
    10   6 C    3.949 --     9 N    1.593    11 N    1.195    22 H    0.960
    11   7 N    3.599 --    10 C    1.195     7 C    1.175    12 C    0.949
                             9 N    0.109
    12   6 C    3.939 --    16 O    0.999    13 C    0.976    11 N    0.949
                            23 H    0.949
    13   6 C    3.988 --    14 C    0.982    12 C    0.976    25 H    0.973
                            24 H    0.971
    14   6 C    3.959 --    19 O    1.007    13 C    0.982    15 C    0.965
                            26 H    0.961
    15   6 C    3.940 --    17 C    0.973    14 C    0.965    27 H    0.960
                            16 O    0.954
    16   8 O    2.089 --    12 C    0.999    15 C    0.954
    17   6 C    3.960 --    18 O    1.011    15 C    0.973    28 H    0.969
                            29 H    0.968
    18   8 O    1.970 --    17 C    1.011    30 H    0.889
    19   8 O    1.980 --    14 C    1.007    31 H    0.895
    20   1 H    0.958 --     1 N    0.942
    21   1 H    0.957 --     1 N    0.939
    22   1 H    0.996 --    10 C    0.960
    23   1 H    0.997 --    12 C    0.949
    24   1 H    0.995 --    13 C    0.971
    25   1 H    0.994 --    13 C    0.973
    26   1 H    0.995 --    14 C    0.961
    27   1 H    0.996 --    15 C    0.960
    28   1 H    0.996 --    17 C    0.969
    29   1 H    0.999 --    17 C    0.968
    30   1 H    0.913 --    18 O    0.889
    31   1 H    0.911 --    19 O    0.895
 ---------------------------------------------------------------------------

Topologies differ in total number of bonds
Writing topology from bond orders to xtbtopo.mol

molecular dipole:
                 x           y           z       tot (Debye)
 q only:       -0.013      -0.742      -1.180
   full:        0.034      -1.275      -1.284       4.601
molecular quadrupole (traceless):
                xx          xy          yy          xz          yz          zz
 q only:        8.331       2.929      -6.250     -14.557      -7.942      -2.081
  q+dip:        5.696       2.237      -2.911     -13.811     -11.422      -2.785
   full:        5.642       1.236      -2.164     -13.027     -11.801      -3.478

           -------------------------------------------------
          |                Geometry Summary                 |
           -------------------------------------------------

      molecular mass/u    :      285.6873164
   center of mass at/Å    :        0.6452340       0.2821005       0.3981874
  moments of inertia/u·Å² :        0.8602971E+03   0.2232604E+04   0.2807537E+04
rotational constants/cm⁻¹ :        0.1959513E-01   0.7550661E-02   0.6004420E-02

 * 33 selected distances

     #   Z          #   Z                                           value/Å
     1   7 N        2   6 C                                       1.3384372
     2   6 C        3   7 N                                       1.3353973
     3   7 N        4   6 C                                       1.3198211
     4   6 C        5  17 Cl                                      1.7037847 (max)
     4   6 C        6   7 N                                       1.3160273
     6   7 N        7   6 C                                       1.3344187
     2   6 C        8   6 C                                       1.4079200
     7   6 C        8   6 C                                       1.4053903
     8   6 C        9   7 N                                       1.3709464
     9   7 N       10   6 C                                       1.2976290
     7   6 C       11   7 N                                       1.3620948
    10   6 C       11   7 N                                       1.3701075
    11   7 N       12   6 C                                       1.4528256
    12   6 C       13   6 C                                       1.5384781
    13   6 C       14   6 C                                       1.5361498
    14   6 C       15   6 C                                       1.5404186
    12   6 C       16   8 O                                       1.3996035
    15   6 C       16   8 O                                       1.4280974
    15   6 C       17   6 C                                       1.5401834
    17   6 C       18   8 O                                       1.4028363
    14   6 C       19   8 O                                       1.4004827
     1   7 N       20   1 H                                       1.0035933
     1   7 N       21   1 H                                       1.0044299
    10   6 C       22   1 H                                       1.0722148
    12   6 C       23   1 H                                       1.1011981
    13   6 C       24   1 H                                       1.0883080
    13   6 C       25   1 H                                       1.0869866
    14   6 C       26   1 H                                       1.0907516
    15   6 C       27   1 H                                       1.0950506
    17   6 C       28   1 H                                       1.0924481
    17   6 C       29   1 H                                       1.0976626
    18   8 O       30   1 H                                       0.9649255 (min)
    19   8 O       31   1 H                                       0.9649381

 * 7 distinct bonds (by element types)

   Z      Z             #   av. dist./Å        max./Å        min./Å
   1 H    6 C           8     1.0905776     1.1011981     1.0722148
   6 C    6 C           6     1.4947567     1.5404186     1.4053903
   1 H    7 N           2     1.0040116     1.0044299     1.0035933
   6 C    7 N          10     1.3497705     1.4528256     1.2976290
   1 H    8 O           2     0.9649318     0.9649381     0.9649255
   6 C    8 O           4     1.4077550     1.4280974     1.3996035
   6 C   17 Cl          1     1.7037847     1.7037847     1.7037847


optimized geometry written to: xtbopt.xyz


           -------------------------------------------------
          | TOTAL ENERGY              -58.963779887154 Eh   |
          | GRADIENT NORM               0.000424728190 Eh/α |
          | HOMO-LUMO GAP               3.204890750864 eV   |
           -------------------------------------------------

------------------------------------------------------------------------
 * finished run on 2025/05/15 at 16:24:40.762     
------------------------------------------------------------------------
 total:
 * wall-time:     0 d,  0 h,  0 min,  1.566 sec
 *  cpu-time:     0 d,  0 h,  0 min,  1.204 sec
 * ratio c/w:     0.769 speedup
 SCF:
 * wall-time:     0 d,  0 h,  0 min,  0.043 sec
 *  cpu-time:     0 d,  0 h,  0 min,  0.043 sec
 * ratio c/w:     0.995 speedup
 ANC optimizer:
 * wall-time:     0 d,  0 h,  0 min,  1.512 sec
 *  cpu-time:     0 d,  0 h,  0 min,  1.151 sec
 * ratio c/w:     0.761 speedup



----- Single-point -----
      -----------------------------------------------------------      
     |                   =====================                   |     
     |                           x T B                           |     
     |                   =====================                   |     
     |                         S. Grimme                         |     
     |          Mulliken Center for Theoretical Chemistry        |     
     |                    University of Bonn                     |     
      -----------------------------------------------------------      

   * xtb version 6.7.1 (edcfbbe) compiled by 'conda@3ef47c1a292c' on 2024-11-25

   xtb is free software: you can redistribute it and/or modify it under
   the terms of the GNU Lesser General Public License as published by
   the Free Software Foundation, either version 3 of the License, or
[...]
     |                    University of Bonn                     |     
      -----------------------------------------------------------      

   * xtb version 6.7.1 (edcfbbe) compiled by 'conda@3ef47c1a292c' on 2024-11-25

   xtb is free software: you can redistribute it and/or modify it under
   the terms of the GNU Lesser General Public License as published by
   the Free Software Foundation, either version 3 of the License, or
   (at your option) any later version.
   
   xtb is distributed in the hope that it will be useful,
   but WITHOUT ANY WARRANTY; without even the implied warranty of
   MERCHANTABILITY or FITNESS FOR A PARTICULAR PURPOSE.  See the
   GNU Lesser General Public License for more details.
   
   Cite this work as:
   * C. Bannwarth, E. Caldeweyher, S. Ehlert, A. Hansen, P. Pracht,
     J. Seibert, S. Spicher, S. Grimme, WIREs Comput. Mol. Sci., 2020, 11,
     e01493. DOI: 10.1002/wcms.1493
   
   for GFN2-xTB:
   * C. Bannwarth, S. Ehlert and S. Grimme., J. Chem. Theory Comput., 2019,
     15, 1652-1671. DOI: 10.1021/acs.jctc.8b01176
   for GFN1-xTB:
   * S. Grimme, C. Bannwarth, P. Shushkov, J. Chem. Theory Comput., 2017,
     13, 1989-2009. DOI: 10.1021/acs.jctc.7b00118
   for GFN0-xTB:
   * P. Pracht, E. Caldeweyher, S. Ehlert, S. Grimme, ChemRxiv, 2019, preprint.
     DOI: 10.26434/chemrxiv.8326202.v1
   for GFN-FF:
   * S. Spicher and S. Grimme, Angew. Chem. Int. Ed., 2020, 59, 15665-15673.
     DOI: 10.1002/anie.202004239
   
   for ALPB and GBSA implicit solvation:
   * S. Ehlert, M. Stahn, S. Spicher, S. Grimme, J. Chem. Theory Comput.,
     2021, 17, 4250-4261. DOI: 10.1021/acs.jctc.1c00471
   
   for ddCOSMO and CPCM-X implicit solvation:
   * M. Stahn, S. Ehlert, S. Grimme, J. Phys. Chem. A,
     2023, XX, XXXX-XXXX. DOI: 10.1021/acs.jpca.3c04382
   
   for DFT-D4:
   * E. Caldeweyher, C. Bannwarth and S. Grimme, J. Chem. Phys., 2017,
     147, 034112. DOI: 10.1063/1.4993215
   * E. Caldeweyher, S. Ehlert, A. Hansen, H. Neugebauer, S. Spicher,
     C. Bannwarth and S. Grimme, J. Chem. Phys., 2019, 150, 154122.
     DOI: 10.1063/1.5090222
   * E. Caldeweyher, J.-M. Mewes, S. Ehlert and S. Grimme, Phys. Chem. Chem. Phys.
     2020, 22, 8499-8512. DOI: 10.1039/D0CP00502A
   
   for sTDA-xTB:
   * S. Grimme and C. Bannwarth, J. Chem. Phys., 2016, 145, 054103.
     DOI: 10.1063/1.4959605
   
   in the mass-spec context:
   * V. Asgeirsson, C. Bauer and S. Grimme, Chem. Sci., 2017, 8, 4879.
     DOI: 10.1039/c7sc00601b
   * J. Koopman and S. Grimme, ACS Omega 2019, 4, 12, 15120-15133.
     DOI: 10.1021/acsomega.9b02011
   
   for metadynamics refer to:
   * S. Grimme, J. Chem. Theory Comput., 2019, 155, 2847-2862
     DOI: 10.1021/acs.jctc.9b00143
   
   for SPH calculations refer to:
   * S. Spicher and S. Grimme, J. Chem. Theory Comput., 2021, 17, 1701-1714
     DOI: 10.1021/acs.jctc.0c01306
   
   for ONIOM refer to:
   * C. Plett, A. Katbashev, S. Ehlert, S. Grimme, M. Bursch,
     Phys. Chem. Chem. Phys., 2023, 25, 17860-17868. DOI: 10.1039/D3CP02178E
   
   for DIPRO refer to:
   * J. Kohn, N. Gildemeister, S. Grimme, D. Fazzi, A. Hansen,
     J. Chem. Phys., 2023, just accepted.
   
   for PTB refer to:
   * S. Grimme, M. Mueller, A. Hansen, J. Chem. Phys., 2023, 158, 124111.
     DOI: 10.1063/5.0137838
   
   with help from (in alphabetical order)
   P. Atkinson, C. Bannwarth, F. Bohle, G. Brandenburg, E. Caldeweyher
   M. Checinski, S. Dohm, S. Ehlert, S. Ehrlich, I. Gerasimov, C. Hölzer
   A. Katbashev, J. Kohn, J. Koopman, C. Lavigne, S. Lehtola, F. März, M. Müller,
   F. Musil, H. Neugebauer, J. Pisarek, C. Plett, P. Pracht, F. Pultar,
   J. Seibert, P. Shushkov, S. Spicher, M. Stahn, M. Steiner, T. Strunk,
   J. Stückrath, T. Rose, and J. Unsleber
   
 * started run on 2025/05/15 at 16:24:41.983     
   ID    Z sym.   atoms
    1    7 N      1, 3, 6, 9, 11
    2    6 C      2, 4, 7, 8, 10, 12-15, 17
    3   17 Cl     5
    4    8 O      16, 18, 19
    5    1 H      20-31

           -------------------------------------------------
          |                Calculation Setup                |
           -------------------------------------------------

          program call               : xtb /rds/general/user/hgt20/home/callum/QDESCP/Cladribine_rdkit_conf_18/Cladribine_rdkit_conf_18.xyz --acc 1 --gfn 2 --chrg 0 --uhf 2 --etemp 300 --input /rds/general/user/hgt20/home/callum/QDESCP/Cladribine_rdkit_conf_18/Cladribine_rdkit_conf_18_xtb.inp -P 1
          hostname                   : login-c
          coordinate file            : /rds/general/user/hgt20/home/callum/QDESCP/Cladribine_rdkit_conf_18/Cladribine_rdkit_conf_18.xyz
          omp threads                :                     1


           -------------------------------------------------
          |                 G F N 2 - x T B                 |
           -------------------------------------------------

        Reference                      10.1021/acs.jctc.8b01176
      * Hamiltonian:
        H0-scaling (s, p, d)           1.850000    2.230000    2.230000
        zeta-weighting                 0.500000
      * Dispersion:
        s8                             2.700000
        a1                             0.520000
        a2                             5.000000
        s9                             5.000000
      * Repulsion:
        kExp                           1.500000    1.000000
        rExp                           1.000000
      * Coulomb:
        alpha                          2.000000
        third order                    shell-resolved
        anisotropic                    true
        a3                             3.000000
        a5                             4.000000
        cn-shift                       1.200000
        cn-exp                         4.000000
        max-rad                        5.000000


          ...................................................
          :                      SETUP                      :
          :.................................................:
          :  # basis functions                  94          :
          :  # atomic orbitals                  93          :
          :  # shells                           51          :
          :  # electrons                       102          :
          :  max. iterations                   250          :
          :  Hamiltonian                  GFN2-xTB          :
          :  restarted?                      false          :
          :  GBSA solvation                  false          :
          :  PC potential                    false          :
          :  electronic temp.          300.0000000     K    :
          :  accuracy                    1.0000000          :
          :  -> integral cutoff          0.2500000E+02      :
          :  -> integral neglect         0.1000000E-07      :
          :  -> SCF convergence          0.1000000E-05 Eh   :
          :  -> wf. convergence          0.1000000E-03 e    :
          :  Broyden damping             0.4000000          :
          :  net charge                          0          :
          :  unpaired electrons                  2          :
          ...................................................

 iter      E             dE          RMSdq      gap      omega  full diag
   1    -59.1818402 -0.591818E+02  0.439E+00    0.36       0.0  T
   2    -59.3241557 -0.142316E+00  0.292E+00    0.87       1.0  T
   3    -59.3361298 -0.119740E-01  0.210E+00    0.57       1.0  T
   4    -59.2850424  0.510873E-01  0.181E+00    0.80       1.0  T
   5    -59.3860520 -0.101010E+00  0.121E+00    0.37       1.0  T
   6    -59.4282359 -0.421838E-01  0.457E-01    0.40       1.0  T
   7    -59.4342340 -0.599810E-02  0.219E-01    0.41       1.0  T
   8    -59.4354888 -0.125486E-02  0.106E-01    0.42       1.0  T
   9    -59.4355787 -0.898910E-04  0.894E-02    0.41       1.0  T
  10    -59.4356046 -0.259236E-04  0.614E-02    0.40       1.0  T
  11    -59.4356997 -0.950768E-04  0.303E-02    0.41       1.0  T
  12    -59.4357029 -0.319050E-05  0.270E-02    0.41       1.0  T
  13    -59.4357121 -0.921412E-05  0.178E-02    0.41       1.0  T
  14    -59.4357186 -0.647848E-05  0.718E-03    0.41       2.5  T
  15    -59.4357196 -0.101723E-05  0.280E-03    0.41       6.4  T
  16    -59.4357197 -0.360569E-07  0.253E-03    0.41       7.1  T
  17    -59.4357198 -0.139138E-06  0.796E-04    0.41      22.6  T
  18    -59.4357198 -0.991709E-08  0.559E-04    0.41      32.2  T

   *** convergence criteria satisfied after 18 iterations ***

         #    Occupation            Energy/Eh            Energy/eV
      -------------------------------------------------------------
         1        2.0000           -1.0561519             -28.7394
       ...           ...                  ...                  ...
        46        2.0000           -0.4258700             -11.5885
        47        2.0000           -0.4247626             -11.5584
        48        2.0000           -0.4203711             -11.4389
        49        2.0000           -0.4157340             -11.3127
        50        1.5639           -0.3961091             -10.7787
        51        1.4361           -0.3956205             -10.7654
        52        0.9996           -0.2588766              -7.0444 (HOMO)
        53        0.0004           -0.2439002              -6.6369 (LUMO)
        54                         -0.2079644              -5.6590
        55                         -0.1375769              -3.7437
        56                         -0.1148288              -3.1246
        57                         -0.0359825              -0.9791
       ...                                ...                  ...
        93                          0.6402516              17.4221
      -------------------------------------------------------------
                  HL-Gap            0.0149764 Eh            0.4075 eV
             Fermi-level           -0.3236266 Eh           -8.8063 eV

 transition dipole moment (au) for excitation:          51          52
     X       Y       Z   
   0.1313   0.0542  -0.0044  total (au/Debye):    0.142   0.361
 dE (eV)             :    3.721
 oscillator strength :  0.26052E-02

 SCC (total)                   0 d,  0 h,  0 min,  0.055 sec
 SCC setup                      ...        0 min,  0.000 sec (  0.495%)
 Dispersion                     ...        0 min,  0.000 sec (  0.547%)
 classical contributions        ...        0 min,  0.000 sec (  0.159%)
 integral evaluation            ...        0 min,  0.006 sec ( 10.750%)
 iterations                     ...        0 min,  0.027 sec ( 49.432%)
 molecular gradient             ...        0 min,  0.015 sec ( 27.870%)
 printout                       ...        0 min,  0.006 sec ( 10.734%)

         :::::::::::::::::::::::::::::::::::::::::::::::::::::
         ::                     SUMMARY                     ::
         :::::::::::::::::::::::::::::::::::::::::::::::::::::
         :: total energy             -58.834917776024 Eh    ::
         :: gradient norm              0.128659624319 Eh/a0 ::
         :: HOMO-LUMO gap              0.407527965249 eV    ::
         ::.................................................::
         :: SCC energy               -59.435439355026 Eh    ::
         :: -> isotropic ES            0.103707051927 Eh    ::
         :: -> anisotropic ES          0.001664136695 Eh    ::
         :: -> anisotropic XC          0.010393879372 Eh    ::
         :: -> dispersion             -0.034883260157 Eh    ::
         :: repulsion energy           0.600521579002 Eh    ::
         :: add. restraining           0.000000000000 Eh    ::
         :: total charge               0.000000000830 e     ::
         :::::::::::::::::::::::::::::::::::::::::::::::::::::

           -------------------------------------------------
          |                Property Printout                |
           -------------------------------------------------

    * Orbital Energies and Occupations

         #    Occupation            Energy/Eh            Energy/eV
      -------------------------------------------------------------
         1        2.0000           -1.0561519             -28.7394
       ...           ...                  ...                  ...
        40        2.0000           -0.4709905             -12.8163
        41        2.0000           -0.4590168             -12.4905
        42        2.0000           -0.4560683             -12.4103
        43        2.0000           -0.4442296             -12.0881
        44        2.0000           -0.4410297             -12.0010
        45        2.0000           -0.4350427             -11.8381
        46        2.0000           -0.4258700             -11.5885
        47        2.0000           -0.4247626             -11.5584
        48        2.0000           -0.4203711             -11.4389
        49        2.0000           -0.4157340             -11.3127
        50        1.5639           -0.3961091             -10.7787
        51        1.4361           -0.3956205             -10.7654
        52        0.9996           -0.2588766              -7.0444 (HOMO)
        53        0.0004           -0.2439002              -6.6369 (LUMO)
        54                         -0.2079644              -5.6590
        55                         -0.1375769              -3.7437
        56                         -0.1148288              -3.1246
        57                         -0.0359825              -0.9791
        58                         -0.0240873              -0.6555
        59                         -0.0012180              -0.0331
        60                          0.0118335               0.3220
        61                          0.0165884               0.4514
        62                          0.0167454               0.4557
        63                          0.0179994               0.4898
       ...                                ...                  ...
        93                          0.6402516              17.4221
      -------------------------------------------------------------
                  HL-Gap            0.0149764 Eh            0.4075 eV
             Fermi-level           -0.3236266 Eh           -8.8063 eV

     #   Z          covCN         q      C6AA      α(0)
     1   7 N        2.647    -0.227    25.960     7.567
     2   6 C        2.881     0.121    25.347     8.254
     3   7 N        1.928    -0.253    27.436     7.767
     4   6 C        2.918     0.227    23.248     7.907
     5  17 Cl       1.052    -0.113   102.696    15.504
     6   7 N        1.907    -0.276    28.015     7.847
     7   6 C        3.174     0.140    24.603     8.101
     8   6 C        3.222     0.032    26.560     8.377
     9   7 N        1.884    -0.256    27.505     7.775
    10   6 C        3.182     0.068    26.057     8.332
    11   7 N        2.827    -0.078    22.761     7.086
    12   6 C        3.714     0.183    17.799     6.028
    13   6 C        3.817    -0.089    22.180     6.703
    14   6 C        3.738     0.108    18.890     6.202
    15   6 C        3.777     0.081    19.264     6.253
    16   8 O        1.702    -0.323    19.399     5.947
    17   6 C        3.673     0.066    19.695     6.360
    18   8 O        1.656    -0.436    21.566     6.269
    19   8 O        1.656    -0.432    21.488     6.258
    20   1 H        0.861     0.199     1.113     1.652
    21   1 H        0.860     0.202     1.098     1.641
    22   1 H        0.926     0.052     2.299     2.371
    23   1 H        0.923     0.047     2.360     2.402
    24   1 H        0.925     0.072     2.064     2.247
    25   1 H        0.925     0.071     2.071     2.251
    26   1 H        0.924     0.069     2.101     2.267
    27   1 H        0.924     0.058     2.225     2.333
    28   1 H        0.924     0.060     2.201     2.320
    29   1 H        0.924     0.037     2.486     2.466
    30   1 H        0.805     0.296     0.733     1.345
    31   1 H        0.805     0.297     0.729     1.341

 Mol. C6AA /au·bohr⁶  :      12579.206485
 Mol. C8AA /au·bohr⁸  :     307793.932021
 Mol. α(0) /au        :        169.170368


Wiberg/Mayer (AO) data.
largest (>0.10) Wiberg bond orders for each atom

 ---------------------------------------------------------------------------
     #   Z sym  total        # sym  WBO       # sym  WBO       # sym  WBO
 ---------------------------------------------------------------------------
     1   7 N    3.273 --     2 C    1.223    20 H    0.944    21 H    0.941
     2   6 C    3.870 --     3 N    1.283     1 N    1.223     8 C    1.093
     3   7 N    3.047 --     4 C    1.401     2 C    1.283
     4   6 C    3.848 --     3 N    1.401     6 N    1.204     5 Cl   0.994
     5  17 Cl   1.152 --     4 C    0.994
     6   7 N    2.881 --     7 C    1.292     4 C    1.204
     7   6 C    3.905 --     6 N    1.292     8 C    1.218    11 N    1.186
     8   6 C    3.834 --     9 N    1.309     7 C    1.218     2 C    1.093
     9   7 N    3.011 --    10 C    1.384     8 C    1.309
    10   6 C    3.799 --     9 N    1.384    11 N    1.152    22 H    0.962
    11   7 N    3.571 --     7 C    1.186    10 C    1.152    12 C    0.951
    12   6 C    3.940 --    16 O    0.999    13 C    0.976    11 N    0.951
                            23 H    0.949
    13   6 C    3.987 --    14 C    0.982    12 C    0.976    25 H    0.974
                            24 H    0.971
    14   6 C    3.959 --    19 O    1.007    13 C    0.982    15 C    0.964
                            26 H    0.961
    15   6 C    3.939 --    17 C    0.972    14 C    0.964    27 H    0.959
                            16 O    0.954
    16   8 O    2.090 --    12 C    0.999    15 C    0.954
    17   6 C    3.960 --    18 O    1.012    15 C    0.972    28 H    0.969
                            29 H    0.968
    18   8 O    1.968 --    17 C    1.012    30 H    0.886
    19   8 O    1.980 --    14 C    1.007    31 H    0.895
    20   1 H    0.960 --     1 N    0.944
    21   1 H    0.957 --     1 N    0.941
    22   1 H    0.996 --    10 C    0.962
    23   1 H    0.996 --    12 C    0.949
    24   1 H    0.995 --    13 C    0.971
    25   1 H    0.995 --    13 C    0.974
    26   1 H    0.995 --    14 C    0.961
    27   1 H    0.996 --    15 C    0.959
    28   1 H    0.996 --    17 C    0.969
    29   1 H    0.999 --    17 C    0.968
    30   1 H    0.912 --    18 O    0.886
    31   1 H    0.911 --    19 O    0.895
 ---------------------------------------------------------------------------

Topologies differ in total number of bonds
Writing topology from bond orders to xtbtopo.mol

molecular dipole:
                 x           y           z       tot (Debye)
 q only:        0.013      -0.655      -1.037
   full:        0.104      -1.162      -1.142       4.149
molecular quadrupole (traceless):
                xx          xy          yy          xz          yz          zz
 q only:        8.232       3.247      -6.176     -13.399      -7.709      -2.056
  q+dip:        5.736       2.493      -3.222     -13.057     -11.166      -2.514
   full:        5.933       1.932      -2.800     -12.621     -11.445      -3.134


           -------------------------------------------------
          | TOTAL ENERGY              -58.834917776024 Eh   |
          | GRADIENT NORM               0.128659624319 Eh/α |
          | HOMO-LUMO GAP               0.407527965249 eV   |
           -------------------------------------------------

------------------------------------------------------------------------
 * finished run on 2025/05/15 at 16:24:42.050     
------------------------------------------------------------------------
 total:
 * wall-time:     0 d,  0 h,  0 min,  0.067 sec
 *  cpu-time:     0 d,  0 h,  0 min,  0.065 sec
 * ratio c/w:     0.972 speedup
 SCF:
 * wall-time:     0 d,  0 h,  0 min,  0.055 sec
 *  cpu-time:     0 d,  0 h,  0 min,  0.055 sec
 * ratio c/w:     0.995 speedup


