51
 energy: -84.107241634163 gnorm: 0.000174511871 xtb: 6.7.1 (edcfbbe)
F            6.45794711767516       -3.78107865751512       -1.72539166158105
C            5.70047070233883       -2.76978929120636       -1.26068264858638
C            5.07191869647888       -1.92835963631015       -2.16171042229666
C            4.30153380325171       -0.89415249862311       -1.66916014193360
C            4.14302147273083       -0.70531502001477       -0.29592044148465
C            4.79653916535597       -1.56476088090575        0.58575841588030
C            5.57984074557815       -2.59782272991100        0.10754969979032
C            3.29738086390030        0.44192310118561        0.14192702802044
C            2.60213722384912        0.30110656000127        1.48576902581768
C            1.69504487754952       -0.93948723255945        1.51065149541174
C            0.44487289190752       -0.70402115837634        0.65205742760155
N           -0.31356726881713        0.46649291269957        1.04502093615820
C            0.52325895382473        1.64684684601759        0.97400543157757
C            1.78947469579826        1.55256105385038        1.83543443397013
C           -1.05799877598507        0.32834384198073        2.28086106228548
C           -2.35220265569136       -0.46644411239534        2.05903446715322
N           -3.10284583061637        0.07758286963363        0.93895563964328
C           -3.74088578233512        1.28027033917420        1.16129341057517
N           -4.39190158421217        1.81815613062039        0.08026740288421
C           -4.42065408544072        1.26054170625078       -1.17430499315910
C           -5.09388899967844        1.87248376742058       -2.23028034902818
C           -5.10341653683077        1.27362718415075       -3.47294265670559
C           -4.44635705576424        0.06565799187878       -3.68355310385402
C           -3.77883783489631       -0.54343750819408       -2.64310395630464
C           -3.76013192265674        0.04547112604986       -1.37913222198848
C           -3.05723632932870       -0.60574441639578       -0.26924957193045
O           -2.49320101376872       -1.67529913983858       -0.36573119428089
O           -3.75362933604558        1.83151475535131        2.23877585925868
O            3.18661641941780        1.42337912323285       -0.55728670236892
H            5.19446511348443       -2.08713960523687       -3.22124902439674
H            3.80388208812895       -0.21308588644730       -2.34279567424791
H            4.71910145327883       -1.42254403322745        1.65230371741941
H            6.09681219959777       -3.26624774908461        0.77788499062798
H            3.39532948489858        0.17848493298538        2.23410847880002
H            1.39983552338587       -1.13901348981110        2.54313104482030
H            2.22680746544287       -1.81642179898361        1.13959942903721
H            0.74890662403220       -0.55541072988951       -0.38919714506017
H           -0.20636634944048       -1.57810542205679        0.68315575468152
H           -0.06661458560899        2.51568852861466        1.27571925789785
H            0.81374271338986        1.78052105923423       -0.07105431921865
H            2.39971462762672        2.44142131196649        1.67065733773130
H            1.51113530846037        1.51522817907796        2.89106574410667
H           -0.49782642033872       -0.16438487559743        3.09020454404646
H           -1.33441393400874        1.32797980763596        2.62201261936930
H           -2.14359373922984       -1.50931882299151        1.82027655314357
H           -2.97018991112080       -0.40308272083133        2.95707788799559
H           -4.86118695499434        2.69866846676435        0.24486628911204
H           -5.60328193722792        2.81040743509247       -2.06523694314131
H           -5.62736480619949        1.74925523830542       -4.28833692274054
H           -4.46222857735020       -0.39138496622122       -4.66058196738179
H           -3.26026800377712       -1.48076188658393       -2.77232332318105
