42
 energy: -62.293014463802 gnorm: 0.000505362748 xtb: 6.7.1 (edcfbbe)
C            3.15846862597216        1.21976851835999        1.88083341352481
C            2.95548639365172       -0.29655307942042        1.90952613289131
C            2.68426729630575       -0.82998006349765        0.53152638899430
C            3.65315038558527       -1.45733594776224       -0.22661835145510
C            3.39892214659553       -1.92139238367796       -1.52086507171820
C            2.16345285121366       -1.77485000893431       -2.10657832826534
C            1.15596040832278       -1.14769594731978       -1.37274085479653
C            1.43086230116001       -0.68036583430805       -0.06310475509468
N            0.29680946100041       -0.10127670631486        0.43054226810120
C           -0.69076959848458       -0.20115780571890       -0.51290625699149
C           -0.20885752836171       -0.83357273248012       -1.62710741315702
C           -1.11846038716808       -1.17827359871038       -2.75688220093851
C           -2.51080638849012       -1.31226270734670       -2.13182694526528
O           -2.89917281539176       -0.13553570501584       -1.45513351772988
C           -2.09334856506784        0.29471659248077       -0.35638004532088
C           -2.20431435091121        1.83907415228326       -0.40030365163592
C           -1.06241055906279        2.61904486874953        0.23893826579616
C           -2.74521826565110       -0.28345130251632        0.94444282228395
C           -2.36530164808097        0.43333705730905        2.20477749356891
O           -3.37145599288284        1.16406513498541        2.68614263672192
O           -1.29253468414313        0.38342604572051        2.75839041481613
H            3.35324581500866        1.59651260695913        2.88261009612104
H            2.27456680952482        1.71808266831579        1.48928277830271
H            4.00285533360791        1.47372336049858        1.24374149061548
H            2.11786677971161       -0.53514565743385        2.57010163944669
H            3.85113497266226       -0.77184315126602        2.31414228787144
H            4.63931733749898       -1.59681095886394        0.19326055176409
H            4.19692750980883       -2.40461535136495       -2.06593933648249
H            1.97280261829086       -2.13208945327675       -3.10762312857765
H            0.15107584991720        0.19489580221401        1.38340456274106
H           -1.12943812957454       -0.39038021261279       -3.51525446324083
H           -0.82277547462243       -2.11379536281454       -3.23278417579032
H           -2.52012024135519       -2.17296983038071       -1.44692469605737
H           -3.28229505746852       -1.45580609483808       -2.89142721868068
H           -3.15485591485235        2.12200640550543        0.05531183101204
H           -2.25897558172485        2.10605420533260       -1.45720397170913
H           -0.12171595585348        2.40622594746523       -0.26254516546056
H           -1.26410320963396        3.68389934831316        0.14490057680807
H           -0.95080302822237        2.39198750667310        1.29504538635778
H           -3.82590932275073       -0.21327876655737        0.81748658685127
H           -2.45274843981639       -1.33157695407559        1.03556515253615
H           -3.11098175626600        1.62539539535423        3.50007677123970
