57
 energy: -87.646402012296 gnorm: 0.000581873193 xtb: 6.7.1 (edcfbbe)
O           -2.99319127870993        0.26384737737800       -1.72551186998822
C           -3.48926916991228        0.13476701031799       -0.61765856693779
C           -2.78268977203034        0.23349107356395        0.63479669397616
C           -1.31429643946282        0.49816486750983        0.54798629448065
C           -0.55275314463231       -0.82839781292441        0.31120642725602
N            0.88489984979941       -0.73539831728013        0.27342958542923
C            1.41418583291236        0.04794736311290       -0.82184595998057
C            2.90034363201230       -0.25843977052297       -0.98852974224472
C            3.64569937194109        0.08602606501071        0.30904765084445
C            3.00296488473551       -0.68538101697445        1.45970417691456
C            1.51100233251446       -0.36906573444784        1.52590615765736
C            5.09206356432467       -0.22895515773892        0.15894383651626
N            5.64525974265575       -1.29309631253576        0.65304720437750
O            6.97379957571623       -1.31233603949415        0.31839308662522
C            7.24383952066764       -0.21701863121406       -0.40974946732521
C            6.06765832890577        0.54271830996320       -0.55991149098564
C            6.08728537773376        1.73742002723863       -1.27568827188656
C            7.28205636062244        2.14042643013570       -1.82489415264827
C            8.43010275846974        1.36135016810555       -1.65735225908687
F            9.57360855831567        1.80340498646092       -2.21409522087495
C            8.45747108706259        0.17524927059614       -0.95691202570670
C           -3.46152175578323        0.02885799487751        1.80213597196859
N           -4.79199429171137       -0.23292266286494        1.81811133362300
C           -5.44774301377251       -0.30275498557059        0.70487550794737
N           -4.86650071235069       -0.12983883716127       -0.50310785438120
C           -5.58045583430477       -0.25684741956633       -1.76447502833522
C           -7.07761560128059       -0.06839668584078       -1.60116096426895
C           -7.56781313529271       -0.99029069255010       -0.49252196030029
C           -6.92513703491785       -0.55023084426642        0.81527672529466
C           -2.81781316192284        0.08462770536258        3.15254254207340
H           -1.13269344507915        1.15711541459096       -0.30280877172581
H           -0.95597234146577        0.97409679557361        1.46049651181806
H           -0.81680496917182       -1.53878296338029        1.10072370425059
H           -0.88516944716882       -1.24346306507229       -0.64378390839626
H            1.28805616821636        1.13351265112243       -0.65499534627163
H            0.87483739029851       -0.22120015280811       -1.73230729261314
H            3.30674227080021        0.30988324336606       -1.82721183713675
H            3.02408410483396       -1.32213364888585       -1.19459790892978
H            3.54861663068510        1.16420062907082        0.49040532685248
H            3.14348517011352       -1.75175938824659        1.28949824436692
H            3.48306432877118       -0.42324896979774        2.40305105158006
H            1.38217745580583        0.70492858752194        1.75742984391520
H            1.04771588345713       -0.94855052867261        2.32779355140925
H            5.19244901419474        2.32732752222556       -1.39391272577123
H            7.35908456871438        3.05574424870345       -2.38922905498292
H            9.35958508520897       -0.40078644584401       -0.84452230794652
H           -5.14717947215717        0.47958338463016       -2.44802884397172
H           -5.36460222626714       -1.24947369903776       -2.17764887243253
H           -7.29884140273151        0.96868591103334       -1.34089649623251
H           -7.56782650395082       -0.29471447592536       -2.54813876072968
H           -7.28671408087978       -2.01999216773119       -0.72257485618676
H           -8.65396625042185       -0.94935663621000       -0.40292320885528
H           -7.08072889973707       -1.28150734852513        1.60900666980629
H           -7.38027370276414        0.38576264776383        1.15320858009305
H           -3.55602820238348       -0.17564225423652        3.90491815140803
H           -2.44544455388658        1.08806975736643        3.35399317110471
H           -1.98079900534453       -0.60732677731019        3.21166702552641
