----- Optimization -----
      -----------------------------------------------------------      
     |                   =====================                   |     
     |                           x T B                           |     
     |                   =====================                   |     
     |                         S. Grimme                         |     
     |          Mulliken Center for Theoretical Chemistry        |     
     |                    University of Bonn                     |     
      -----------------------------------------------------------      

   * xtb version 6.7.1 (edcfbbe) compiled by 'conda@3ef47c1a292c' on 2024-11-25

   xtb is free software: you can redistribute it and/or modify it under
   the terms of the GNU Lesser General Public License as published by
   the Free Software Foundation, either version 3 of the License, or
   (at your option) any later version.
   
   xtb is distributed in the hope that it will be useful,
   but WITHOUT ANY WARRANTY; without even the implied warranty of
   MERCHANTABILITY or FITNESS FOR A PARTICULAR PURPOSE.  See the
   GNU Lesser General Public License for more details.
   
   Cite this work as:
   * C. Bannwarth, E. Caldeweyher, S. Ehlert, A. Hansen, P. Pracht,
     J. Seibert, S. Spicher, S. Grimme, WIREs Comput. Mol. Sci., 2020, 11,
     e01493. DOI: 10.1002/wcms.1493
   
   for GFN2-xTB:
   * C. Bannwarth, S. Ehlert and S. Grimme., J. Chem. Theory Comput., 2019,
     15, 1652-1671. DOI: 10.1021/acs.jctc.8b01176
   for GFN1-xTB:
   * S. Grimme, C. Bannwarth, P. Shushkov, J. Chem. Theory Comput., 2017,
     13, 1989-2009. DOI: 10.1021/acs.jctc.7b00118
   for GFN0-xTB:
   * P. Pracht, E. Caldeweyher, S. Ehlert, S. Grimme, ChemRxiv, 2019, preprint.
     DOI: 10.26434/chemrxiv.8326202.v1
   for GFN-FF:
   * S. Spicher and S. Grimme, Angew. Chem. Int. Ed., 2020, 59, 15665-15673.
     DOI: 10.1002/anie.202004239
   
   for ALPB and GBSA implicit solvation:
   * S. Ehlert, M. Stahn, S. Spicher, S. Grimme, J. Chem. Theory Comput.,
     2021, 17, 4250-4261. DOI: 10.1021/acs.jctc.1c00471
   
   for ddCOSMO and CPCM-X implicit solvation:
   * M. Stahn, S. Ehlert, S. Grimme, J. Phys. Chem. A,
     2023, XX, XXXX-XXXX. DOI: 10.1021/acs.jpca.3c04382
   
   for DFT-D4:
   * E. Caldeweyher, C. Bannwarth and S. Grimme, J. Chem. Phys., 2017,
     147, 034112. DOI: 10.1063/1.4993215
   * E. Caldeweyher, S. Ehlert, A. Hansen, H. Neugebauer, S. Spicher,
     C. Bannwarth and S. Grimme, J. Chem. Phys., 2019, 150, 154122.
     DOI: 10.1063/1.5090222
   * E. Caldeweyher, J.-M. Mewes, S. Ehlert and S. Grimme, Phys. Chem. Chem. Phys.
     2020, 22, 8499-8512. DOI: 10.1039/D0CP00502A
   
   for sTDA-xTB:
   * S. Grimme and C. Bannwarth, J. Chem. Phys., 2016, 145, 054103.
     DOI: 10.1063/1.4959605
   
   in the mass-spec context:
   * V. Asgeirsson, C. Bauer and S. Grimme, Chem. Sci., 2017, 8, 4879.
     DOI: 10.1039/c7sc00601b
   * J. Koopman and S. Grimme, ACS Omega 2019, 4, 12, 15120-15133.
     DOI: 10.1021/acsomega.9b02011
   
   for metadynamics refer to:
   * S. Grimme, J. Chem. Theory Comput., 2019, 155, 2847-2862
     DOI: 10.1021/acs.jctc.9b00143
   
   for SPH calculations refer to:
   * S. Spicher and S. Grimme, J. Chem. Theory Comput., 2021, 17, 1701-1714
     DOI: 10.1021/acs.jctc.0c01306
   
   for ONIOM refer to:
   * C. Plett, A. Katbashev, S. Ehlert, S. Grimme, M. Bursch,
     Phys. Chem. Chem. Phys., 2023, 25, 17860-17868. DOI: 10.1039/D3CP02178E
   
   for DIPRO refer to:
   * J. Kohn, N. Gildemeister, S. Grimme, D. Fazzi, A. Hansen,
     J. Chem. Phys., 2023, just accepted.
   
   for PTB refer to:
   * S. Grimme, M. Mueller, A. Hansen, J. Chem. Phys., 2023, 158, 124111.
     DOI: 10.1063/5.0137838
   
   with help from (in alphabetical order)
   P. Atkinson, C. Bannwarth, F. Bohle, G. Brandenburg, E. Caldeweyher
   M. Checinski, S. Dohm, S. Ehlert, S. Ehrlich, I. Gerasimov, C. Hölzer
   A. Katbashev, J. Kohn, J. Koopman, C. Lavigne, S. Lehtola, F. März, M. Müller,
   F. Musil, H. Neugebauer, J. Pisarek, C. Plett, P. Pracht, F. Pultar,
   J. Seibert, P. Shushkov, S. Spicher, M. Stahn, M. Steiner, T. Strunk,
   J. Stückrath, T. Rose, and J. Unsleber
   
 * started run on 2025/05/15 at 16:28:13.195     
   ID    Z sym.   atoms
    1    6 C      1-3, 5-8, 10, 11, 13, 15, 16, 18-20, 22, 23
    2    8 O      4, 21, 24
    3    7 N      9, 14, 17
    4   16 S      12
    5    1 H      25-43

           -------------------------------------------------
          |                Calculation Setup                |
           -------------------------------------------------

          program call               : xtb /rds/general/user/hgt20/home/callum/QDESCP/Omeprazole_rdkit_conf_3/Omeprazole_rdkit_conf_3.xyz --opt normal --acc 1 --gfn 2 --chrg 0 --uhf 0 -P 1
          hostname                   : login-c
          coordinate file            : /rds/general/user/hgt20/home/callum/QDESCP/Omeprazole_rdkit_conf_3/Omeprazole_rdkit_conf_3.xyz
          omp threads                :                     1


           -------------------------------------------------
          |                 G F N 2 - x T B                 |
           -------------------------------------------------

        Reference                      10.1021/acs.jctc.8b01176
      * Hamiltonian:
        H0-scaling (s, p, d)           1.850000    2.230000    2.230000
        zeta-weighting                 0.500000
      * Dispersion:
        s8                             2.700000
        a1                             0.520000
        a2                             5.000000
        s9                             5.000000
      * Repulsion:
        kExp                           1.500000    1.000000
        rExp                           1.000000
      * Coulomb:
        alpha                          2.000000
        third order                    shell-resolved
        anisotropic                    true
        a3                             3.000000
        a5                             4.000000
        cn-shift                       1.200000
        cn-exp                         4.000000
        max-rad                        5.000000


          ...................................................
          :                      SETUP                      :
          :.................................................:
          :  # basis functions                 121          :
          :  # atomic orbitals                 120          :
          :  # shells                           68          :
          :  # electrons                       126          :
          :  max. iterations                   250          :
          :  Hamiltonian                  GFN2-xTB          :
          :  restarted?                      false          :
          :  GBSA solvation                  false          :
          :  PC potential                    false          :
          :  electronic temp.          300.0000000     K    :
          :  accuracy                    1.0000000          :
          :  -> integral cutoff          0.2500000E+02      :
          :  -> integral neglect         0.1000000E-07      :
          :  -> SCF convergence          0.1000000E-05 Eh   :
          :  -> wf. convergence          0.1000000E-03 e    :
          :  Broyden damping             0.4000000          :
          :  net charge                          0          :
          :  unpaired electrons                  0          :
          ...................................................

 iter      E             dE          RMSdq      gap      omega  full diag
   1    -71.0651785 -0.710652E+02  0.443E+00    3.10       0.0  T
   2    -71.1700850 -0.104906E+00  0.252E+00    3.21       1.0  T
   3    -71.1654801  0.460481E-02  0.119E+00    3.00       1.0  T
   4    -71.1763998 -0.109197E-01  0.501E-01    2.96       1.0  T
   5    -71.1842984 -0.789854E-02  0.158E-01    2.93       1.0  T
   6    -71.1844828 -0.184421E-03  0.799E-02    2.93       1.0  T
   7    -71.1845523 -0.695047E-04  0.339E-02    2.94       1.0  T
   8    -71.1845601 -0.778317E-05  0.191E-02    2.95       1.0  T
   9    -71.1845626 -0.248773E-05  0.780E-03    2.95       2.0  T
  10    -71.1845639 -0.131899E-05  0.320E-03    2.95       4.8  T
  11    -71.1845639 -0.347756E-07  0.154E-03    2.95       9.9  T
  12    -71.1845639 -0.241454E-07  0.605E-04    2.95      25.2  T
  13    -71.1845640 -0.623950E-08  0.244E-04    2.95      62.5  T

   *** convergence criteria satisfied after 13 iterations ***

         #    Occupation            Energy/Eh            Energy/eV
      -------------------------------------------------------------
         1        2.0000           -0.7556824             -20.5632
       ...           ...                  ...                  ...
        57        2.0000           -0.4087861             -11.1236
        58        2.0000           -0.4032875             -10.9740
        59        2.0000           -0.4008077             -10.9065
        60        2.0000           -0.3950111             -10.7488
        61        2.0000           -0.3860299             -10.5044
        62        2.0000           -0.3810832             -10.3698
        63        2.0000           -0.3739105             -10.1746 (HOMO)
        64                         -0.2655147              -7.2250 (LUMO)
        65                         -0.2524181              -6.8686
        66                         -0.2366247              -6.4389
        67                         -0.2104226              -5.7259
        68                         -0.2059112              -5.6031
       ...                                ...                  ...
       120                          0.7990381              21.7429
      -------------------------------------------------------------
                  HL-Gap            0.1083958 Eh            2.9496 eV
             Fermi-level           -0.3197126 Eh           -8.6998 eV

 SCC (total)                   0 d,  0 h,  0 min,  0.098 sec
 SCC setup                      ...        0 min,  0.000 sec (  0.380%)
 Dispersion                     ...        0 min,  0.000 sec (  0.474%)
 classical contributions        ...        0 min,  0.000 sec (  0.154%)
 integral evaluation            ...        0 min,  0.009 sec (  8.968%)
 iterations                     ...        0 min,  0.032 sec ( 32.421%)
 molecular gradient             ...        0 min,  0.056 sec ( 57.396%)
 printout                       ...        0 min,  0.000 sec (  0.199%)

         :::::::::::::::::::::::::::::::::::::::::::::::::::::
         ::                     SUMMARY                     ::
         :::::::::::::::::::::::::::::::::::::::::::::::::::::
         :: total energy             -70.300450576996 Eh    ::
         :: gradient norm              0.097897473583 Eh/a0 ::
         :: HOMO-LUMO gap              2.949599594423 eV    ::
         ::.................................................::
         :: SCC energy               -71.183828428962 Eh    ::
         :: -> isotropic ES            0.094994429170 Eh    ::
         :: -> anisotropic ES          0.009256702445 Eh    ::
         :: -> anisotropic XC          0.030616626617 Eh    ::
         :: -> dispersion             -0.048572889378 Eh    ::
         :: repulsion energy           0.883377851966 Eh    ::
         :: add. restraining           0.000000000000 Eh    ::
         :: total charge               0.000000000000 e     ::
         :::::::::::::::::::::::::::::::::::::::::::::::::::::

      ----------------------------------------------------------- 
     |                   =====================                   |
     |                        A N C O P T                        |
     |                   =====================                   |
     |               Approximate Normal Coordinate               |
     |                Rational Function Optimizer                |
      ----------------------------------------------------------- 
      ----------------------------------------------------------- 
     |                   =====================                   |
     |                        A N C O P T                        |
     |                   =====================                   |
     |               Approximate Normal Coordinate               |
     |                Rational Function Optimizer                |
      ----------------------------------------------------------- 

          ...................................................
          :                      SETUP                      :
          :.................................................:
          :   optimization level            normal          :
          :   max. optcycles                   200          :
          :   ANC micro-cycles                  20          :
          :   degrees of freedom               123          :
          :.................................................:
          :   RF solver                   davidson          :
          :   write xtbopt.log                true          :
          :   linear?                        false          :
          :   energy convergence         0.5000000E-05 Eh   :
          :   grad. convergence          0.1000000E-02 Eh/α :
          :   maxmium RF displ.          1.0000000          :
          :   Hlow (freq-cutoff)         0.1000000E-01      :
          :   Hmax (freq-cutoff)         5.0000000          :
          :   S6 in model hess.         20.0000000          :
          ...................................................

generating ANC from exact Hessian ...
Using Lindh-Hessian (1995)
 Shifting diagonal of input Hessian by    9.8446182374567082E-003
 Lowest  eigenvalues of input Hessian
    0.000000    0.000000    0.000000    0.000000    0.000000    0.000000
    0.010000    0.010112    0.010343    0.010848    0.011904    0.012211
    0.012625    0.012995    0.014134    0.014310    0.015616    0.016101
 Highest eigenvalues
    1.983901    2.032262    2.038487    2.099181    2.232184    2.253373


........................................................................
.............................. CYCLE    1 ..............................
........................................................................

 iter      E             dE          RMSdq      gap      omega  full diag
   1    -71.1845640 -0.711846E+02  0.989E-05    2.95       0.0  T
   2    -71.1845640 -0.735980E-10  0.597E-05    2.95     255.5  T
   3    -71.1845640 -0.463842E-10  0.405E-05    2.95     376.2  T
     SCC iter.                  ...        0 min,  0.008 sec
     gradient                   ...        0 min,  0.061 sec
 * total energy  :   -70.3004506 Eh     change       -0.9795826E-09 Eh
   gradient norm :     0.0978979 Eh/α   predicted     0.0000000E+00 (-100.00%)
   displ. norm   :     0.3024302 α      lambda       -0.1334167E-01
   maximum displ.:     0.0931511 α      in ANC's #32, #35, #46, ...

........................................................................
.............................. CYCLE    2 ..............................
........................................................................

 iter      E             dE          RMSdq      gap      omega  full diag
   1    -71.2189629 -0.712190E+02  0.214E-01    2.96       0.0  T
   2    -71.2190532 -0.902783E-04  0.131E-01    2.99       1.0  T
   3    -71.2189505  0.102680E-03  0.651E-02    2.97       1.0  T
   4    -71.2191061 -0.155611E-03  0.148E-02    2.98       1.0  T
   5    -71.2191094 -0.324761E-05  0.701E-03    2.98       2.2  T
   6    -71.2191097 -0.304697E-06  0.291E-03    2.98       5.2  T
   7    -71.2191098 -0.114187E-06  0.156E-03    2.98       9.8  T
   8    -71.2191098 -0.119191E-07  0.710E-04    2.98      21.5  T
   9    -71.2191098 -0.558539E-08  0.249E-04    2.98      61.2  T
     SCC iter.                  ...        0 min,  0.021 sec
     gradient                   ...        0 min,  0.028 sec
 * total energy  :   -70.3095549 Eh     change       -0.9104368E-02 Eh
   gradient norm :     0.0446556 Eh/α   predicted    -0.7287405E-02 ( -19.96%)
   displ. norm   :     0.2641812 α      lambda       -0.3822586E-02
   maximum displ.:     0.1133376 α      in ANC's #9, #6, #18, ...

........................................................................
.............................. CYCLE    3 ..............................
........................................................................

 iter      E             dE          RMSdq      gap      omega  full diag
   1    -71.2389005 -0.712389E+02  0.127E-01    2.98       0.0  T
   2    -71.2389594 -0.588765E-04  0.815E-02    2.99       1.0  T
   3    -71.2389547  0.468963E-05  0.393E-02    2.98       1.0  T
   4    -71.2389760 -0.213105E-04  0.119E-02    2.98       1.3  T
   5    -71.2389805 -0.442951E-05  0.374E-03    2.98       4.1  T
   6    -71.2389805 -0.377726E-07  0.214E-03    2.98       7.1  T
   7    -71.2389806 -0.355352E-07  0.919E-04    2.98      16.6  T
   8    -71.2389806 -0.902038E-08  0.524E-04    2.98      29.1  T
     SCC iter.                  ...        0 min,  0.019 sec
     gradient                   ...        0 min,  0.028 sec
 * total energy  :   -70.3117921 Eh     change       -0.2237122E-02 Eh
   gradient norm :     0.0124324 Eh/α   predicted    -0.2045755E-02 (  -8.55%)
   displ. norm   :     0.2015181 α      lambda       -0.6530409E-03
   maximum displ.:     0.1094577 α      in ANC's #9, #6, #5, ...

........................................................................
.............................. CYCLE    4 ..............................
........................................................................

 iter      E             dE          RMSdq      gap      omega  full diag
   1    -71.2408979 -0.712409E+02  0.557E-02    2.99       0.0  T
   2    -71.2409077 -0.980989E-05  0.327E-02    2.98       1.0  T
   3    -71.2409077 -0.516480E-07  0.155E-02    2.98       1.0  T
   4    -71.2409088 -0.107346E-05  0.551E-03    2.98       2.8  T
   5    -71.2409096 -0.834895E-06  0.186E-03    2.98       8.2  T
   6    -71.2409097 -0.169937E-07  0.801E-04    2.98      19.0  T
   7    -71.2409097 -0.102311E-07  0.325E-04    2.98      47.0  T
     SCC iter.                  ...        0 min,  0.037 sec
     gradient                   ...        0 min,  0.027 sec
 * total energy  :   -70.3123044 Eh     change       -0.5123609E-03 Eh
   gradient norm :     0.0073294 Eh/α   predicted    -0.3397981E-03 ( -33.68%)
   displ. norm   :     0.3627035 α      lambda       -0.7680388E-03
   maximum displ.:     0.1948943 α      in ANC's #9, #6, #5, ...

........................................................................
.............................. CYCLE    5 ..............................
........................................................................

 iter      E             dE          RMSdq      gap      omega  full diag
   1    -71.2402711 -0.712403E+02  0.872E-02    2.99       0.0  T
   2    -71.2402858 -0.146725E-04  0.478E-02    2.98       1.0  T
   3    -71.2402821  0.371004E-05  0.216E-02    2.98       1.0  T
   4    -71.2402891 -0.698660E-05  0.855E-03    2.98       1.8  T
   5    -71.2402908 -0.173832E-05  0.298E-03    2.98       5.1  T
   6    -71.2402909 -0.568771E-07  0.101E-03    2.98      15.2  T
   7    -71.2402909 -0.169641E-07  0.451E-04    2.98      33.8  T
   8    -71.2402909 -0.364906E-09  0.244E-04    2.98      62.4  T
     SCC iter.                  ...        0 min,  0.019 sec
     gradient                   ...        0 min,  0.028 sec
 * total energy  :   -70.3128340 Eh     change       -0.5295587E-03 Eh
   gradient norm :     0.0081136 Eh/α   predicted    -0.4345409E-03 ( -17.94%)
   displ. norm   :     0.2945988 α      lambda       -0.3486913E-03
   maximum displ.:     0.1469112 α      in ANC's #9, #6, #5, ...

........................................................................
.............................. CYCLE    6 ..............................
........................................................................

 iter      E             dE          RMSdq      gap      omega  full diag
   1    -71.2394998 -0.712395E+02  0.643E-02    2.99       0.0  T
   2    -71.2395042 -0.434749E-05  0.329E-02    2.98       1.0  T
   3    -71.2395006  0.353155E-05  0.135E-02    2.98       1.1  T
   4    -71.2395059 -0.532620E-05  0.550E-03    2.98       2.8  T
   5    -71.2395063 -0.338468E-06  0.163E-03    2.98       9.4  T
   6    -71.2395063 -0.414587E-07  0.546E-04    2.98      27.9  T
   7    -71.2395063 -0.364614E-08  0.266E-04    2.98      57.3  T
     SCC iter.                  ...        0 min,  0.016 sec
     gradient                   ...        0 min,  0.028 sec
 * total energy  :   -70.3130849 Eh     change       -0.2509011E-03 Eh
   gradient norm :     0.0076713 Eh/α   predicted    -0.1894847E-03 ( -24.48%)
   displ. norm   :     0.2615782 α      lambda       -0.2327126E-03
   maximum displ.:     0.1248758 α      in ANC's #5, #6, #9, ...

........................................................................
.............................. CYCLE    7 ..............................
........................................................................

 iter      E             dE          RMSdq      gap      omega  full diag
   1    -71.2394974 -0.712395E+02  0.535E-02    2.99       0.0  T
   2    -71.2395014 -0.395287E-05  0.271E-02    2.99       1.0  T
   3    -71.2395002  0.123394E-05  0.101E-02    2.99       1.5  T
   4    -71.2395020 -0.189550E-05  0.468E-03    2.99       3.3  T
   5    -71.2395025 -0.437784E-06  0.167E-03    2.99       9.1  T
   6    -71.2395025 -0.200424E-07  0.512E-04    2.99      29.8  T
   7    -71.2395025 -0.566752E-08  0.196E-04    2.99      77.9  T
     SCC iter.                  ...        0 min,  0.016 sec
     gradient                   ...        0 min,  0.031 sec
 * total energy  :   -70.3132485 Eh     change       -0.1636491E-03 Eh
   gradient norm :     0.0053045 Eh/α   predicted    -0.1243228E-03 ( -24.03%)
   displ. norm   :     0.1941625 α      lambda       -0.1452682E-03
   maximum displ.:     0.1058282 α      in ANC's #5, #2, #6, ...

........................................................................
.............................. CYCLE    8 ..............................
........................................................................

 iter      E             dE          RMSdq      gap      omega  full diag
   1    -71.2401994 -0.712402E+02  0.385E-02    3.00       0.0  T
   2    -71.2402014 -0.206384E-05  0.209E-02    3.00       1.0  T
   3    -71.2402011  0.354890E-06  0.696E-03    3.01       2.2  T
   4    -71.2402016 -0.498657E-06  0.291E-03    3.00       5.2  T
   5    -71.2402018 -0.217554E-06  0.109E-03    3.01      14.0  T
   6    -71.2402018 -0.167613E-07  0.375E-04    3.01      40.7  T
   7    -71.2402018 -0.298338E-08  0.152E-04    3.01     100.0  T
     SCC iter.                  ...        0 min,  0.016 sec
     gradient                   ...        0 min,  0.028 sec
 * total energy  :   -70.3133536 Eh     change       -0.1050791E-03 Eh
   gradient norm :     0.0037643 Eh/α   predicted    -0.7542997E-04 ( -28.22%)
   displ. norm   :     0.1606157 α      lambda       -0.1038948E-03
   maximum displ.:     0.0880718 α      in ANC's #5, #2, #1, ...

........................................................................
.............................. CYCLE    9 ..............................
........................................................................

 iter      E             dE          RMSdq      gap      omega  full diag
   1    -71.2408979 -0.712409E+02  0.343E-02    3.01       0.0  T
   2    -71.2408986 -0.706633E-06  0.197E-02    3.02       1.0  T
   3    -71.2408983  0.287736E-06  0.459E-03    3.02       3.3  T
   4    -71.2408987 -0.391320E-06  0.181E-03    3.02       8.4  T
   5    -71.2408987 -0.641050E-07  0.730E-04    3.02      20.9  T
   6    -71.2408987 -0.715796E-08  0.270E-04    3.02      56.5  T
     SCC iter.                  ...        0 min,  0.029 sec
     gradient                   ...        0 min,  0.028 sec
 * total energy  :   -70.3134294 Eh     change       -0.7575721E-04 Eh
   gradient norm :     0.0032924 Eh/α   predicted    -0.5328825E-04 ( -29.66%)
   displ. norm   :     0.1634825 α      lambda       -0.7770686E-04
   maximum displ.:     0.0848657 α      in ANC's #5, #2, #1, ...

........................................................................
.............................. CYCLE   10 ..............................
........................................................................

 iter      E             dE          RMSdq      gap      omega  full diag
   1    -71.2410646 -0.712411E+02  0.345E-02    3.02       0.0  T
   2    -71.2410650 -0.326156E-06  0.200E-02    3.02       1.0  T
   3    -71.2410648  0.165977E-06  0.307E-03    3.02       5.0  T
   4    -71.2410650 -0.252103E-06  0.144E-03    3.02      10.6  T
   5    -71.2410651 -0.328138E-07  0.417E-04    3.02      36.6  T
   6    -71.2410651 -0.358986E-08  0.211E-04    3.02      72.3  T
     SCC iter.                  ...        0 min,  0.014 sec
     gradient                   ...        0 min,  0.028 sec
 * total energy  :   -70.3134896 Eh     change       -0.6025997E-04 Eh
   gradient norm :     0.0034550 Eh/α   predicted    -0.3989312E-04 ( -33.80%)
   displ. norm   :     0.2102269 α      lambda       -0.8679456E-04
   maximum displ.:     0.1053065 α      in ANC's #2, #5, #1, ...

........................................................................
.............................. CYCLE   11 ..............................
........................................................................

 iter      E             dE          RMSdq      gap      omega  full diag
   1    -71.2408838 -0.712409E+02  0.437E-02    3.03       0.0  T
   2    -71.2408843 -0.529777E-06  0.253E-02    3.03       1.0  T
   3    -71.2408839  0.463517E-06  0.430E-03    3.03       3.5  T
   4    -71.2408844 -0.591264E-06  0.194E-03    3.03       7.9  T
   5    -71.2408845 -0.820922E-07  0.567E-04    3.03      26.9  T
   6    -71.2408845 -0.253124E-08  0.268E-04    3.03      56.9  T
     SCC iter.                  ...        0 min,  0.014 sec
     gradient                   ...        0 min,  0.028 sec
 * total energy  :   -70.3135591 Eh     change       -0.6951128E-04 Eh
   gradient norm :     0.0038085 Eh/α   predicted    -0.4532019E-04 ( -34.80%)
   displ. norm   :     0.2781877 α      lambda       -0.1055918E-03
   maximum displ.:     0.1423939 α      in ANC's #2, #1, #5, ...

........................................................................
.............................. CYCLE   12 ..............................
........................................................................

 iter      E             dE          RMSdq      gap      omega  full diag
   1    -71.2404132 -0.712404E+02  0.569E-02    3.04       0.0  T
   2    -71.2404144 -0.115105E-05  0.326E-02    3.03       1.0  T
   3    -71.2404134  0.102526E-05  0.700E-03    3.03       2.2  T
   4    -71.2404146 -0.125113E-05  0.295E-03    3.03       5.2  T
   5    -71.2404148 -0.201731E-06  0.899E-04    3.03      17.0  T
   6    -71.2404148 -0.690504E-08  0.376E-04    3.03      40.6  T
     SCC iter.                  ...        0 min,  0.014 sec
     gradient                   ...        0 min,  0.028 sec
 * total energy  :   -70.3136419 Eh     change       -0.8279697E-04 Eh
   gradient norm :     0.0041706 Eh/α   predicted    -0.5688355E-04 ( -31.30%)
   displ. norm   :     0.2815954 α      lambda       -0.1012123E-03
   maximum displ.:     0.1485837 α      in ANC's #2, #1, #5, ...

........................................................................
.............................. CYCLE   13 ..............................
........................................................................

 iter      E             dE          RMSdq      gap      omega  full diag
   1    -71.2403602 -0.712404E+02  0.556E-02    3.03       0.0  T
   2    -71.2403615 -0.132328E-05  0.316E-02    3.03       1.0  T
   3    -71.2403605  0.973539E-06  0.758E-03    3.03       2.0  T
   4    -71.2403617 -0.120686E-05  0.320E-03    3.03       4.8  T
   5    -71.2403620 -0.218087E-06  0.103E-03    3.03      14.8  T
   6    -71.2403620 -0.143652E-07  0.402E-04    3.03      37.9  T
   7    -71.2403620 -0.140534E-08  0.208E-04    3.03      73.3  T
     SCC iter.                  ...        0 min,  0.016 sec
     gradient                   ...        0 min,  0.028 sec
 * total energy  :   -70.3137202 Eh     change       -0.7827589E-04 Eh
   gradient norm :     0.0038360 Eh/α   predicted    -0.5462059E-04 ( -30.22%)
   displ. norm   :     0.2593873 α      lambda       -0.8462268E-04
   maximum displ.:     0.1424911 α      in ANC's #1, #2, #3, ...

........................................................................
.............................. CYCLE   14 ..............................
........................................................................

 iter      E             dE          RMSdq      gap      omega  full diag
   1    -71.2406715 -0.712407E+02  0.467E-02    3.03       0.0  T
   2    -71.2406724 -0.899525E-06  0.265E-02    3.03       1.0  T
   3    -71.2406718  0.645264E-06  0.619E-03    3.03       2.5  T
   4    -71.2406726 -0.833563E-06  0.268E-03    3.03       5.7  T
   5    -71.2406727 -0.125829E-06  0.890E-04    3.03      17.1  T
   6    -71.2406728 -0.169327E-07  0.338E-04    3.03      45.1  T
     SCC iter.                  ...        0 min,  0.014 sec
     gradient                   ...        0 min,  0.048 sec
 * total energy  :   -70.3137866 Eh     change       -0.6636407E-04 Eh
   gradient norm :     0.0030281 Eh/α   predicted    -0.4516136E-04 ( -31.95%)
   displ. norm   :     0.2455261 α      lambda       -0.7544282E-04
   maximum displ.:     0.1431601 α      in ANC's #1, #2, #3, ...

........................................................................
.............................. CYCLE   15 ..............................
........................................................................

 iter      E             dE          RMSdq      gap      omega  full diag
   1    -71.2412607 -0.712413E+02  0.386E-02    3.02       0.0  T
   2    -71.2412613 -0.516704E-06  0.223E-02    3.02       1.0  T
   3    -71.2412609  0.389721E-06  0.436E-03    3.02       3.5  T
   4    -71.2412614 -0.531718E-06  0.183E-03    3.02       8.3  T
   5    -71.2412615 -0.478805E-07  0.668E-04    3.02      22.8  T
   6    -71.2412615 -0.110771E-07  0.264E-04    3.02      57.8  T
     SCC iter.                  ...        0 min,  0.014 sec
     gradient                   ...        0 min,  0.029 sec
 * total energy  :   -70.3138483 Eh     change       -0.6169919E-04 Eh
   gradient norm :     0.0023952 Eh/α   predicted    -0.3999947E-04 ( -35.17%)
   displ. norm   :     0.2739301 α      lambda       -0.8246397E-04
   maximum displ.:     0.1637564 α      in ANC's #1, #2, #3, ...

........................................................................
.............................. CYCLE   16 ..............................
........................................................................

 iter      E             dE          RMSdq      gap      omega  full diag
   1    -71.2415255 -0.712415E+02  0.384E-02    3.02       0.0  T
   2    -71.2415259 -0.433858E-06  0.225E-02    3.02       1.0  T
   3    -71.2415256  0.303138E-06  0.343E-03    3.02       4.4  T
   4    -71.2415261 -0.446568E-06  0.133E-03    3.02      11.5  T
   5    -71.2415261 -0.257551E-07  0.576E-04    3.02      26.5  T
   6    -71.2415261 -0.357001E-08  0.237E-04    3.02      64.4  T
     SCC iter.                  ...        0 min,  0.014 sec
     gradient                   ...        0 min,  0.029 sec
 * total energy  :   -70.3139191 Eh     change       -0.7077318E-04 Eh
   gradient norm :     0.0026935 Eh/α   predicted    -0.4432759E-04 ( -37.37%)
   displ. norm   :     0.3460413 α      lambda       -0.1113713E-03
   maximum displ.:     0.2111206 α      in ANC's #1, #2, #3, ...

........................................................................
.............................. CYCLE   17 ..............................
........................................................................

 iter      E             dE          RMSdq      gap      omega  full diag
   1    -71.2422500 -0.712422E+02  0.465E-02    3.02       0.0  T
   2    -71.2422509 -0.895606E-06  0.270E-02    3.02       1.0  T
   3    -71.2422504  0.498786E-06  0.483E-03    3.02       3.2  T
   4    -71.2422511 -0.671723E-06  0.197E-03    3.02       7.7  T
   5    -71.2422512 -0.113126E-06  0.810E-04    3.02      18.8  T
   6    -71.2422512 -0.561806E-08  0.321E-04    3.02      47.6  T
     SCC iter.                  ...        0 min,  0.014 sec
     gradient                   ...        0 min,  0.054 sec
 * total energy  :   -70.3140119 Eh     change       -0.9282475E-04 Eh
   gradient norm :     0.0035194 Eh/α   predicted    -0.6235685E-04 ( -32.82%)
   displ. norm   :     0.4711667 α      lambda       -0.1379225E-03
   maximum displ.:     0.2829183 α      in ANC's #1, #2, #3, ...

........................................................................
.............................. CYCLE   18 ..............................
........................................................................

 iter      E             dE          RMSdq      gap      omega  full diag
   1    -71.2400031 -0.712400E+02  0.665E-02    3.02       0.0  T
   2    -71.2400055 -0.246557E-05  0.384E-02    3.02       1.0  T
   3    -71.2400050  0.572080E-06  0.758E-03    3.02       2.0  T
   4    -71.2400059 -0.916708E-06  0.295E-03    3.02       5.2  T
   5    -71.2400061 -0.233592E-06  0.125E-03    3.02      12.2  T
   6    -71.2400061 -0.190640E-07  0.483E-04    3.02      31.6  T
   7    -71.2400061 -0.219570E-08  0.220E-04    3.02      69.4  T
     SCC iter.                  ...        0 min,  0.016 sec
     gradient                   ...        0 min,  0.057 sec
 * total energy  :   -70.3141013 Eh     change       -0.8946810E-04 Eh
   gradient norm :     0.0054799 Eh/α   predicted    -0.8427135E-04 (  -5.81%)
   displ. norm   :     0.3537341 α      lambda       -0.1415217E-03
   maximum displ.:     0.2187468 α      in ANC's #1, #2, #3, ...

........................................................................
.............................. CYCLE   19 ..............................
........................................................................

 iter      E             dE          RMSdq      gap      omega  full diag
   1    -71.2411172 -0.712411E+02  0.525E-02    3.02       0.0  T
   2    -71.2411194 -0.218987E-05  0.291E-02    3.02       1.0  T
   3    -71.2411188  0.683920E-06  0.835E-03    3.02       1.8  T
   4    -71.2411196 -0.895663E-06  0.355E-03    3.02       4.3  T
   5    -71.2411200 -0.314938E-06  0.122E-03    3.02      12.5  T
   6    -71.2411200 -0.227808E-07  0.454E-04    3.02      33.6  T
   7    -71.2411200 -0.212574E-08  0.233E-04    3.02      65.3  T
     SCC iter.                  ...        0 min,  0.016 sec
     gradient                   ...        0 min,  0.029 sec
 * total energy  :   -70.3142030 Eh     change       -0.1016788E-03 Eh
   gradient norm :     0.0035995 Eh/α   predicted    -0.7961765E-04 ( -21.70%)
   displ. norm   :     0.3389772 α      lambda       -0.8318084E-04
   maximum displ.:     0.2119960 α      in ANC's #1, #2, #3, ...

........................................................................
.............................. CYCLE   20 ..............................
........................................................................

 iter      E             dE          RMSdq      gap      omega  full diag
   1    -71.2412521 -0.712413E+02  0.520E-02    3.02       0.0  T
   2    -71.2412534 -0.125392E-05  0.293E-02    3.02       1.0  T
   3    -71.2412531  0.307916E-06  0.609E-03    3.02       2.5  T
   4    -71.2412536 -0.503983E-06  0.279E-03    3.02       5.5  T
   5    -71.2412537 -0.143985E-06  0.946E-04    3.02      16.1  T
   6    -71.2412538 -0.201945E-07  0.368E-04    3.02      41.4  T
     SCC iter.                  ...        0 min,  0.014 sec
     gradient                   ...        0 min,  0.031 sec
 * total energy  :   -70.3142693 Eh     change       -0.6630414E-04 Eh
   gradient norm :     0.0026531 Eh/α   predicted    -0.4637160E-04 ( -30.06%)
   displ. norm   :     0.2858663 α      lambda       -0.7164499E-04
   maximum displ.:     0.1838579 α      in ANC's #1, #3, #2, ...
 * RMSD in coord.:     0.6291752 α      energy gain  -0.1381875E-01 Eh

generating ANC from exact Hessian ...
Using Lindh-Hessian (1995)
 Shifting diagonal of input Hessian by    9.8128126008677954E-003
 Lowest  eigenvalues of input Hessian
    0.000000    0.000000    0.000000    0.000000    0.000000    0.000000
    0.010000    0.010246    0.010376    0.010870    0.011905    0.012461
    0.012761    0.013133    0.014190    0.014615    0.015803    0.015944
 Highest eigenvalues
    2.058234    2.069881    2.142156    2.151061    2.251703    2.455166


........................................................................
.............................. CYCLE   21 ..............................
........................................................................

 iter      E             dE          RMSdq      gap      omega  full diag
   1    -71.2419643 -0.712420E+02  0.490E-02    3.01       0.0  T
   2    -71.2419653 -0.101811E-05  0.277E-02    3.02       1.0  T
   3    -71.2419652  0.104884E-06  0.484E-03    3.01       3.1  T
   4    -71.2419655 -0.285126E-06  0.231E-03    3.02       6.6  T
   5    -71.2419656 -0.851508E-07  0.732E-04    3.01      20.8  T
   6    -71.2419656 -0.119803E-07  0.297E-04    3.02      51.3  T
     SCC iter.                  ...        0 min,  0.014 sec
     gradient                   ...        0 min,  0.028 sec
 * total energy  :   -70.3143225 Eh     change       -0.5321664E-04 Eh
   gradient norm :     0.0019730 Eh/α   predicted     0.0000000E+00 (-100.00%)
   displ. norm   :     0.0498676 α      lambda       -0.1974084E-04
   maximum displ.:     0.0283484 α      in ANC's #1, #10, #7, ...

........................................................................
.............................. CYCLE   22 ..............................
........................................................................

 iter      E             dE          RMSdq      gap      omega  full diag
   1    -71.2421757 -0.712422E+02  0.141E-02    3.01       0.0  T
   2    -71.2421758 -0.108596E-06  0.826E-03    3.01       1.8  T
   3    -71.2421756  0.187119E-06  0.220E-03    3.01       6.9  T
   4    -71.2421758 -0.227825E-06  0.575E-04    3.01      26.5  T
   5    -71.2421758 -0.337317E-08  0.237E-04    3.01      64.4  T
     SCC iter.                  ...        0 min,  0.012 sec
     gradient                   ...        0 min,  0.028 sec
 * total energy  :   -70.3143464 Eh     change       -0.2383438E-04 Eh
   gradient norm :     0.0007702 Eh/α   predicted    -0.9887191E-05 ( -58.52%)
   displ. norm   :     0.1380807 α      lambda       -0.3505801E-04
   maximum displ.:     0.0779327 α      in ANC's #1, #10, #7, ...

........................................................................
.............................. CYCLE   23 ..............................
........................................................................

 iter      E             dE          RMSdq      gap      omega  full diag
   1    -71.2419477 -0.712419E+02  0.362E-02    3.01       0.0  T
   2    -71.2419481 -0.365183E-06  0.212E-02    3.01       1.0  T
   3    -71.2419473  0.745576E-06  0.437E-03    3.00       3.5  T
   4    -71.2419483 -0.930074E-06  0.116E-03    3.00      13.2  T
   5    -71.2419483 -0.579041E-08  0.386E-04    3.00      39.5  T
   6    -71.2419483 -0.277258E-08  0.174E-04    3.00      87.7  T
     SCC iter.                  ...        0 min,  0.014 sec
     gradient                   ...        0 min,  0.029 sec
 * total energy  :   -70.3143829 Eh     change       -0.3656234E-04 Eh
   gradient norm :     0.0015942 Eh/α   predicted    -0.1768077E-04 ( -51.64%)
   displ. norm   :     0.1210751 α      lambda       -0.1824474E-04
   maximum displ.:     0.0756541 α      in ANC's #1, #7, #10, ...

........................................................................
.............................. CYCLE   24 ..............................
........................................................................

 iter      E             dE          RMSdq      gap      omega  full diag
   1    -71.2418929 -0.712419E+02  0.306E-02    3.00       0.0  T
   2    -71.2418931 -0.215778E-06  0.179E-02    3.00       1.0  T
   3    -71.2418928  0.287048E-06  0.290E-03    3.00       5.3  T
   4    -71.2418932 -0.382168E-06  0.898E-04    3.00      17.0  T
   5    -71.2418932 -0.731856E-08  0.295E-04    3.00      51.7  T
     SCC iter.                  ...        0 min,  0.012 sec
     gradient                   ...        0 min,  0.028 sec
 * total energy  :   -70.3144040 Eh     change       -0.2104242E-04 Eh
   gradient norm :     0.0015743 Eh/α   predicted    -0.9182188E-05 ( -56.36%)
   displ. norm   :     0.1157151 α      lambda       -0.1622950E-04
   maximum displ.:     0.0769856 α      in ANC's #1, #3, #7, ...

........................................................................
.............................. CYCLE   25 ..............................
........................................................................

 iter      E             dE          RMSdq      gap      omega  full diag
   1    -71.2419880 -0.712420E+02  0.281E-02    3.00       0.0  T
   2    -71.2419882 -0.183000E-06  0.164E-02    3.00       1.0  T
   3    -71.2419881  0.818052E-07  0.201E-03    3.00       7.6  T
   4    -71.2419882 -0.137635E-06  0.846E-04    3.00      18.0  T
   5    -71.2419883 -0.123229E-07  0.288E-04    3.00      52.9  T
     SCC iter.                  ...        0 min,  0.012 sec
     gradient                   ...        0 min,  0.029 sec
 * total energy  :   -70.3144244 Eh     change       -0.2044415E-04 Eh
   gradient norm :     0.0009298 Eh/α   predicted    -0.8163584E-05 ( -60.07%)
   displ. norm   :     0.1310575 α      lambda       -0.1874230E-04
   maximum displ.:     0.0900216 α      in ANC's #1, #3, #12, ...

........................................................................
.............................. CYCLE   26 ..............................
........................................................................

 iter      E             dE          RMSdq      gap      omega  full diag
   1    -71.2420903 -0.712421E+02  0.294E-02    3.00       0.0  T
   2    -71.2420905 -0.196187E-06  0.172E-02    3.00       1.0  T
   3    -71.2420904  0.793032E-07  0.211E-03    3.00       7.2  T
   4    -71.2420905 -0.132556E-06  0.927E-04    3.00      16.4  T
   5    -71.2420906 -0.156460E-07  0.328E-04    3.00      46.5  T
     SCC iter.                  ...        0 min,  0.012 sec
     gradient                   ...        0 min,  0.029 sec
 * total energy  :   -70.3144484 Eh     change       -0.2399682E-04 Eh
   gradient norm :     0.0007371 Eh/α   predicted    -0.9442830E-05 ( -60.65%)
   displ. norm   :     0.1578481 α      lambda       -0.2121268E-04
   maximum displ.:     0.1088630 α      in ANC's #1, #3, #12, ...

........................................................................
.............................. CYCLE   27 ..............................
........................................................................

 iter      E             dE          RMSdq      gap      omega  full diag
   1    -71.2420756 -0.712421E+02  0.333E-02    3.00       0.0  T
   2    -71.2420758 -0.225558E-06  0.195E-02    3.00       1.0  T
   3    -71.2420757  0.774998E-07  0.218E-03    3.00       7.0  T
   4    -71.2420758 -0.134244E-06  0.103E-03    3.00      14.8  T
   5    -71.2420759 -0.248110E-07  0.341E-04    3.00      44.7  T
   6    -71.2420759 -0.230180E-08  0.141E-04    3.00     108.1  T
     SCC iter.                  ...        0 min,  0.014 sec
     gradient                   ...        0 min,  0.028 sec
 * total energy  :   -70.3144761 Eh     change       -0.2763294E-04 Eh
   gradient norm :     0.0012788 Eh/α   predicted    -0.1072423E-04 ( -61.19%)
   displ. norm   :     0.1882695 α      lambda       -0.2407779E-04
   maximum displ.:     0.1300785 α      in ANC's #1, #3, #12, ...

........................................................................
.............................. CYCLE   28 ..............................
........................................................................

 iter      E             dE          RMSdq      gap      omega  full diag
   1    -71.2420243 -0.712420E+02  0.393E-02    3.01       0.0  T
   2    -71.2420246 -0.289973E-06  0.231E-02    3.01       1.0  T
   3    -71.2420244  0.139408E-06  0.264E-03    3.01       5.8  T
   4    -71.2420247 -0.211765E-06  0.121E-03    3.01      12.6  T
   5    -71.2420247 -0.377581E-07  0.419E-04    3.01      36.4  T
   6    -71.2420247 -0.241293E-08  0.164E-04    3.01      93.1  T
     SCC iter.                  ...        0 min,  0.014 sec
     gradient                   ...        0 min,  0.029 sec
 * total energy  :   -70.3145081 Eh     change       -0.3204900E-04 Eh
   gradient norm :     0.0015368 Eh/α   predicted    -0.1222936E-04 ( -61.84%)
   displ. norm   :     0.2218303 α      lambda       -0.2755591E-04
   maximum displ.:     0.1541741 α      in ANC's #1, #3, #12, ...

........................................................................
.............................. CYCLE   29 ..............................
........................................................................

 iter      E             dE          RMSdq      gap      omega  full diag
   1    -71.2418860 -0.712419E+02  0.475E-02    3.01       0.0  T
   2    -71.2418865 -0.420421E-06  0.279E-02    3.01       1.0  T
   3    -71.2418862  0.221922E-06  0.319E-03    3.01       4.8  T
   4    -71.2418866 -0.333047E-06  0.142E-03    3.01      10.7  T
   5    -71.2418866 -0.531405E-07  0.507E-04    3.01      30.1  T
   6    -71.2418866 -0.251367E-08  0.198E-04    3.01      77.0  T
     SCC iter.                  ...        0 min,  0.014 sec
     gradient                   ...        0 min,  0.028 sec
 * total energy  :   -70.3145450 Eh     change       -0.3690344E-04 Eh
   gradient norm :     0.0013887 Eh/α   predicted    -0.1407999E-04 ( -61.85%)
   displ. norm   :     0.2495368 α      lambda       -0.2990921E-04
   maximum displ.:     0.1757905 α      in ANC's #1, #3, #12, ...

........................................................................
.............................. CYCLE   30 ..............................
........................................................................

 iter      E             dE          RMSdq      gap      omega  full diag
   1    -71.2417730 -0.712418E+02  0.558E-02    3.01       0.0  T
   2    -71.2417736 -0.564632E-06  0.328E-02    3.01       1.0  T
   3    -71.2417734  0.145340E-06  0.334E-03    3.01       4.6  T
   4    -71.2417737 -0.266569E-06  0.166E-03    3.01       9.2  T
   5    -71.2417738 -0.807591E-07  0.632E-04    3.01      24.1  T
   6    -71.2417738 -0.483595E-08  0.233E-04    3.01      65.5  T
     SCC iter.                  ...        0 min,  0.014 sec
     gradient                   ...        0 min,  0.029 sec
 * total energy  :   -70.3145849 Eh     change       -0.3987113E-04 Eh
   gradient norm :     0.0011246 Eh/α   predicted    -0.1536916E-04 ( -61.45%)
   displ. norm   :     0.2639605 α      lambda       -0.3038648E-04
   maximum displ.:     0.1891400 α      in ANC's #1, #3, #4, ...

........................................................................
.............................. CYCLE   31 ..............................
........................................................................

 iter      E             dE          RMSdq      gap      omega  full diag
   1    -71.2417236 -0.712417E+02  0.609E-02    3.00       0.0  T
   2    -71.2417243 -0.675874E-06  0.357E-02    3.01       1.0  T
   3    -71.2417241  0.201858E-06  0.373E-03    3.01       4.1  T
   4    -71.2417244 -0.361273E-06  0.181E-03    3.01       8.4  T
   5    -71.2417245 -0.872170E-07  0.689E-04    3.01      22.1  T
   6    -71.2417245 -0.539526E-08  0.254E-04    3.01      60.1  T
     SCC iter.                  ...        0 min,  0.014 sec
     gradient                   ...        0 min,  0.029 sec
 * total energy  :   -70.3146256 Eh     change       -0.4069607E-04 Eh
   gradient norm :     0.0011088 Eh/α   predicted    -0.1566433E-04 ( -61.51%)
   displ. norm   :     0.2753558 α      lambda       -0.3152385E-04
   maximum displ.:     0.2004957 α      in ANC's #1, #3, #6, ...

........................................................................
.............................. CYCLE   32 ..............................
........................................................................

 iter      E             dE          RMSdq      gap      omega  full diag
   1    -71.2417950 -0.712418E+02  0.651E-02    3.00       0.0  T
   2    -71.2417958 -0.734052E-06  0.381E-02    3.00       1.0  T
   3    -71.2417957  0.613042E-07  0.349E-03    3.00       4.4  T
   4    -71.2417959 -0.234497E-06  0.181E-03    3.00       8.4  T
   5    -71.2417960 -0.758475E-07  0.694E-04    3.00      22.0  T
   6    -71.2417960 -0.730479E-08  0.262E-04    3.00      58.2  T
     SCC iter.                  ...        0 min,  0.014 sec
     gradient                   ...        0 min,  0.029 sec
 * total energy  :   -70.3146684 Eh     change       -0.4283326E-04 Eh
   gradient norm :     0.0012585 Eh/α   predicted    -0.1629438E-04 ( -61.96%)
   displ. norm   :     0.3131207 α      lambda       -0.3636643E-04
   maximum displ.:     0.2305183 α      in ANC's #1, #3, #6, ...

........................................................................
.............................. CYCLE   33 ..............................
........................................................................

 iter      E             dE          RMSdq      gap      omega  full diag
   1    -71.2417844 -0.712418E+02  0.744E-02    3.00       0.0  T
   2    -71.2417854 -0.100133E-05  0.435E-02    3.00       1.0  T
   3    -71.2417851  0.250184E-06  0.445E-03    3.00       3.4  T
   4    -71.2417856 -0.497353E-06  0.217E-03    3.00       7.0  T
   5    -71.2417857 -0.105807E-06  0.813E-04    3.00      18.8  T
   6    -71.2417857 -0.906580E-08  0.305E-04    3.00      49.9  T
     SCC iter.                  ...        0 min,  0.014 sec
     gradient                   ...        0 min,  0.029 sec
 * total energy  :   -70.3147186 Eh     change       -0.5017957E-04 Eh
   gradient norm :     0.0013811 Eh/α   predicted    -0.1897700E-04 ( -62.18%)
   displ. norm   :     0.3809694 α      lambda       -0.4607460E-04
   maximum displ.:     0.2830890 α      in ANC's #1, #3, #5, ...

........................................................................
.............................. CYCLE   34 ..............................
........................................................................

 iter      E             dE          RMSdq      gap      omega  full diag
   1    -71.2418953 -0.712419E+02  0.894E-02    3.00       0.0  T
   2    -71.2418967 -0.139726E-05  0.524E-02    3.00       1.0  T
   3    -71.2418964  0.295589E-06  0.505E-03    3.00       3.0  T
   4    -71.2418971 -0.645715E-06  0.250E-03    3.00       6.1  T
   5    -71.2418972 -0.135296E-06  0.912E-04    3.00      16.7  T
   6    -71.2418972 -0.140124E-07  0.354E-04    3.00      43.0  T
     SCC iter.                  ...        0 min,  0.014 sec
     gradient                   ...        0 min,  0.028 sec
 * total energy  :   -70.3147825 Eh     change       -0.6393739E-04 Eh
   gradient norm :     0.0014829 Eh/α   predicted    -0.2452386E-04 ( -61.64%)
   displ. norm   :     0.4892488 α      lambda       -0.6098507E-04
   maximum displ.:     0.3669125 α      in ANC's #1, #3, #2, ...

........................................................................
.............................. CYCLE   35 ..............................
........................................................................

 iter      E             dE          RMSdq      gap      omega  full diag
   1    -71.2414267 -0.712414E+02  0.113E-01    2.99       0.0  T
   2    -71.2414291 -0.240902E-05  0.659E-02    3.00       1.0  T
   3    -71.2414282  0.825773E-06  0.705E-03    3.00       2.2  T
   4    -71.2414297 -0.142880E-05  0.330E-03    3.00       4.6  T
   5    -71.2414299 -0.238966E-06  0.122E-03    3.00      12.5  T
   6    -71.2414299 -0.236656E-07  0.458E-04    3.00      33.3  T
   7    -71.2414299 -0.692808E-09  0.211E-04    3.00      72.1  T
     SCC iter.                  ...        0 min,  0.016 sec
     gradient                   ...        0 min,  0.028 sec
 * total energy  :   -70.3148659 Eh     change       -0.8336008E-04 Eh
   gradient norm :     0.0017828 Eh/α   predicted    -0.3374096E-04 ( -59.52%)
   displ. norm   :     0.6758297 α      lambda       -0.8941735E-04
   maximum displ.:     0.5131245 α      in ANC's #1, #3, #2, ...

........................................................................
.............................. CYCLE   36 ..............................
........................................................................

 iter      E             dE          RMSdq      gap      omega  full diag
   1    -71.2413631 -0.712414E+02  0.150E-01    2.99       0.0  T
   2    -71.2413674 -0.425689E-05  0.879E-02    3.00       1.0  T
   3    -71.2413659  0.150338E-05  0.931E-03    3.00       1.6  T
   4    -71.2413685 -0.256167E-05  0.436E-03    3.00       3.5  T
   5    -71.2413689 -0.415478E-06  0.160E-03    3.00       9.5  T
   6    -71.2413689 -0.462576E-07  0.616E-04    3.00      24.7  T
   7    -71.2413689 -0.137055E-08  0.286E-04    3.00      53.4  T
     SCC iter.                  ...        0 min,  0.016 sec
     gradient                   ...        0 min,  0.029 sec
 * total energy  :   -70.3149812 Eh     change       -0.1152879E-03 Eh
   gradient norm :     0.0023045 Eh/α   predicted    -0.5378654E-04 ( -53.35%)
   displ. norm   :     0.5414107 α      lambda       -0.1109733E-03
   maximum displ.:     0.4190353 α      in ANC's #1, #3, #2, ...

........................................................................
.............................. CYCLE   37 ..............................
........................................................................

 iter      E             dE          RMSdq      gap      omega  full diag
   1    -71.2411941 -0.712412E+02  0.116E-01    2.99       0.0  T
   2    -71.2411968 -0.269571E-05  0.678E-02    2.99       1.0  T
   3    -71.2411958  0.101456E-05  0.741E-03    2.99       2.1  T
   4    -71.2411974 -0.164421E-05  0.347E-03    2.99       4.4  T
   5    -71.2411977 -0.286733E-06  0.126E-03    2.99      12.1  T
   6    -71.2411977 -0.267087E-07  0.478E-04    2.99      31.9  T
   7    -71.2411977 -0.914184E-09  0.220E-04    2.99      69.3  T
     SCC iter.                  ...        0 min,  0.016 sec
     gradient                   ...        0 min,  0.029 sec
 * total energy  :   -70.3150770 Eh     change       -0.9577335E-04 Eh
   gradient norm :     0.0022198 Eh/α   predicted    -0.7175671E-04 ( -25.08%)
   displ. norm   :     0.6698388 α      lambda       -0.1338932E-03
   maximum displ.:     0.5227230 α      in ANC's #1, #3, #2, ...

........................................................................
.............................. CYCLE   38 ..............................
........................................................................

 iter      E             dE          RMSdq      gap      omega  full diag
   1    -71.2411372 -0.712411E+02  0.141E-01    2.99       0.0  T
   2    -71.2411412 -0.394622E-05  0.821E-02    2.99       1.0  T
   3    -71.2411399  0.131922E-05  0.901E-03    2.99       1.7  T
   4    -71.2411421 -0.224871E-05  0.431E-03    2.99       3.5  T
   5    -71.2411425 -0.419296E-06  0.157E-03    2.99       9.7  T
   6    -71.2411426 -0.428876E-07  0.619E-04    2.99      24.6  T
   7    -71.2411426 -0.191443E-08  0.292E-04    2.99      52.2  T
     SCC iter.                  ...        0 min,  0.016 sec
     gradient                   ...        0 min,  0.028 sec
 * total energy  :   -70.3151893 Eh     change       -0.1123371E-03 Eh
   gradient norm :     0.0024178 Eh/α   predicted    -0.9698450E-04 ( -13.67%)
   displ. norm   :     0.4390792 α      lambda       -0.1223589E-03
   maximum displ.:     0.3457579 α      in ANC's #1, #3, #2, ...

........................................................................
.............................. CYCLE   39 ..............................
........................................................................

 iter      E             dE          RMSdq      gap      omega  full diag
   1    -71.2455069 -0.712455E+02  0.843E-02    2.99       0.0  T
   2    -71.2455088 -0.184116E-05  0.491E-02    3.00       1.0  T
   3    -71.2455068  0.190837E-05  0.887E-03    3.00       1.7  T
   4    -71.2455094 -0.253059E-05  0.287E-03    3.00       5.3  T
   5    -71.2455095 -0.111861E-06  0.971E-04    3.00      15.7  T
   6    -71.2455095 -0.147458E-07  0.475E-04    3.00      32.1  T
     SCC iter.                  ...        0 min,  0.014 sec
     gradient                   ...        0 min,  0.029 sec
 * total energy  :   -70.3152433 Eh     change       -0.5401929E-04 Eh
   gradient norm :     0.0047279 Eh/α   predicted    -0.7297921E-04 (  35.10%)
   displ. norm   :     0.6306443 α      lambda       -0.1580163E-03
   maximum displ.:     0.4984089 α      in ANC's #1, #3, #2, ...

........................................................................
.............................. CYCLE   40 ..............................
........................................................................

 iter      E             dE          RMSdq      gap      omega  full diag
   1    -71.2401406 -0.712401E+02  0.138E-01    2.98       0.0  T
   2    -71.2401467 -0.611953E-05  0.806E-02    2.99       1.0  T
   3    -71.2401404  0.631864E-05  0.151E-02    2.99       1.0  T
   4    -71.2401485 -0.804696E-05  0.474E-03    2.99       3.2  T
   5    -71.2401490 -0.504124E-06  0.211E-03    2.99       7.2  T
   6    -71.2401490 -0.371506E-07  0.736E-04    2.99      20.7  T
   7    -71.2401490 -0.524660E-08  0.357E-04    2.99      42.7  T
     SCC iter.                  ...        0 min,  0.016 sec
     gradient                   ...        0 min,  0.029 sec
 * total energy  :   -70.3153511 Eh     change       -0.1077630E-03 Eh
   gradient norm :     0.0043010 Eh/α   predicted    -0.1104297E-03 (   2.47%)
   displ. norm   :     0.4606991 α      lambda       -0.8706109E-04
   maximum displ.:     0.3699659 α      in ANC's #1, #3, #2, ...

........................................................................
.............................. CYCLE   41 ..............................
........................................................................

 iter      E             dE          RMSdq      gap      omega  full diag
   1    -71.2391028 -0.712391E+02  0.961E-02    2.99       0.0  T
   2    -71.2391050 -0.223052E-05  0.562E-02    2.99       1.0  T
   3    -71.2391039  0.109819E-05  0.754E-03    2.99       2.0  T
   4    -71.2391056 -0.164977E-05  0.325E-03    2.99       4.7  T
   5    -71.2391058 -0.235695E-06  0.129E-03    2.99      11.8  T
   6    -71.2391058 -0.204843E-07  0.490E-04    2.99      31.1  T
   7    -71.2391058 -0.164106E-08  0.236E-04    2.99      64.6  T
     SCC iter.                  ...        0 min,  0.016 sec
     gradient                   ...        0 min,  0.029 sec
 * total energy  :   -70.3153919 Eh     change       -0.4085206E-04 Eh
   gradient norm :     0.0057025 Eh/α   predicted    -0.5277504E-04 (  29.19%)
   displ. norm   :     0.2014523 α      lambda       -0.7665340E-04
   maximum displ.:     0.1647100 α      in ANC's #1, #3, #2, ...

........................................................................
.............................. CYCLE   42 ..............................
........................................................................

 iter      E             dE          RMSdq      gap      omega  full diag
   1    -71.2407293 -0.712407E+02  0.406E-02    2.99       0.0  T
   2    -71.2407298 -0.447804E-06  0.235E-02    2.99       1.0  T
   3    -71.2407297  0.105404E-06  0.287E-03    2.99       5.3  T
   4    -71.2407298 -0.185281E-06  0.153E-03    2.99      10.0  T
   5    -71.2407299 -0.611930E-07  0.529E-04    2.99      28.8  T
   6    -71.2407299 -0.236776E-08  0.205E-04    2.99      74.2  T
     SCC iter.                  ...        0 min,  0.014 sec
     gradient                   ...        0 min,  0.038 sec
 * total energy  :   -70.3154544 Eh     change       -0.6245818E-04 Eh
   gradient norm :     0.0032009 Eh/α   predicted    -0.3988349E-04 ( -36.14%)
   displ. norm   :     0.4246435 α      lambda       -0.1192295E-03
   maximum displ.:     0.3506208 α      in ANC's #1, #3, #2, ...
 * RMSD in coord.:     0.9697880 α      energy gain  -0.1185050E-02 Eh

generating ANC from exact Hessian ...
Using Lindh-Hessian (1995)
 Shifting diagonal of input Hessian by    9.8046423681943506E-003
 Lowest  eigenvalues of input Hessian
    0.000000    0.000000    0.000000    0.000000    0.000000    0.000000
    0.010000    0.010271    0.010467    0.010974    0.011833    0.012752
    0.012898    0.013354    0.014109    0.014780    0.015898    0.016053
 Highest eigenvalues
    2.058402    2.070192    2.141299    2.153555    2.251458    2.447321


........................................................................
.............................. CYCLE   43 ..............................
........................................................................

 iter      E             dE          RMSdq      gap      omega  full diag
   1    -71.2436556 -0.712437E+02  0.882E-02    2.99       0.0  T
   2    -71.2436578 -0.217053E-05  0.508E-02    3.00       1.0  T
   3    -71.2436575  0.342107E-06  0.617E-03    2.99       2.5  T
   4    -71.2436582 -0.736439E-06  0.311E-03    3.00       4.9  T
   5    -71.2436585 -0.250022E-06  0.122E-03    3.00      12.5  T
   6    -71.2436585 -0.166678E-07  0.435E-04    3.00      35.0  T
   7    -71.2436585 -0.906752E-09  0.217E-04    3.00      70.1  T
     SCC iter.                  ...        0 min,  0.016 sec
     gradient                   ...        0 min,  0.029 sec
 * total energy  :   -70.3155368 Eh     change       -0.8244288E-04 Eh
   gradient norm :     0.0025176 Eh/α   predicted     0.0000000E+00 (-100.00%)
   displ. norm   :     0.0368112 α      lambda       -0.2605957E-04
   maximum displ.:     0.0202128 α      in ANC's #6, #8, #1, ...

........................................................................
.............................. CYCLE   44 ..............................
........................................................................

 iter      E             dE          RMSdq      gap      omega  full diag
   1    -71.2434795 -0.712435E+02  0.117E-02    3.00       0.0  T
   2    -71.2434795 -0.613573E-07  0.680E-03    3.00       2.2  T
   3    -71.2434795  0.432746E-07  0.124E-03    3.00      12.3  T
   4    -71.2434795 -0.590675E-07  0.433E-04    3.00      35.2  T
   5    -71.2434795 -0.287577E-08  0.170E-04    3.00      89.9  T
     SCC iter.                  ...        0 min,  0.015 sec
     gradient                   ...        0 min,  0.028 sec
 * total energy  :   -70.3155585 Eh     change       -0.2168042E-04 Eh
   gradient norm :     0.0010471 Eh/α   predicted    -0.1318390E-04 ( -39.19%)
   displ. norm   :     0.1626157 α      lambda       -0.4834661E-04
   maximum displ.:     0.0902783 α      in ANC's #6, #1, #12, ...

........................................................................
.............................. CYCLE   45 ..............................
........................................................................

 iter      E             dE          RMSdq      gap      omega  full diag
   1    -71.2428450 -0.712428E+02  0.464E-02    3.00       0.0  T
   2    -71.2428458 -0.787232E-06  0.269E-02    3.00       1.0  T
   3    -71.2428452  0.595069E-06  0.470E-03    3.00       3.2  T
   4    -71.2428461 -0.829130E-06  0.156E-03    3.00       9.8  T
   5    -71.2428461 -0.326996E-07  0.649E-04    3.00      23.5  T
   6    -71.2428461 -0.363616E-08  0.201E-04    3.00      75.9  T
     SCC iter.                  ...        0 min,  0.014 sec
     gradient                   ...        0 min,  0.029 sec
 * total energy  :   -70.3155937 Eh     change       -0.3523263E-04 Eh
   gradient norm :     0.0030258 Eh/α   predicted    -0.2445965E-04 ( -30.58%)
   displ. norm   :     0.0337515 α      lambda       -0.1411589E-04
   maximum displ.:     0.0218978 α      in ANC's #1, #6, #12, ...

........................................................................
.............................. CYCLE   46 ..............................
........................................................................

 iter      E             dE          RMSdq      gap      omega  full diag
   1    -71.2430964 -0.712431E+02  0.837E-03    3.00       0.0  T
   2    -71.2430964 -0.249908E-07  0.488E-03    3.00       3.1  T
   3    -71.2430963  0.361101E-07  0.111E-03    3.00      13.7  T
   4    -71.2430964 -0.465144E-07  0.249E-04    3.00      61.2  T
   5    -71.2430964 -0.608821E-09  0.121E-04    3.00     125.5  T
     SCC iter.                  ...        0 min,  0.012 sec
     gradient                   ...        0 min,  0.029 sec
 * total energy  :   -70.3156061 Eh     change       -0.1231888E-04 Eh
   gradient norm :     0.0020899 Eh/α   predicted    -0.7066463E-05 ( -42.64%)
   displ. norm   :     0.0881868 α      lambda       -0.2859691E-04
   maximum displ.:     0.0596479 α      in ANC's #1, #12, #6, ...

........................................................................
.............................. CYCLE   47 ..............................
........................................................................

 iter      E             dE          RMSdq      gap      omega  full diag
   1    -71.2435310 -0.712435E+02  0.204E-02    3.00       0.0  T
   2    -71.2435312 -0.144971E-06  0.119E-02    3.00       1.3  T
   3    -71.2435310  0.162089E-06  0.235E-03    3.00       6.5  T
   4    -71.2435312 -0.208914E-06  0.647E-04    3.00      23.6  T
   5    -71.2435312 -0.964664E-08  0.282E-04    3.00      54.2  T
     SCC iter.                  ...        0 min,  0.012 sec
     gradient                   ...        0 min,  0.037 sec
 * total energy  :   -70.3156252 Eh     change       -0.1913332E-04 Eh
   gradient norm :     0.0006233 Eh/α   predicted    -0.1441108E-04 ( -24.68%)
   displ. norm   :     0.0925486 α      lambda       -0.9293509E-05
   maximum displ.:     0.0673298 α      in ANC's #1, #12, #6, ...

........................................................................
.............................. CYCLE   48 ..............................
........................................................................

 iter      E             dE          RMSdq      gap      omega  full diag
   1    -71.2436078 -0.712436E+02  0.193E-02    3.00       0.0  T
   2    -71.2436079 -0.120198E-06  0.113E-02    3.00       1.4  T
   3    -71.2436078  0.112660E-06  0.195E-03    3.00       7.8  T
   4    -71.2436079 -0.141505E-06  0.665E-04    3.00      22.9  T
   5    -71.2436080 -0.136973E-07  0.259E-04    3.00      58.9  T
     SCC iter.                  ...        0 min,  0.012 sec
     gradient                   ...        0 min,  0.029 sec
 * total energy  :   -70.3156351 Eh     change       -0.9954054E-05 Eh
   gradient norm :     0.0012868 Eh/α   predicted    -0.4664961E-05 ( -53.14%)
   displ. norm   :     0.0526323 α      lambda       -0.6383804E-05
   maximum displ.:     0.0415347 α      in ANC's #1, #12, #10, ...

........................................................................
.............................. CYCLE   49 ..............................
........................................................................

 iter      E             dE          RMSdq      gap      omega  full diag
   1    -71.2436175 -0.712436E+02  0.903E-03    3.00       0.0  T
   2    -71.2436175 -0.288474E-07  0.530E-03    3.00       2.9  T
   3    -71.2436175  0.500316E-07  0.127E-03    3.00      12.0  T
   4    -71.2436175 -0.607468E-07  0.321E-04    3.00      47.5  T
   5    -71.2436175 -0.213016E-08  0.140E-04    3.00     109.1  T
     SCC iter.                  ...        0 min,  0.012 sec
     gradient                   ...        0 min,  0.032 sec
 * total energy  :   -70.3156435 Eh     change       -0.8314742E-05 Eh
   gradient norm :     0.0008132 Eh/α   predicted    -0.3198032E-05 ( -61.54%)
   displ. norm   :     0.0641851 α      lambda       -0.7637002E-05
   maximum displ.:     0.0493249 α      in ANC's #1, #12, #8, ...

........................................................................
.............................. CYCLE   50 ..............................
........................................................................

 iter      E             dE          RMSdq      gap      omega  full diag
   1    -71.2435764 -0.712436E+02  0.987E-03    3.00       0.0  T
   2    -71.2435765 -0.315550E-07  0.577E-03    3.00       2.6  T
   3    -71.2435764  0.714873E-07  0.150E-03    3.00      10.2  T
   4    -71.2435765 -0.880602E-07  0.317E-04    3.00      48.1  T
   5    -71.2435765 -0.210889E-09  0.142E-04    3.00     107.7  T
     SCC iter.                  ...        0 min,  0.012 sec
     gradient                   ...        0 min,  0.029 sec
 * total energy  :   -70.3156530 Eh     change       -0.9563882E-05 Eh
   gradient norm :     0.0004609 Eh/α   predicted    -0.3828471E-05 ( -59.97%)
   displ. norm   :     0.0679744 α      lambda       -0.6550398E-05
   maximum displ.:     0.0525093 α      in ANC's #1, #12, #3, ...

........................................................................
.............................. CYCLE   51 ..............................
........................................................................

 iter      E             dE          RMSdq      gap      omega  full diag
   1    -71.2435263 -0.712435E+02  0.104E-02    3.00       0.0  T
   2    -71.2435263 -0.279649E-07  0.609E-03    3.00       2.5  T
   3    -71.2435263  0.314618E-07  0.107E-03    3.00      14.3  T
   4    -71.2435263 -0.418207E-07  0.367E-04    3.00      41.5  T
   5    -71.2435263 -0.136298E-08  0.132E-04    3.00     115.4  T
     SCC iter.                  ...        0 min,  0.012 sec
     gradient                   ...        0 min,  0.038 sec
 * total energy  :   -70.3156616 Eh     change       -0.8578717E-05 Eh
   gradient norm :     0.0006737 Eh/α   predicted    -0.3283261E-05 ( -61.73%)
   displ. norm   :     0.0667896 α      lambda       -0.6285642E-05
   maximum displ.:     0.0515900 α      in ANC's #1, #3, #6, ...

........................................................................
.............................. CYCLE   52 ..............................
........................................................................

 iter      E             dE          RMSdq      gap      omega  full diag
   1    -71.2435299 -0.712435E+02  0.108E-02    3.00       0.0  T
   2    -71.2435299 -0.288406E-07  0.633E-03    3.00       2.4  T
   3    -71.2435299  0.117977E-07  0.839E-04    3.00      18.2  T
   4    -71.2435299 -0.197637E-07  0.408E-04    3.00      37.4  T
     SCC iter.                  ...        0 min,  0.009 sec
     gradient                   ...        0 min,  0.029 sec
 * total energy  :   -70.3156703 Eh     change       -0.8650746E-05 Eh
   gradient norm :     0.0007583 Eh/α   predicted    -0.3150897E-05 ( -63.58%)
   displ. norm   :     0.0736189 α      lambda       -0.7165061E-05
   maximum displ.:     0.0571296 α      in ANC's #1, #3, #2, ...

........................................................................
.............................. CYCLE   53 ..............................
........................................................................

 iter      E             dE          RMSdq      gap      omega  full diag
   1    -71.2435403 -0.712435E+02  0.129E-02    3.00       0.0  T
   2    -71.2435404 -0.452483E-07  0.751E-03    3.00       2.0  T
   3    -71.2435404  0.270197E-07  0.119E-03    3.00      12.8  T
   4    -71.2435404 -0.374081E-07  0.558E-04    3.00      27.3  T
   5    -71.2435404 -0.687554E-08  0.198E-04    3.00      77.2  T
     SCC iter.                  ...        0 min,  0.012 sec
     gradient                   ...        0 min,  0.038 sec
 * total energy  :   -70.3156801 Eh     change       -0.9876370E-05 Eh
   gradient norm :     0.0006346 Eh/α   predicted    -0.3595279E-05 ( -63.60%)
   displ. norm   :     0.0815242 α      lambda       -0.7623060E-05
   maximum displ.:     0.0640632 α      in ANC's #1, #3, #2, ...

........................................................................
.............................. CYCLE   54 ..............................
........................................................................

 iter      E             dE          RMSdq      gap      omega  full diag
   1    -71.2435544 -0.712436E+02  0.152E-02    3.00       0.0  T
   2    -71.2435544 -0.742141E-07  0.882E-03    3.00       1.7  T
   3    -71.2435544  0.419098E-07  0.150E-03    3.00      10.2  T
   4    -71.2435544 -0.571337E-07  0.662E-04    3.00      23.1  T
   5    -71.2435545 -0.106744E-07  0.254E-04    3.00      60.1  T
     SCC iter.                  ...        0 min,  0.012 sec
     gradient                   ...        0 min,  0.029 sec
 * total energy  :   -70.3156904 Eh     change       -0.1023886E-04 Eh
   gradient norm :     0.0004209 Eh/α   predicted    -0.3823456E-05 ( -62.66%)
   displ. norm   :     0.0775105 α      lambda       -0.6549409E-05
   maximum displ.:     0.0619504 α      in ANC's #1, #3, #2, ...

........................................................................
.............................. CYCLE   55 ..............................
........................................................................

 iter      E             dE          RMSdq      gap      omega  full diag
   1    -71.2435960 -0.712436E+02  0.152E-02    3.00       0.0  T
   2    -71.2435961 -0.879809E-07  0.873E-03    3.00       1.7  T
   3    -71.2435960  0.521748E-07  0.170E-03    3.00       9.0  T
   4    -71.2435961 -0.643744E-07  0.721E-04    3.00      21.1  T
   5    -71.2435961 -0.149070E-07  0.267E-04    3.00      57.1  T
     SCC iter.                  ...        0 min,  0.021 sec
     gradient                   ...        0 min,  0.029 sec
 * total energy  :   -70.3156992 Eh     change       -0.8838487E-05 Eh
   gradient norm :     0.0003085 Eh/α   predicted    -0.3285006E-05 ( -62.83%)
   displ. norm   :     0.0641459 α      lambda       -0.5093857E-05
   maximum displ.:     0.0519890 α      in ANC's #1, #3, #2, ...

........................................................................
.............................. CYCLE   56 ..............................
........................................................................

 iter      E             dE          RMSdq      gap      omega  full diag
   1    -71.2436313 -0.712436E+02  0.129E-02    3.00       0.0  T
   2    -71.2436314 -0.574171E-07  0.745E-03    3.00       2.0  T
   3    -71.2436313  0.387999E-07  0.133E-03    3.00      11.4  T
   4    -71.2436314 -0.472741E-07  0.562E-04    3.00      27.1  T
   5    -71.2436314 -0.987276E-08  0.205E-04    3.00      74.3  T
     SCC iter.                  ...        0 min,  0.012 sec
     gradient                   ...        0 min,  0.029 sec
 * total energy  :   -70.3157064 Eh     change       -0.7206442E-05 Eh
   gradient norm :     0.0003811 Eh/α   predicted    -0.2553404E-05 ( -64.57%)
   displ. norm   :     0.0560467 α      lambda       -0.4609866E-05
   maximum displ.:     0.0456324 α      in ANC's #1, #3, #2, ...

........................................................................
.............................. CYCLE   57 ..............................
........................................................................

 iter      E             dE          RMSdq      gap      omega  full diag
   1    -71.2436807 -0.712437E+02  0.116E-02    3.00       0.0  T
   2    -71.2436808 -0.422416E-07  0.669E-03    3.00       2.3  T
   3    -71.2436807  0.404035E-07  0.120E-03    3.00      12.7  T
   4    -71.2436808 -0.477030E-07  0.484E-04    3.00      31.5  T
   5    -71.2436808 -0.752979E-08  0.169E-04    3.00      90.0  T
     SCC iter.                  ...        0 min,  0.016 sec
     gradient                   ...        0 min,  0.029 sec
 * total energy  :   -70.3157132 Eh     change       -0.6793874E-05 Eh
   gradient norm :     0.0004694 Eh/α   predicted    -0.2313109E-05 ( -65.95%)
   displ. norm   :     0.0571943 α      lambda       -0.5091294E-05
   maximum displ.:     0.0460084 α      in ANC's #1, #3, #4, ...

........................................................................
.............................. CYCLE   58 ..............................
........................................................................

 iter      E             dE          RMSdq      gap      omega  full diag
   1    -71.2436893 -0.712437E+02  0.122E-02    3.00       0.0  T
   2    -71.2436893 -0.409991E-07  0.706E-03    3.00       2.2  T
   3    -71.2436893  0.442584E-07  0.118E-03    3.00      12.9  T
   4    -71.2436893 -0.542724E-07  0.438E-04    3.00      34.8  T
   5    -71.2436893 -0.557895E-08  0.159E-04    3.00      95.9  T
     SCC iter.                  ...        0 min,  0.012 sec
     gradient                   ...        0 min,  0.029 sec
 * total energy  :   -70.3157207 Eh     change       -0.7499163E-05 Eh
   gradient norm :     0.0004603 Eh/α   predicted    -0.2553370E-05 ( -65.95%)
   displ. norm   :     0.0686605 α      lambda       -0.6328389E-05
   maximum displ.:     0.0541765 α      in ANC's #1, #3, #4, ...

........................................................................
.............................. CYCLE   59 ..............................
........................................................................

 iter      E             dE          RMSdq      gap      omega  full diag
   1    -71.2437097 -0.712437E+02  0.148E-02    3.00       0.0  T
   2    -71.2437097 -0.534835E-07  0.863E-03    3.00       1.8  T
   3    -71.2437096  0.683983E-07  0.140E-03    3.00      10.9  T
   4    -71.2437097 -0.858870E-07  0.460E-04    3.00      33.1  T
   5    -71.2437097 -0.486793E-08  0.177E-04    3.00      86.1  T
     SCC iter.                  ...        0 min,  0.012 sec
     gradient                   ...        0 min,  0.029 sec
 * total energy  :   -70.3157298 Eh     change       -0.9094055E-05 Eh
   gradient norm :     0.0003929 Eh/α   predicted    -0.3173080E-05 ( -65.11%)
   displ. norm   :     0.0877083 α      lambda       -0.7747845E-05
   maximum displ.:     0.0687092 α      in ANC's #1, #3, #4, ...

........................................................................
.............................. CYCLE   60 ..............................
........................................................................

[...]
   
   for ddCOSMO and CPCM-X implicit solvation:
   * M. Stahn, S. Ehlert, S. Grimme, J. Phys. Chem. A,
     2023, XX, XXXX-XXXX. DOI: 10.1021/acs.jpca.3c04382
   
   for DFT-D4:
   * E. Caldeweyher, C. Bannwarth and S. Grimme, J. Chem. Phys., 2017,
     147, 034112. DOI: 10.1063/1.4993215
   * E. Caldeweyher, S. Ehlert, A. Hansen, H. Neugebauer, S. Spicher,
     C. Bannwarth and S. Grimme, J. Chem. Phys., 2019, 150, 154122.
     DOI: 10.1063/1.5090222
   * E. Caldeweyher, J.-M. Mewes, S. Ehlert and S. Grimme, Phys. Chem. Chem. Phys.
     2020, 22, 8499-8512. DOI: 10.1039/D0CP00502A
   
   for sTDA-xTB:
   * S. Grimme and C. Bannwarth, J. Chem. Phys., 2016, 145, 054103.
     DOI: 10.1063/1.4959605
   
   in the mass-spec context:
   * V. Asgeirsson, C. Bauer and S. Grimme, Chem. Sci., 2017, 8, 4879.
     DOI: 10.1039/c7sc00601b
   * J. Koopman and S. Grimme, ACS Omega 2019, 4, 12, 15120-15133.
     DOI: 10.1021/acsomega.9b02011
   
   for metadynamics refer to:
   * S. Grimme, J. Chem. Theory Comput., 2019, 155, 2847-2862
     DOI: 10.1021/acs.jctc.9b00143
   
   for SPH calculations refer to:
   * S. Spicher and S. Grimme, J. Chem. Theory Comput., 2021, 17, 1701-1714
     DOI: 10.1021/acs.jctc.0c01306
   
   for ONIOM refer to:
   * C. Plett, A. Katbashev, S. Ehlert, S. Grimme, M. Bursch,
     Phys. Chem. Chem. Phys., 2023, 25, 17860-17868. DOI: 10.1039/D3CP02178E
   
   for DIPRO refer to:
   * J. Kohn, N. Gildemeister, S. Grimme, D. Fazzi, A. Hansen,
     J. Chem. Phys., 2023, just accepted.
   
   for PTB refer to:
   * S. Grimme, M. Mueller, A. Hansen, J. Chem. Phys., 2023, 158, 124111.
     DOI: 10.1063/5.0137838
   
   with help from (in alphabetical order)
   P. Atkinson, C. Bannwarth, F. Bohle, G. Brandenburg, E. Caldeweyher
   M. Checinski, S. Dohm, S. Ehlert, S. Ehrlich, I. Gerasimov, C. Hölzer
   A. Katbashev, J. Kohn, J. Koopman, C. Lavigne, S. Lehtola, F. März, M. Müller,
   F. Musil, H. Neugebauer, J. Pisarek, C. Plett, P. Pracht, F. Pultar,
   J. Seibert, P. Shushkov, S. Spicher, M. Stahn, M. Steiner, T. Strunk,
   J. Stückrath, T. Rose, and J. Unsleber
   
 * started run on 2025/05/15 at 16:28:19.429     
   ID    Z sym.   atoms
    1    6 C      1-3, 5-8, 10, 11, 13, 15, 16, 18-20, 22, 23
    2    8 O      4, 21, 24
    3    7 N      9, 14, 17
    4   16 S      12
    5    1 H      25-43

           -------------------------------------------------
          |                Calculation Setup                |
           -------------------------------------------------

          program call               : xtb /rds/general/user/hgt20/home/callum/QDESCP/Omeprazole_rdkit_conf_3/Omeprazole_rdkit_conf_3.xyz --acc 1 --gfn 2 --chrg 0 --uhf 2 --etemp 300 --input /rds/general/user/hgt20/home/callum/QDESCP/Omeprazole_rdkit_conf_3/Omeprazole_rdkit_conf_3_xtb.inp -P 1
          hostname                   : login-c
          coordinate file            : /rds/general/user/hgt20/home/callum/QDESCP/Omeprazole_rdkit_conf_3/Omeprazole_rdkit_conf_3.xyz
          omp threads                :                     1


           -------------------------------------------------
          |                 G F N 2 - x T B                 |
           -------------------------------------------------

        Reference                      10.1021/acs.jctc.8b01176
      * Hamiltonian:
        H0-scaling (s, p, d)           1.850000    2.230000    2.230000
        zeta-weighting                 0.500000
      * Dispersion:
        s8                             2.700000
        a1                             0.520000
        a2                             5.000000
        s9                             5.000000
      * Repulsion:
        kExp                           1.500000    1.000000
        rExp                           1.000000
      * Coulomb:
        alpha                          2.000000
        third order                    shell-resolved
        anisotropic                    true
        a3                             3.000000
        a5                             4.000000
        cn-shift                       1.200000
        cn-exp                         4.000000
        max-rad                        5.000000


          ...................................................
          :                      SETUP                      :
          :.................................................:
          :  # basis functions                 121          :
          :  # atomic orbitals                 120          :
          :  # shells                           68          :
          :  # electrons                       126          :
          :  max. iterations                   250          :
          :  Hamiltonian                  GFN2-xTB          :
          :  restarted?                      false          :
          :  GBSA solvation                  false          :
          :  PC potential                    false          :
          :  electronic temp.          300.0000000     K    :
          :  accuracy                    1.0000000          :
          :  -> integral cutoff          0.2500000E+02      :
          :  -> integral neglect         0.1000000E-07      :
          :  -> SCF convergence          0.1000000E-05 Eh   :
          :  -> wf. convergence          0.1000000E-03 e    :
          :  Broyden damping             0.4000000          :
          :  net charge                          0          :
          :  unpaired electrons                  2          :
          ...................................................

 iter      E             dE          RMSdq      gap      omega  full diag
   1    -70.9594591 -0.709595E+02  0.420E+00    0.37       0.0  T
   2    -70.8830044  0.764547E-01  0.295E+00    0.42       1.0  T
   3    -70.7570821  0.125922E+00  0.240E+00    0.96       1.0  T
   4    -70.9997974 -0.242715E+00  0.135E+00    0.28       1.0  T
   5    -70.9921466  0.765089E-02  0.115E+00    0.61       1.0  T
   6    -71.0818678 -0.897213E-01  0.709E-01    0.24       1.0  T
   7    -71.0199759  0.618919E-01  0.964E-01    0.48       1.0  T
   8    -71.1075681 -0.875922E-01  0.574E-01    0.23       1.0  T
   9    -71.1194880 -0.119199E-01  0.234E-01    0.29       1.0  T
  10    -71.1075584  0.119296E-01  0.348E-01    0.26       1.0  T
  11    -71.1135705 -0.601217E-02  0.261E-01    0.24       1.0  T
  12    -71.1190927 -0.552220E-02  0.142E-01    0.26       1.0  T
  13    -71.1188987  0.193997E-03  0.149E-01    0.24       1.0  T
  14    -71.1215496 -0.265090E-02  0.280E-02    0.25       1.0  T
  15    -71.1215671 -0.174317E-04  0.189E-02    0.25       1.0  T
  16    -71.1215895 -0.224382E-04  0.665E-03    0.25       2.3  T
  17    -71.1215916 -0.211913E-05  0.242E-03    0.25       6.3  T
  18    -71.1215868  0.482318E-05  0.633E-03    0.25       2.4  T
  19    -71.1215867  0.101826E-06  0.651E-03    0.25       2.3  T
  20    -71.1215914 -0.468328E-05  0.209E-03    0.25       7.3  T
  21    -71.1215919 -0.519118E-06  0.388E-04    0.25      39.3  T
  22    -71.1215919 -0.154761E-07  0.100E-04    0.25     152.2  T

   *** convergence criteria satisfied after 22 iterations ***

         #    Occupation            Energy/Eh            Energy/eV
      -------------------------------------------------------------
         1        2.0000           -0.7543814             -20.5278
       ...           ...                  ...                  ...
        58        2.0000           -0.4033408             -10.9755
        59        2.0000           -0.3936060             -10.7106
        60        1.9975           -0.3869312             -10.5289
        61        1.9647           -0.3843792             -10.4595
        62        1.7989           -0.3825473             -10.4096
        63        1.2389           -0.3801362             -10.3440
        64        0.9920           -0.2526535              -6.8751 (HOMO)
        65        0.0080           -0.2434844              -6.6255 (LUMO)
        66        0.0000           -0.2344765              -6.3804
        67                         -0.2105731              -5.7300
        68                         -0.2008524              -5.4655
        69                         -0.1780488              -4.8450
       ...                                ...                  ...
       120                          0.8972662              24.4159
      -------------------------------------------------------------
                  HL-Gap            0.0091691 Eh            0.2495 eV
             Fermi-level           -0.3146529 Eh           -8.5621 eV

 transition dipole moment (au) for excitation:          63          64
     X       Y       Z   
  -1.2488   0.5471  -0.3985  total (au/Debye):    1.420   3.610
 dE (eV)             :    3.469
 oscillator strength :  0.24250E+00

 SCC (total)                   0 d,  0 h,  0 min,  0.152 sec
 SCC setup                      ...        0 min,  0.000 sec (  0.245%)
 Dispersion                     ...        0 min,  0.000 sec (  0.314%)
 classical contributions        ...        0 min,  0.000 sec (  0.101%)
 integral evaluation            ...        0 min,  0.009 sec (  6.207%)
 iterations                     ...        0 min,  0.082 sec ( 54.435%)
 molecular gradient             ...        0 min,  0.029 sec ( 18.825%)
 printout                       ...        0 min,  0.030 sec ( 19.868%)

         :::::::::::::::::::::::::::::::::::::::::::::::::::::
         ::                     SUMMARY                     ::
         :::::::::::::::::::::::::::::::::::::::::::::::::::::
         :: total energy             -70.193611141200 Eh    ::
         :: gradient norm              0.094737625284 Eh/a0 ::
         :: HOMO-LUMO gap              0.249503430793 eV    ::
         ::.................................................::
         :: SCC energy               -71.120226586822 Eh    ::
         :: -> isotropic ES            0.086803634433 Eh    ::
         :: -> anisotropic ES          0.006988499523 Eh    ::
         :: -> anisotropic XC          0.024286822622 Eh    ::
         :: -> dispersion             -0.052910932697 Eh    ::
         :: repulsion energy           0.926615445622 Eh    ::
         :: add. restraining           0.000000000000 Eh    ::
         :: total charge              -0.000000000000 e     ::
         :::::::::::::::::::::::::::::::::::::::::::::::::::::

           -------------------------------------------------
          |                Property Printout                |
           -------------------------------------------------

    * Orbital Energies and Occupations

         #    Occupation            Energy/Eh            Energy/eV
      -------------------------------------------------------------
         1        2.0000           -0.7543814             -20.5278
       ...           ...                  ...                  ...
        52        2.0000           -0.4488748             -12.2145
        53        2.0000           -0.4458687             -12.1327
        54        2.0000           -0.4395924             -11.9619
        55        2.0000           -0.4217082             -11.4753
        56        2.0000           -0.4145636             -11.2809
        57        2.0000           -0.4055214             -11.0348
        58        2.0000           -0.4033408             -10.9755
        59        2.0000           -0.3936060             -10.7106
        60        1.9975           -0.3869312             -10.5289
        61        1.9647           -0.3843792             -10.4595
        62        1.7989           -0.3825473             -10.4096
        63        1.2389           -0.3801362             -10.3440
        64        0.9920           -0.2526535              -6.8751 (HOMO)
        65        0.0080           -0.2434844              -6.6255 (LUMO)
        66        0.0000           -0.2344765              -6.3804
        67                         -0.2105731              -5.7300
        68                         -0.2008524              -5.4655
        69                         -0.1780488              -4.8450
        70                         -0.1630192              -4.4360
        71                         -0.1164669              -3.1692
        72                         -0.0868225              -2.3626
        73                         -0.0385195              -1.0482
        74                          0.0114442               0.3114
        75                          0.0210432               0.5726
       ...                                ...                  ...
       120                          0.8972662              24.4159
      -------------------------------------------------------------
                  HL-Gap            0.0091691 Eh            0.2495 eV
             Fermi-level           -0.3146529 Eh           -8.5621 eV

     #   Z          covCN         q      C6AA      α(0)
     1   6 C        3.757    -0.104    22.536     6.768
     2   6 C        2.958    -0.016    28.411     8.743
     3   6 C        2.898     0.126    25.231     8.236
     4   8 O        1.703    -0.308    19.135     5.906
     5   6 C        3.657     0.046    20.091     6.433
     6   6 C        2.959    -0.007    28.201     8.710
     7   6 C        3.756    -0.101    22.486     6.761
     8   6 C        2.911     0.041    27.072     8.532
     9   7 N        1.846    -0.200    26.177     7.583
    10   6 C        3.006     0.063    26.568     8.455
    11   6 C        3.803    -0.085    22.122     6.696
    12  16 S        2.880     0.408   125.540    18.858
    13   6 C        3.203     0.084    25.578     8.239
    14   7 N        1.892    -0.304    28.734     7.947
    15   6 C        3.225     0.073    25.632     8.227
    16   6 C        3.098     0.054    26.665     8.463
    17   7 N        2.807    -0.118    23.558     7.209
    18   6 C        2.906    -0.068    29.699     8.936
    19   6 C        2.928    -0.064    29.593     8.921
    20   6 C        2.869     0.146    24.824     8.167
    21   8 O        1.706    -0.241    17.988     5.726
    22   6 C        3.645     0.031    20.384     6.489
    23   6 C        2.908    -0.099    30.481     9.053
    24   8 O        0.860    -0.475    23.235     6.463
    25   1 H        0.925     0.046     2.370     2.408
    26   1 H        0.925     0.062     2.173     2.305
    27   1 H        0.924     0.049     2.336     2.390
    28   1 H        0.925     0.052     2.290     2.366
    29   1 H        0.924     0.036     2.496     2.471
    30   1 H        0.924     0.032     2.562     2.503
    31   1 H        0.925     0.064     2.152     2.294
    32   1 H        0.924     0.045     2.378     2.412
    33   1 H        0.925     0.046     2.376     2.410
    34   1 H        0.925     0.052     2.290     2.367
    35   1 H        0.925     0.066     2.128     2.281
    36   1 H        0.925     0.074     2.037     2.232
    37   1 H        0.860     0.189     1.162     1.688
    38   1 H        0.926     0.037     2.489     2.467
    39   1 H        0.926     0.051     2.306     2.375
    40   1 H        0.925     0.069     2.097     2.265
    41   1 H        0.924     0.053     2.284     2.364
    42   1 H        0.924     0.049     2.337     2.391
    43   1 H        0.926     0.043     2.405     2.425

 Mol. C6AA /au·bohr⁶  :      23689.950824
 Mol. C8AA /au·bohr⁸  :     592474.130746
 Mol. α(0) /au        :        239.935208


Wiberg/Mayer (AO) data.
largest (>0.10) Wiberg bond orders for each atom

 ---------------------------------------------------------------------------
     #   Z sym  total        # sym  WBO       # sym  WBO       # sym  WBO
 ---------------------------------------------------------------------------
     1   6 C    3.987 --     2 C    1.025    25 H    0.979    26 H    0.976
                            27 H    0.966
     2   6 C    3.915 --     8 C    1.394     3 C    1.299     1 C    1.025
     3   6 C    3.908 --     6 C    1.386     2 C    1.299     4 O    0.997
     4   8 O    2.095 --     3 C    0.997     5 C    0.970
     5   6 C    3.946 --    28 H    0.980    30 H    0.979    29 H    0.976
                             4 O    0.970
     6   6 C    3.953 --     3 C    1.386    10 C    1.323     7 C    1.025
     7   6 C    3.990 --     6 C    1.025    31 H    0.978    33 H    0.972
                            32 H    0.967
     8   6 C    3.949 --     9 N    1.422     2 C    1.394    34 H    0.954
     9   7 N    3.014 --     8 C    1.422    10 C    1.307
    10   6 C    3.925 --     6 C    1.323     9 N    1.307    11 C    1.068
    11   6 C    3.929 --    10 C    1.068    35 H    0.967    36 H    0.957
                            12 S    0.770
    12  16 S    3.782 --    24 O    1.764    13 C    0.996    11 C    0.770
    13   6 C    3.870 --    14 N    1.437    17 N    1.128    12 S    0.996
    14   7 N    2.973 --    13 C    1.437    15 C    1.238
    15   6 C    3.948 --    23 C    1.313    14 N    1.238    16 C    1.189
    16   6 C    3.882 --    18 C    1.300    17 N    1.203    15 C    1.189
    17   7 N    3.506 --    16 C    1.203    13 C    1.128    37 H    0.929
    18   6 C    3.890 --    19 C    1.442    16 C    1.300    38 H    0.967
    19   6 C    3.863 --    18 C    1.442    20 C    1.276    39 H    0.968
    20   6 C    3.826 --    23 C    1.333    19 C    1.276    21 O    1.090
    21   8 O    2.213 --    20 C    1.090    22 C    0.985
    22   6 C    3.939 --    21 O    0.985    40 H    0.979    42 H    0.972
                            41 H    0.971
    23   6 C    3.880 --    20 C    1.333    15 C    1.313    43 H    0.962
    24   8 O    1.957 --    12 S    1.764
    25   1 H    0.996 --     1 C    0.979
    26   1 H    0.992 --     1 C    0.976
    27   1 H    0.993 --     1 C    0.966
    28   1 H    0.996 --     5 C    0.980
    29   1 H    0.998 --     5 C    0.976
    30   1 H    0.999 --     5 C    0.979
    31   1 H    0.994 --     7 C    0.978
    32   1 H    0.997 --     7 C    0.967
    33   1 H    0.997 --     7 C    0.972
    34   1 H    0.988 --     8 C    0.954
    35   1 H    0.994 --    11 C    0.967
    36   1 H    0.992 --    11 C    0.957
    37   1 H    0.964 --    17 N    0.929
    38   1 H    0.997 --    18 C    0.967
    39   1 H    0.997 --    19 C    0.968
    40   1 H    0.995 --    22 C    0.979
    41   1 H    0.991 --    22 C    0.971
    42   1 H    0.991 --    22 C    0.972
    43   1 H    0.997 --    23 C    0.962
 ---------------------------------------------------------------------------

Topologies differ in total number of bonds
Writing topology from bond orders to xtbtopo.mol

molecular dipole:
                 x           y           z       tot (Debye)
 q only:       -0.369      -1.238      -0.938
   full:       -0.849      -1.238      -0.830       4.361
molecular quadrupole (traceless):
                xx          xy          yy          xz          yz          zz
 q only:        5.190      -5.449     -11.916      -1.362       0.456       6.726
  q+dip:        2.805      -9.977     -11.735      -4.676       3.990       8.929
   full:        0.520      -9.800     -11.131      -4.023       1.312      10.611


           -------------------------------------------------
          | TOTAL ENERGY              -70.193611141200 Eh   |
          | GRADIENT NORM               0.094737625284 Eh/α |
          | HOMO-LUMO GAP               0.249503430793 eV   |
           -------------------------------------------------

------------------------------------------------------------------------
 * finished run on 2025/05/15 at 16:28:19.595     
------------------------------------------------------------------------
 total:
 * wall-time:     0 d,  0 h,  0 min,  0.166 sec
 *  cpu-time:     0 d,  0 h,  0 min,  0.114 sec
 * ratio c/w:     0.689 speedup
 SCF:
 * wall-time:     0 d,  0 h,  0 min,  0.152 sec
 *  cpu-time:     0 d,  0 h,  0 min,  0.101 sec
 * ratio c/w:     0.667 speedup


