43
 energy: -70.315794236485 gnorm: 0.000155612285 xtb: 6.7.1 (edcfbbe)
C            2.98854092695176       -3.14383282123110       -0.42029642158457
C            2.61021260097068       -1.99961836025054        0.46662490733686
C            1.31714171411422       -1.85752360192123        0.97317876235696
O            0.35344196706345       -2.80466127432460        0.67346094929736
C           -0.38336396291230       -2.51068678058681       -0.49512288909471
C            1.00156491936461       -0.78764131829214        1.81565270099774
C           -0.37552603909395       -0.66817218340466        2.39575830301660
C            3.53423002206202       -1.02914243013350        0.83290361588059
N            3.25303271534134       -0.00476887537276        1.60839687259734
C            2.02477409064367        0.12199312710686        2.09558715949241
C            1.82282647535144        1.34350242130039        2.91670236847129
S            2.00051879012045        2.83461052969104        1.79869511315975
C            0.60714121194154        2.37381763699874        0.75385355516105
N            0.56735636902525        1.49882949917714       -0.20906305022319
C           -0.72335188040798        1.54272433207998       -0.67546513287640
C           -1.46235244019451        2.50028782968828        0.06032954973138
N           -0.57227912891542        3.01479547180305        0.96658186936093
C           -2.80471050923043        2.73386304208152       -0.19961205214143
C           -3.38664093631740        1.99460719547457       -1.20179175627149
C           -2.66204243502061        1.04324983150555       -1.94726969444708
O           -3.39380831354642        0.40036822980403       -2.90209293941973
C           -2.75353660733128       -0.56773650636469       -3.69580065716082
C           -1.32167986995398        0.80912441490667       -1.69736359348178
O            1.43310440657476        3.95203935783170        2.56855123908873
H            4.00164073623209       -3.47297968888791       -0.20052440392283
H            2.30198879629115       -3.97476845675707       -0.27655588933755
H            2.95410554896913       -2.83880656981932       -1.46669941160312
H           -1.09629844519712       -3.32528045290757       -0.61557250899652
H           -0.91913223401081       -1.56064408831078       -0.39776945660338
H            0.26882431872571       -2.46148357087969       -1.37367787527578
H           -0.92443541257037       -1.59050279726104        2.22330658613625
H           -0.92365001515354        0.15187248809882        1.93132275641254
H           -0.33048831700379       -0.49167317928335        3.46899003626232
H            4.55571336700037       -1.08066871658958        0.47915751917992
H            0.85389657915239        1.41369538191830        3.40169953638864
H            2.62290262234961        1.46395347202740        3.64548627408584
H           -0.69002862105831        3.75108482768793        1.64589340896000
H           -3.36907561792670        3.46419430424454        0.35877834327201
H           -4.42686736515701        2.12793970848968       -1.45147216529989
H           -3.51757686577742       -0.94351798524870       -4.37445634185350
H           -1.93456309056614       -0.13264031510103       -4.27744740277134
H           -2.36849317034524       -1.39430773820621       -3.08887676948200
H           -0.73305690055339        0.10430460918640       -2.25888101480609
