38
 energy: -65.470918042577 gnorm: 0.000552895178 xtb: 6.7.1 (edcfbbe)
O           -0.72709958444610       -3.00363568100640        0.84164635060554
C           -1.81105674741729       -2.36385224986648        0.20753292778875
C           -1.70526699944698       -0.86823140716588        0.49273245494577
O           -0.54020351433275       -0.40355565293243       -0.15261377560561
C           -0.28078327488025        0.95894323063079        0.06839164614501
C           -1.41898597555281        1.81764668443031       -0.50076874580670
C           -2.72908462432949        1.39729833548601        0.16645015614209
C           -2.94218004047805       -0.11171271918530       -0.01062119697084
O           -4.06529422860859       -0.54870945752651        0.70373079472922
O           -3.83676973190660        2.05984654286177       -0.39217573365033
O           -1.20947677271720        3.18461215859512       -0.24961255587047
O            0.88751618733084        1.31734896601646       -0.58995593767573
C            2.05156397050715        0.80712562627837       -0.00002524252086
C            2.64160251379061        1.53320497913516        1.02598304930125
C            3.80154014501106        1.07438675066110        1.62211447041047
C            4.36656453065771       -0.11687536539398        1.19874734520159
C            3.77613576882341       -0.83452318899587        0.17578571301218
C            2.61576873424467       -0.38555445427731       -0.44403062694697
C            1.97836826137460       -1.21667943197213       -1.53134066475595
O            1.49900562471706       -2.44673017839935       -1.04270311677737
H           -0.70059546288268       -3.92693180709291        0.56847085108671
H           -2.77128563752455       -2.71985524173915        0.59864568895634
H           -1.77521672508780       -2.51515302717730       -0.87805852622741
H           -1.61465272314364       -0.72177077620474        1.57980248501796
H           -0.19251339214822        1.14580492364507        1.16019960049077
H           -1.47928509929746        1.62719330194743       -1.58349564661565
H           -2.65962825115486        1.62839361150664        1.24272217582227
H           -3.07085619170824       -0.31135447879772       -1.08723595562990
H           -4.78078975564288        0.07140233644737        0.51048034847356
H           -3.61540936571587        2.99769509716598       -0.44107855723824
H           -0.32042906505192        3.40402251230483       -0.55540352862078
H            2.18327522660871        2.45742423627883        1.34744505161251
H            4.25841016921265        1.64393441178133        2.41744020459667
H            5.26763081706196       -0.48417188349179        1.66639342528292
H            4.20518627847568       -1.76888274659757       -0.15382082592914
H            1.17303861631266       -0.64430461359544       -2.00725789812303
H            2.72880174889713       -1.46992641283185       -2.28735626247644
H            0.81255457044849       -2.26357293092324       -0.38195994218051
