----- Optimization -----
      -----------------------------------------------------------      
     |                   =====================                   |     
     |                           x T B                           |     
     |                   =====================                   |     
     |                         S. Grimme                         |     
     |          Mulliken Center for Theoretical Chemistry        |     
     |                    University of Bonn                     |     
      -----------------------------------------------------------      

   * xtb version 6.7.1 (edcfbbe) compiled by 'conda@3ef47c1a292c' on 2024-11-25

   xtb is free software: you can redistribute it and/or modify it under
   the terms of the GNU Lesser General Public License as published by
   the Free Software Foundation, either version 3 of the License, or
   (at your option) any later version.
   
   xtb is distributed in the hope that it will be useful,
   but WITHOUT ANY WARRANTY; without even the implied warranty of
   MERCHANTABILITY or FITNESS FOR A PARTICULAR PURPOSE.  See the
   GNU Lesser General Public License for more details.
   
   Cite this work as:
   * C. Bannwarth, E. Caldeweyher, S. Ehlert, A. Hansen, P. Pracht,
     J. Seibert, S. Spicher, S. Grimme, WIREs Comput. Mol. Sci., 2020, 11,
     e01493. DOI: 10.1002/wcms.1493
   
   for GFN2-xTB:
   * C. Bannwarth, S. Ehlert and S. Grimme., J. Chem. Theory Comput., 2019,
     15, 1652-1671. DOI: 10.1021/acs.jctc.8b01176
   for GFN1-xTB:
   * S. Grimme, C. Bannwarth, P. Shushkov, J. Chem. Theory Comput., 2017,
     13, 1989-2009. DOI: 10.1021/acs.jctc.7b00118
   for GFN0-xTB:
   * P. Pracht, E. Caldeweyher, S. Ehlert, S. Grimme, ChemRxiv, 2019, preprint.
     DOI: 10.26434/chemrxiv.8326202.v1
   for GFN-FF:
   * S. Spicher and S. Grimme, Angew. Chem. Int. Ed., 2020, 59, 15665-15673.
     DOI: 10.1002/anie.202004239
   
   for ALPB and GBSA implicit solvation:
   * S. Ehlert, M. Stahn, S. Spicher, S. Grimme, J. Chem. Theory Comput.,
     2021, 17, 4250-4261. DOI: 10.1021/acs.jctc.1c00471
   
   for ddCOSMO and CPCM-X implicit solvation:
   * M. Stahn, S. Ehlert, S. Grimme, J. Phys. Chem. A,
     2023, XX, XXXX-XXXX. DOI: 10.1021/acs.jpca.3c04382
   
   for DFT-D4:
   * E. Caldeweyher, C. Bannwarth and S. Grimme, J. Chem. Phys., 2017,
     147, 034112. DOI: 10.1063/1.4993215
   * E. Caldeweyher, S. Ehlert, A. Hansen, H. Neugebauer, S. Spicher,
     C. Bannwarth and S. Grimme, J. Chem. Phys., 2019, 150, 154122.
     DOI: 10.1063/1.5090222
   * E. Caldeweyher, J.-M. Mewes, S. Ehlert and S. Grimme, Phys. Chem. Chem. Phys.
     2020, 22, 8499-8512. DOI: 10.1039/D0CP00502A
   
   for sTDA-xTB:
   * S. Grimme and C. Bannwarth, J. Chem. Phys., 2016, 145, 054103.
     DOI: 10.1063/1.4959605
   
   in the mass-spec context:
   * V. Asgeirsson, C. Bauer and S. Grimme, Chem. Sci., 2017, 8, 4879.
     DOI: 10.1039/c7sc00601b
   * J. Koopman and S. Grimme, ACS Omega 2019, 4, 12, 15120-15133.
     DOI: 10.1021/acsomega.9b02011
   
   for metadynamics refer to:
   * S. Grimme, J. Chem. Theory Comput., 2019, 155, 2847-2862
     DOI: 10.1021/acs.jctc.9b00143
   
   for SPH calculations refer to:
   * S. Spicher and S. Grimme, J. Chem. Theory Comput., 2021, 17, 1701-1714
     DOI: 10.1021/acs.jctc.0c01306
   
   for ONIOM refer to:
   * C. Plett, A. Katbashev, S. Ehlert, S. Grimme, M. Bursch,
     Phys. Chem. Chem. Phys., 2023, 25, 17860-17868. DOI: 10.1039/D3CP02178E
   
   for DIPRO refer to:
   * J. Kohn, N. Gildemeister, S. Grimme, D. Fazzi, A. Hansen,
     J. Chem. Phys., 2023, just accepted.
   
   for PTB refer to:
   * S. Grimme, M. Mueller, A. Hansen, J. Chem. Phys., 2023, 158, 124111.
     DOI: 10.1063/5.0137838
   
   with help from (in alphabetical order)
   P. Atkinson, C. Bannwarth, F. Bohle, G. Brandenburg, E. Caldeweyher
   M. Checinski, S. Dohm, S. Ehlert, S. Ehrlich, I. Gerasimov, C. Hölzer
   A. Katbashev, J. Kohn, J. Koopman, C. Lavigne, S. Lehtola, F. März, M. Müller,
   F. Musil, H. Neugebauer, J. Pisarek, C. Plett, P. Pracht, F. Pultar,
   J. Seibert, P. Shushkov, S. Spicher, M. Stahn, M. Steiner, T. Strunk,
   J. Stückrath, T. Rose, and J. Unsleber
   
 * started run on 2025/05/15 at 16:11:17.072     
   ID    Z sym.   atoms
    1    8 O      1, 4, 9-12, 20
    2    6 C      2, 3, 5-8, 13-19
    3    1 H      21-38

           -------------------------------------------------
          |                Calculation Setup                |
           -------------------------------------------------

          program call               : xtb /rds/general/user/hgt20/home/callum/QDESCP/Salicin_rdkit_conf_13/Salicin_rdkit_conf_13.xyz --opt normal --acc 1 --gfn 2 --chrg 0 --uhf 0 -P 1
          hostname                   : login-c
          coordinate file            : /rds/general/user/hgt20/home/callum/QDESCP/Salicin_rdkit_conf_13/Salicin_rdkit_conf_13.xyz
          omp threads                :                     1


           -------------------------------------------------
          |                 G F N 2 - x T B                 |
           -------------------------------------------------

        Reference                      10.1021/acs.jctc.8b01176
      * Hamiltonian:
        H0-scaling (s, p, d)           1.850000    2.230000    2.230000
        zeta-weighting                 0.500000
      * Dispersion:
        s8                             2.700000
        a1                             0.520000
        a2                             5.000000
        s9                             5.000000
      * Repulsion:
        kExp                           1.500000    1.000000
        rExp                           1.000000
      * Coulomb:
        alpha                          2.000000
        third order                    shell-resolved
        anisotropic                    true
        a3                             3.000000
        a5                             4.000000
        cn-shift                       1.200000
        cn-exp                         4.000000
        max-rad                        5.000000


          ...................................................
          :                      SETUP                      :
          :.................................................:
          :  # basis functions                  98          :
          :  # atomic orbitals                  98          :
          :  # shells                           58          :
          :  # electrons                       112          :
          :  max. iterations                   250          :
          :  Hamiltonian                  GFN2-xTB          :
          :  restarted?                      false          :
          :  GBSA solvation                  false          :
          :  PC potential                    false          :
          :  electronic temp.          300.0000000     K    :
          :  accuracy                    1.0000000          :
          :  -> integral cutoff          0.2500000E+02      :
          :  -> integral neglect         0.1000000E-07      :
          :  -> SCF convergence          0.1000000E-05 Eh   :
          :  -> wf. convergence          0.1000000E-03 e    :
          :  Broyden damping             0.4000000          :
          :  net charge                          0          :
          :  unpaired electrons                  0          :
          ...................................................

 iter      E             dE          RMSdq      gap      omega  full diag
   1    -66.0053470 -0.660053E+02  0.455E+00    4.44       0.0  T
   2    -66.0691391 -0.637921E-01  0.252E+00    4.28       1.0  T
   3    -66.0665258  0.261331E-02  0.866E-01    4.04       1.0  T
   4    -66.0721883 -0.566250E-02  0.283E-01    4.12       1.0  T
   5    -66.0740129 -0.182459E-02  0.934E-02    4.18       1.0  T
   6    -66.0740622 -0.492957E-04  0.425E-02    4.20       1.0  T
   7    -66.0740704 -0.824552E-05  0.157E-02    4.20       1.0  T
   8    -66.0740732 -0.281698E-05  0.510E-03    4.19       3.2  T
   9    -66.0740736 -0.339642E-06  0.211E-03    4.19       7.7  T
  10    -66.0740736 -0.350717E-07  0.892E-04    4.19      18.2  T
  11    -66.0740736 -0.117189E-07  0.375E-04    4.19      43.3  T

   *** convergence criteria satisfied after 11 iterations ***

         #    Occupation            Energy/Eh            Energy/eV
      -------------------------------------------------------------
         1        2.0000           -0.7317993             -19.9133
       ...           ...                  ...                  ...
        50        2.0000           -0.4291337             -11.6773
        51        2.0000           -0.4250383             -11.5659
        52        2.0000           -0.4240419             -11.5388
        53        2.0000           -0.4160587             -11.3215
        54        2.0000           -0.4095375             -11.1441
        55        2.0000           -0.4053187             -11.0293
        56        2.0000           -0.3903503             -10.6220 (HOMO)
        57                         -0.2362602              -6.4290 (LUMO)
        58                         -0.2343335              -6.3765
        59                         -0.1151952              -3.1346
        60                         -0.0626594              -1.7050
        61                         -0.0309769              -0.8429
       ...                                ...                  ...
        98                          0.6216239              16.9152
      -------------------------------------------------------------
                  HL-Gap            0.1540900 Eh            4.1930 eV
             Fermi-level           -0.3133053 Eh           -8.5255 eV

 SCC (total)                   0 d,  0 h,  0 min,  0.047 sec
 SCC setup                      ...        0 min,  0.000 sec (  0.684%)
 Dispersion                     ...        0 min,  0.000 sec (  0.808%)
 classical contributions        ...        0 min,  0.000 sec (  0.254%)
 integral evaluation            ...        0 min,  0.007 sec ( 14.098%)
 iterations                     ...        0 min,  0.019 sec ( 40.867%)
 molecular gradient             ...        0 min,  0.020 sec ( 42.965%)
 printout                       ...        0 min,  0.000 sec (  0.310%)

         :::::::::::::::::::::::::::::::::::::::::::::::::::::
         ::                     SUMMARY                     ::
         :::::::::::::::::::::::::::::::::::::::::::::::::::::
         :: total energy             -65.459526072711 Eh    ::
         :: gradient norm              0.079379762969 Eh/a0 ::
         :: HOMO-LUMO gap              4.193003068799 eV    ::
         ::.................................................::
         :: SCC energy               -66.073488118517 Eh    ::
         :: -> isotropic ES            0.157891973156 Eh    ::
         :: -> anisotropic ES         -0.004978870887 Eh    ::
         :: -> anisotropic XC         -0.000134244633 Eh    ::
         :: -> dispersion             -0.037303531030 Eh    ::
         :: repulsion energy           0.613962045806 Eh    ::
         :: add. restraining           0.000000000000 Eh    ::
         :: total charge               0.000000000000 e     ::
         :::::::::::::::::::::::::::::::::::::::::::::::::::::

      ----------------------------------------------------------- 
     |                   =====================                   |
     |                        A N C O P T                        |
     |                   =====================                   |
     |               Approximate Normal Coordinate               |
     |                Rational Function Optimizer                |
      ----------------------------------------------------------- 
      ----------------------------------------------------------- 
     |                   =====================                   |
     |                        A N C O P T                        |
     |                   =====================                   |
     |               Approximate Normal Coordinate               |
     |                Rational Function Optimizer                |
      ----------------------------------------------------------- 

          ...................................................
          :                      SETUP                      :
          :.................................................:
          :   optimization level            normal          :
          :   max. optcycles                   200          :
          :   ANC micro-cycles                  20          :
          :   degrees of freedom               108          :
          :.................................................:
          :   RF solver                   davidson          :
          :   write xtbopt.log                true          :
          :   linear?                        false          :
          :   energy convergence         0.5000000E-05 Eh   :
          :   grad. convergence          0.1000000E-02 Eh/α :
          :   maxmium RF displ.          1.0000000          :
          :   Hlow (freq-cutoff)         0.1000000E-01      :
          :   Hmax (freq-cutoff)         5.0000000          :
          :   S6 in model hess.         20.0000000          :
          ...................................................

generating ANC from exact Hessian ...
Using Lindh-Hessian (1995)
 Shifting diagonal of input Hessian by    9.6913764898383797E-003
 Lowest  eigenvalues of input Hessian
    0.000000    0.000000    0.000000    0.000000    0.000000    0.000000
    0.010000    0.010519    0.010668    0.011985    0.012491    0.013778
    0.014537    0.015086    0.016183    0.016784    0.017118    0.019136
 Highest eigenvalues
    1.522070    1.569078    1.693528    1.837721    1.955729    2.011379


........................................................................
.............................. CYCLE    1 ..............................
........................................................................

 iter      E             dE          RMSdq      gap      omega  full diag
   1    -66.0740736 -0.660741E+02  0.109E-04    4.19       0.0  T
   2    -66.0740736 -0.717222E-10  0.605E-05    4.19     268.2  T
   3    -66.0740736 -0.314060E-11  0.339E-05    4.19     478.0  T
     SCC iter.                  ...        0 min,  0.006 sec
     gradient                   ...        0 min,  0.020 sec
 * total energy  :   -65.4595261 Eh     change       -0.2718821E-08 Eh
   gradient norm :     0.0793804 Eh/α   predicted     0.0000000E+00 (-100.00%)
   displ. norm   :     0.2925942 α      lambda       -0.1160737E-01
   maximum displ.:     0.0911829 α      in ANC's #19, #36, #13, ...

........................................................................
.............................. CYCLE    2 ..............................
........................................................................

 iter      E             dE          RMSdq      gap      omega  full diag
   1    -66.1046068 -0.661046E+02  0.178E-01    4.29       0.0  T
   2    -66.1046411 -0.343344E-04  0.107E-01    4.28       1.0  T
   3    -66.1046192  0.219628E-04  0.312E-02    4.28       1.0  T
   4    -66.1046495 -0.302997E-04  0.785E-03    4.28       2.1  T
   5    -66.1046506 -0.115197E-05  0.390E-03    4.28       4.2  T
   6    -66.1046507 -0.777954E-07  0.167E-03    4.28       9.7  T
   7    -66.1046507 -0.130309E-07  0.620E-04    4.28      26.2  T
   8    -66.1046507 -0.463447E-08  0.243E-04    4.28      66.9  T
     SCC iter.                  ...        0 min,  0.013 sec
     gradient                   ...        0 min,  0.048 sec
 * total energy  :   -65.4677013 Eh     change       -0.8175184E-02 Eh
   gradient norm :     0.0407878 Eh/α   predicted    -0.6301785E-02 ( -22.92%)
   displ. norm   :     0.2667635 α      lambda       -0.4323708E-02
   maximum displ.:     0.0930339 α      in ANC's #19, #12, #13, ...

........................................................................
.............................. CYCLE    3 ..............................
........................................................................

 iter      E             dE          RMSdq      gap      omega  full diag
   1    -66.1199618 -0.661200E+02  0.130E-01    4.31       0.0  T
   2    -66.1199845 -0.226953E-04  0.779E-02    4.30       1.0  T
   3    -66.1199780  0.649463E-05  0.224E-02    4.30       1.0  T
   4    -66.1199890 -0.109893E-04  0.626E-03    4.30       2.6  T
   5    -66.1199896 -0.635439E-06  0.317E-03    4.30       5.1  T
   6    -66.1199897 -0.706580E-07  0.127E-03    4.30      12.8  T
   7    -66.1199897 -0.553365E-08  0.563E-04    4.30      28.8  T
   8    -66.1199897 -0.313457E-08  0.174E-04    4.30      93.3  T
     SCC iter.                  ...        0 min,  0.013 sec
     gradient                   ...        0 min,  0.020 sec
 * total energy  :   -65.4701988 Eh     change       -0.2497590E-02 Eh
   gradient norm :     0.0114711 Eh/α   predicted    -0.2316492E-02 (  -7.25%)
   displ. norm   :     0.1355530 α      lambda       -0.4677062E-03
   maximum displ.:     0.0571949 α      in ANC's #12, #4, #14, ...

........................................................................
.............................. CYCLE    4 ..............................
........................................................................

 iter      E             dE          RMSdq      gap      omega  full diag
   1    -66.1195075 -0.661195E+02  0.476E-02    4.30       0.0  T
   2    -66.1195086 -0.113690E-05  0.285E-02    4.30       1.0  T
   3    -66.1195086 -0.122103E-07  0.352E-03    4.30       4.6  T
   4    -66.1195088 -0.224655E-06  0.157E-03    4.30      10.4  T
   5    -66.1195089 -0.332396E-07  0.773E-04    4.30      21.0  T
   6    -66.1195089 -0.708410E-08  0.336E-04    4.30      48.3  T
     SCC iter.                  ...        0 min,  0.051 sec
     gradient                   ...        0 min,  0.020 sec
 * total energy  :   -65.4705276 Eh     change       -0.3287046E-03 Eh
   gradient norm :     0.0048269 Eh/α   predicted    -0.2381530E-03 ( -27.55%)
   displ. norm   :     0.1549406 α      lambda       -0.2468992E-03
   maximum displ.:     0.0762870 α      in ANC's #4, #2, #12, ...

........................................................................
.............................. CYCLE    5 ..............................
........................................................................

 iter      E             dE          RMSdq      gap      omega  full diag
   1    -66.1178867 -0.661179E+02  0.512E-02    4.30       0.0  T
   2    -66.1178875 -0.885135E-06  0.306E-02    4.30       1.0  T
   3    -66.1178876 -0.955731E-08  0.291E-03    4.30       5.6  T
   4    -66.1178877 -0.184006E-06  0.142E-03    4.30      11.4  T
   5    -66.1178878 -0.281555E-07  0.751E-04    4.30      21.6  T
   6    -66.1178878 -0.717631E-08  0.249E-04    4.30      65.2  T
     SCC iter.                  ...        0 min,  0.010 sec
     gradient                   ...        0 min,  0.057 sec
 * total energy  :   -65.4706855 Eh     change       -0.1579768E-03 Eh
   gradient norm :     0.0033457 Eh/α   predicted    -0.1264144E-03 ( -19.98%)
   displ. norm   :     0.1145432 α      lambda       -0.8302495E-04
   maximum displ.:     0.0639799 α      in ANC's #4, #2, #6, ...

........................................................................
.............................. CYCLE    6 ..............................
........................................................................

 iter      E             dE          RMSdq      gap      omega  full diag
   1    -66.1175415 -0.661175E+02  0.349E-02    4.30       0.0  T
   2    -66.1175418 -0.256112E-06  0.208E-02    4.30       1.0  T
   3    -66.1175417  0.122961E-07  0.193E-03    4.30       8.4  T
   4    -66.1175418 -0.909190E-07  0.876E-04    4.30      18.5  T
   5    -66.1175418 -0.647738E-08  0.458E-04    4.30      35.4  T
     SCC iter.                  ...        0 min,  0.008 sec
     gradient                   ...        0 min,  0.021 sec
 * total energy  :   -65.4707480 Eh     change       -0.6250599E-04 Eh
   gradient norm :     0.0032783 Eh/α   predicted    -0.4205820E-04 ( -32.71%)
   displ. norm   :     0.1425833 α      lambda       -0.7999311E-04
   maximum displ.:     0.0801004 α      in ANC's #4, #2, #6, ...

........................................................................
.............................. CYCLE    7 ..............................
........................................................................

 iter      E             dE          RMSdq      gap      omega  full diag
   1    -66.1178549 -0.661179E+02  0.409E-02    4.31       0.0  T
   2    -66.1178552 -0.314152E-06  0.245E-02    4.31       1.0  T
   3    -66.1178551  0.104696E-06  0.265E-03    4.31       6.1  T
   4    -66.1178553 -0.215038E-06  0.102E-03    4.31      15.9  T
   5    -66.1178553 -0.908967E-08  0.476E-04    4.31      34.1  T
   6    -66.1178553 -0.172156E-08  0.157E-04    4.31     103.4  T
     SCC iter.                  ...        0 min,  0.010 sec
     gradient                   ...        0 min,  0.059 sec
 * total energy  :   -65.4708056 Eh     change       -0.5757085E-04 Eh
   gradient norm :     0.0024026 Eh/α   predicted    -0.4081100E-04 ( -29.11%)
   displ. norm   :     0.1194732 α      lambda       -0.4802357E-04
   maximum displ.:     0.0657206 α      in ANC's #2, #4, #7, ...

........................................................................
.............................. CYCLE    8 ..............................
........................................................................

 iter      E             dE          RMSdq      gap      omega  full diag
   1    -66.1184607 -0.661185E+02  0.320E-02    4.31       0.0  T
   2    -66.1184609 -0.181873E-06  0.192E-02    4.31       1.0  T
   3    -66.1184608  0.448481E-07  0.188E-03    4.31       8.6  T
   4    -66.1184609 -0.102443E-06  0.754E-04    4.31      21.5  T
   5    -66.1184610 -0.632741E-08  0.349E-04    4.31      46.4  T
     SCC iter.                  ...        0 min,  0.008 sec
     gradient                   ...        0 min,  0.021 sec
 * total energy  :   -65.4708398 Eh     change       -0.3418287E-04 Eh
   gradient norm :     0.0019840 Eh/α   predicted    -0.2436653E-04 ( -28.72%)
   displ. norm   :     0.1369546 α      lambda       -0.2808773E-04
   maximum displ.:     0.0824294 α      in ANC's #2, #4, #7, ...

........................................................................
.............................. CYCLE    9 ..............................
........................................................................

 iter      E             dE          RMSdq      gap      omega  full diag
   1    -66.1190988 -0.661191E+02  0.337E-02    4.32       0.0  T
   2    -66.1190990 -0.220845E-06  0.203E-02    4.32       1.0  T
   3    -66.1190990 -0.116893E-07  0.145E-03    4.32      11.2  T
   4    -66.1190991 -0.459410E-07  0.650E-04    4.32      25.0  T
   5    -66.1190991 -0.170954E-08  0.349E-04    4.32      46.5  T
     SCC iter.                  ...        0 min,  0.008 sec
     gradient                   ...        0 min,  0.021 sec
 * total energy  :   -65.4708643 Eh     change       -0.2452174E-04 Eh
   gradient norm :     0.0017884 Eh/α   predicted    -0.1416150E-04 ( -42.25%)
   displ. norm   :     0.0501992 α      lambda       -0.1091017E-04
   maximum displ.:     0.0329004 α      in ANC's #2, #1, #7, ...

........................................................................
.............................. CYCLE   10 ..............................
........................................................................

 iter      E             dE          RMSdq      gap      omega  full diag
   1    -66.1190587 -0.661191E+02  0.115E-02    4.32       0.0  T
   2    -66.1190588 -0.582029E-07  0.688E-03    4.32       2.4  T
   3    -66.1190587  0.468437E-07  0.135E-03    4.32      12.0  T
   4    -66.1190588 -0.630267E-07  0.344E-04    4.32      47.2  T
   5    -66.1190588 -0.173807E-08  0.174E-04    4.32      93.1  T
     SCC iter.                  ...        0 min,  0.008 sec
     gradient                   ...        0 min,  0.054 sec
 * total energy  :   -65.4708772 Eh     change       -0.1287882E-04 Eh
   gradient norm :     0.0008783 Eh/α   predicted    -0.5465997E-05 ( -57.56%)
   displ. norm   :     0.0840534 α      lambda       -0.1308068E-04
   maximum displ.:     0.0535504 α      in ANC's #2, #1, #6, ...

........................................................................
.............................. CYCLE   11 ..............................
........................................................................

 iter      E             dE          RMSdq      gap      omega  full diag
   1    -66.1186311 -0.661186E+02  0.185E-02    4.32       0.0  T
   2    -66.1186311 -0.938379E-07  0.111E-02    4.32       1.5  T
   3    -66.1186311  0.639906E-07  0.162E-03    4.32      10.0  T
   4    -66.1186312 -0.955472E-07  0.492E-04    4.32      33.0  T
   5    -66.1186312 -0.248322E-08  0.260E-04    4.32      62.3  T
     SCC iter.                  ...        0 min,  0.008 sec
     gradient                   ...        0 min,  0.021 sec
 * total energy  :   -65.4708914 Eh     change       -0.1420298E-04 Eh
   gradient norm :     0.0009908 Eh/α   predicted    -0.6562758E-05 ( -53.79%)
   displ. norm   :     0.0767878 α      lambda       -0.7851681E-05
   maximum displ.:     0.0509013 α      in ANC's #2, #1, #6, ...

........................................................................
.............................. CYCLE   12 ..............................
........................................................................

 iter      E             dE          RMSdq      gap      omega  full diag
   1    -66.1186499 -0.661186E+02  0.153E-02    4.32       0.0  T
   2    -66.1186499 -0.551231E-07  0.916E-03    4.32       1.8  T
   3    -66.1186499  0.145601E-07  0.102E-03    4.32      15.9  T
   4    -66.1186499 -0.338400E-07  0.413E-04    4.32      39.3  T
   5    -66.1186499 -0.166816E-08  0.214E-04    4.32      75.8  T
     SCC iter.                  ...        0 min,  0.008 sec
     gradient                   ...        0 min,  0.059 sec
 * total energy  :   -65.4709005 Eh     change       -0.9088207E-05 Eh
   gradient norm :     0.0010545 Eh/α   predicted    -0.3937697E-05 ( -56.67%)
   displ. norm   :     0.0693799 α      lambda       -0.5994049E-05
   maximum displ.:     0.0476099 α      in ANC's #2, #1, #6, ...

........................................................................
.............................. CYCLE   13 ..............................
........................................................................

 iter      E             dE          RMSdq      gap      omega  full diag
   1    -66.1186193 -0.661186E+02  0.124E-02    4.32       0.0  T
   2    -66.1186194 -0.583483E-07  0.746E-03    4.32       2.2  T
   3    -66.1186193  0.569191E-07  0.144E-03    4.32      11.3  T
   4    -66.1186194 -0.785418E-07  0.398E-04    4.32      40.7  T
   5    -66.1186194 -0.173991E-08  0.210E-04    4.32      77.3  T
     SCC iter.                  ...        0 min,  0.008 sec
     gradient                   ...        0 min,  0.021 sec
 * total energy  :   -65.4709076 Eh     change       -0.7083691E-05 Eh
   gradient norm :     0.0006814 Eh/α   predicted    -0.3007163E-05 ( -57.55%)
   displ. norm   :     0.0643317 α      lambda       -0.4837257E-05
   maximum displ.:     0.0443026 α      in ANC's #2, #1, #3, ...

........................................................................
.............................. CYCLE   14 ..............................
........................................................................

 iter      E             dE          RMSdq      gap      omega  full diag
   1    -66.1188117 -0.661188E+02  0.106E-02    4.32       0.0  T
   2    -66.1188118 -0.577553E-07  0.643E-03    4.32       2.5  T
   3    -66.1188117  0.558825E-07  0.143E-03    4.32      11.4  T
   4    -66.1188118 -0.758101E-07  0.375E-04    4.32      43.2  T
   5    -66.1188118 -0.168454E-08  0.188E-04    4.32      86.2  T
     SCC iter.                  ...        0 min,  0.008 sec
     gradient                   ...        0 min,  0.021 sec
 * total energy  :   -65.4709132 Eh     change       -0.5620353E-05 Eh
   gradient norm :     0.0004215 Eh/α   predicted    -0.2423221E-05 ( -56.88%)
   displ. norm   :     0.0649549 α      lambda       -0.4049595E-05
   maximum displ.:     0.0441601 α      in ANC's #2, #1, #3, ...

........................................................................
.............................. CYCLE   15 ..............................
........................................................................

 iter      E             dE          RMSdq      gap      omega  full diag
   1    -66.1188626 -0.661189E+02  0.102E-02    4.32       0.0  T
   2    -66.1188627 -0.443080E-07  0.619E-03    4.32       2.6  T
   3    -66.1188626  0.526881E-07  0.133E-03    4.32      12.2  T
   4    -66.1188627 -0.718556E-07  0.347E-04    4.32      46.7  T
   5    -66.1188627 -0.110829E-08  0.177E-04    4.32      91.7  T
     SCC iter.                  ...        0 min,  0.008 sec
     gradient                   ...        0 min,  0.073 sec
 * total energy  :   -65.4709180 Eh     change       -0.4856032E-05 Eh
   gradient norm :     0.0005541 Eh/α   predicted    -0.2029335E-05 ( -58.21%)
   displ. norm   :     0.0731521 α      lambda       -0.3897231E-05
   maximum displ.:     0.0482682 α      in ANC's #2, #1, #5, ...

   *** GEOMETRY OPTIMIZATION CONVERGED AFTER 15 ITERATIONS ***

------------------------------------------------------------------------
 total energy gain   :        -0.0113920 Eh       -7.1486 kcal/mol
 total RMSD          :         0.2023612 a0        0.1071 Å
 total power (kW/mol):        -1.9939742 (step)  -30.8629 (real)
------------------------------------------------------------------------

 ANCopt (total)                0 d,  0 h,  0 min,  0.969 sec
 optimizer setup                ...        0 min,  0.000 sec (  0.008%)
 model hessian                  ...        0 min,  0.052 sec (  5.415%)
 ANC generation                 ...        0 min,  0.001 sec (  0.129%)
 coordinate transformation      ...        0 min,  0.000 sec (  0.009%)
 single point calculation       ...        0 min,  0.910 sec ( 93.942%)
 optimization log               ...        0 min,  0.003 sec (  0.347%)
 hessian update                 ...        0 min,  0.000 sec (  0.018%)
 rational function              ...        0 min,  0.001 sec (  0.080%)

================
 final structure:
================
38
 xtb: 6.7.1 (edcfbbe)
O           -0.72709958444610       -3.00363568100640        0.84164635060554
C           -1.81105674741729       -2.36385224986648        0.20753292778875
C           -1.70526699944698       -0.86823140716588        0.49273245494577
O           -0.54020351433275       -0.40355565293243       -0.15261377560561
C           -0.28078327488025        0.95894323063079        0.06839164614501
C           -1.41898597555281        1.81764668443031       -0.50076874580670
C           -2.72908462432949        1.39729833548601        0.16645015614209
C           -2.94218004047805       -0.11171271918530       -0.01062119697084
O           -4.06529422860859       -0.54870945752651        0.70373079472922
O           -3.83676973190660        2.05984654286177       -0.39217573365033
O           -1.20947677271720        3.18461215859512       -0.24961255587047
O            0.88751618733084        1.31734896601646       -0.58995593767573
C            2.05156397050715        0.80712562627837       -0.00002524252086
C            2.64160251379061        1.53320497913516        1.02598304930125
C            3.80154014501106        1.07438675066110        1.62211447041047
C            4.36656453065771       -0.11687536539398        1.19874734520159
C            3.77613576882341       -0.83452318899587        0.17578571301218
C            2.61576873424467       -0.38555445427731       -0.44403062694697
C            1.97836826137460       -1.21667943197213       -1.53134066475595
O            1.49900562471706       -2.44673017839935       -1.04270311677737
H           -0.70059546288268       -3.92693180709291        0.56847085108671
H           -2.77128563752455       -2.71985524173915        0.59864568895634
H           -1.77521672508780       -2.51515302717730       -0.87805852622741
H           -1.61465272314364       -0.72177077620474        1.57980248501796
H           -0.19251339214822        1.14580492364507        1.16019960049077
H           -1.47928509929746        1.62719330194743       -1.58349564661565
H           -2.65962825115486        1.62839361150664        1.24272217582227
H           -3.07085619170824       -0.31135447879772       -1.08723595562990
H           -4.78078975564288        0.07140233644737        0.51048034847356
H           -3.61540936571587        2.99769509716598       -0.44107855723824
H           -0.32042906505192        3.40402251230483       -0.55540352862078
H            2.18327522660871        2.45742423627883        1.34744505161251
H            4.25841016921265        1.64393441178133        2.41744020459667
H            5.26763081706196       -0.48417188349179        1.66639342528292
H            4.20518627847568       -1.76888274659757       -0.15382082592914
H            1.17303861631266       -0.64430461359544       -2.00725789812303
H            2.72880174889713       -1.46992641283185       -2.28735626247644
H            0.81255457044849       -2.26357293092324       -0.38195994218051

 Bond Distances (Angstroems)
 ---------------------------
O1-C2=1.4094         O1-H21=0.9632        C2-O1=1.4094         C2-C3=1.5262         C2-H22=1.0962        C2-H23=1.0967        
C3-C2=1.5262         C3-O4=1.4106         C3-C8=1.5348         C3-H24=1.1006        O4-C3=1.4106         O4-C5=1.4045         
C5-O4=1.4045         C5-C6=1.5352         C5-O12=1.3881        C5-H25=1.1112        C6-C5=1.5352         C6-C7=1.5291         
C6-O11=1.4055        C6-H26=1.1010        C7-C6=1.5291         C7-C8=1.5342         C7-O10=1.4064        C7-H27=1.1030        
C8-C3=1.5348         C8-C7=1.5342         C8-O9=1.4009         C8-H28=1.1025        O9-C8=1.4009         O9-H29=0.9663        
O10-C7=1.4064        O10-H30=0.9649       O11-C6=1.4055        O11-H31=0.9654       O12-C5=1.3881        O12-C13=1.4012       
C13-O12=1.4012       C13-C14=1.3885       C13-C18=1.3921       C14-C13=1.3885       C14-C15=1.3825       C14-H32=1.0805       
C15-C14=1.3825       C15-C16=1.3848       C15-H33=1.0797       C16-C15=1.3848       C16-C17=1.3821       C16-H34=1.0796       
C17-C16=1.3821       C17-C18=1.3900       C17-H35=1.0797       C18-C13=1.3921       C18-C17=1.3900       C18-C19=1.5097       
C19-C18=1.5097       C19-O20=1.4077       C19-H36=1.0967       C19-H37=1.0949       O20-C19=1.4077       O20-H38=0.9702       
H21-O1=0.9632        H22-C2=1.0962        H23-C2=1.0967        H24-C3=1.1006        H25-C5=1.1112        H26-C6=1.1010        
H27-C7=1.1030        H28-C8=1.1025        H29-O9=0.9663        H30-O10=0.9649       H31-O11=0.9654       H32-C14=1.0805       
H33-C15=1.0797       H34-C16=1.0796       H35-C17=1.0797       H36-C19=1.0967       H37-C19=1.0949       H38-O20=0.9702       
 C  H  Rav=1.0940 sigma=0.0102  Rmin=1.0796  Rmax=1.1112    13
 C  C  Rav=1.4574 sigma=0.0711  Rmin=1.3821  Rmax=1.5352    12
 O  H  Rav=0.9660 sigma=0.0023  Rmin=0.9632  Rmax=0.9702     5
 O  C  Rav=1.4038 sigma=0.0064  Rmin=1.3881  Rmax=1.4106     9

 selected bond angles (degree)
 --------------------
H21-O1-C2=109.19               C3-C2-O1=107.91                H22-C2-O1=111.45               H22-C2-C3=108.20               
H23-C2-O1=110.95               H23-C2-C3=108.54               H23-C2-H22=109.69              O4-C3-C2=107.13                
C8-C3-C2=111.46                C8-C3-O4=110.68                H24-C3-C2=108.70               H24-C3-O4=109.88               
H24-C3-C8=108.95               C5-O4-C3=113.59                C6-C5-O4=110.32                O12-C5-O4=109.35               
O12-C5-C6=107.68               H25-C5-O4=109.42               H25-C5-C6=109.21               H25-C5-O12=110.84              
C7-C6-C5=108.64                O11-C6-C5=111.54               O11-C6-C7=108.49               H26-C6-C5=107.97               
H26-C6-C7=109.55               H26-C6-O11=110.62              C8-C7-C6=109.82                O10-C7-C6=111.84               
O10-C7-C8=107.95               H27-C7-C6=108.31               H27-C7-C8=109.11               H27-C7-O10=109.78              
C7-C8-C3=109.57                O9-C8-C3=108.97                O9-C8-C7=111.06                H28-C8-C3=108.97               
H28-C8-C7=107.88               H28-C8-O9=110.36               H29-O9-C8=106.94               H30-O10-C7=107.30              

 selected dihedral angles (degree)
 ---------------------------------
C3-C2-O1-H21=188.27           H22-C2-O1-H21= 69.61          H23-C2-O1-H21=307.05          O4-C3-C2-O1= 65.96            
O4-C3-C2-H22=186.68           O4-C3-C2-H23=305.65           C8-C3-C2-O1=187.18            C8-C3-C2-H22=307.90           
C8-C3-C2-H23= 66.87           H24-C3-C2-O1=307.28           H24-C3-C2-H22= 67.99          H24-C3-C2-H23=186.96          
C5-O4-C3-C2=182.45            C5-O4-C3-C8= 60.74            C5-O4-C3-H24=300.37           C6-C5-O4-C3=297.55            
O12-C5-O4-C3=179.29           H25-C5-O4-C3= 57.73           C7-C6-C5-O4= 58.27            C7-C6-C5-O12=177.54           
C7-C6-C5-H25=297.97           O11-C6-C5-O4=177.81           O11-C6-C5-O12=297.08          O11-C6-C5-H25= 57.51          
H26-C6-C5-O4=299.54           H26-C6-C5-O12= 58.81          H26-C6-C5-H25=179.24          C8-C7-C6-C5=305.12            
C8-C7-C6-O11=183.69           C8-C7-C6-H26= 62.84           O10-C7-C6-C5=185.30           O10-C7-C6-O11= 63.87          
O10-C7-C6-H26=303.02          H27-C7-C6-C5= 64.19           H27-C7-C6-O11=302.76          H27-C7-C6-H26=181.91          
C7-C8-C3-C2=185.77            C7-C8-C3-O4=304.89            C7-C8-C3-H24= 65.82           O9-C8-C3-C2= 64.07            
O9-C8-C3-O4=183.19            O9-C8-C3-H24=304.12           H28-C8-C3-C2=303.59           H28-C8-C3-O4= 62.72           
H28-C8-C3-H24=183.64          C3-C8-C7-C6= 53.65            C3-C8-C7-O10=175.81           C3-C8-C7-H27=295.07           
O9-C8-C7-C6=174.08            O9-C8-C7-O10=296.25           O9-C8-C7-H27= 55.51           H28-C8-C7-C6=295.14           
H28-C8-C7-O10= 57.30          H28-C8-C7-H27=176.56          H29-O9-C8-C3=167.70           H29-O9-C8-C7= 46.90           
H29-O9-C8-H28=287.31          H30-O10-C7-C6=312.30          H30-O10-C7-C8=191.39          H30-O10-C7-H27= 72.56         
           -------------------------------------------------
          |                Final Singlepoint                |
           -------------------------------------------------

          ...................................................
          :                      SETUP                      :
          :.................................................:
          :  # basis functions                  98          :
          :  # atomic orbitals                  98          :
          :  # shells                           58          :
          :  # electrons                       112          :
          :  max. iterations                   250          :
          :  Hamiltonian                  GFN2-xTB          :
          :  restarted?                      false          :
          :  GBSA solvation                  false          :
          :  PC potential                    false          :
          :  electronic temp.          300.0000000     K    :
          :  accuracy                    1.0000000          :
          :  -> integral cutoff          0.2500000E+02      :
          :  -> integral neglect         0.1000000E-07      :
          :  -> SCF convergence          0.1000000E-05 Eh   :
          :  -> wf. convergence          0.1000000E-03 e    :
          :  Broyden damping             0.4000000          :
          :  net charge                          0          :
          :  unpaired electrons                  0          :
          ...................................................

 iter      E             dE          RMSdq      gap      omega  full diag
   1    -66.1188627 -0.661189E+02  0.668E-05    4.32       0.0  T
   2    -66.1188627 -0.209042E-10  0.417E-05    4.32     389.4  T
   3    -66.1188627 -0.288480E-11  0.262E-05    4.32     618.1  T

   *** convergence criteria satisfied after 3 iterations ***

         #    Occupation            Energy/Eh            Energy/eV
      -------------------------------------------------------------
         1        2.0000           -0.7339344             -19.9714
       ...           ...                  ...                  ...
        50        2.0000           -0.4282843             -11.6542
        51        2.0000           -0.4241560             -11.5419
        52        2.0000           -0.4193723             -11.4117
        53        2.0000           -0.4163130             -11.3285
        54        2.0000           -0.4107036             -11.1758
        55        2.0000           -0.4060170             -11.0483
        56        2.0000           -0.3916913             -10.6585 (HOMO)
        57                         -0.2330287              -6.3410 (LUMO)
        58                         -0.2318332              -6.3085
        59                         -0.1064346              -2.8962
        60                         -0.0287970              -0.7836
        61                         -0.0112214              -0.3053
       ...                                ...                  ...
        98                          0.6503688              17.6974
      -------------------------------------------------------------
                  HL-Gap            0.1586626 Eh            4.3174 eV
             Fermi-level           -0.3123600 Eh           -8.4997 eV

 SCC (total)                   0 d,  0 h,  0 min,  0.082 sec
 SCC setup                      ...        0 min,  0.000 sec (  0.297%)
 Dispersion                     ...        0 min,  0.000 sec (  0.283%)
 classical contributions        ...        0 min,  0.000 sec (  0.140%)
 integral evaluation            ...        0 min,  0.006 sec (  7.804%)
 iterations                     ...        0 min,  0.005 sec (  6.067%)
 molecular gradient             ...        0 min,  0.070 sec ( 85.238%)
 printout                       ...        0 min,  0.000 sec (  0.162%)

         :::::::::::::::::::::::::::::::::::::::::::::::::::::
         ::                     SUMMARY                     ::
         :::::::::::::::::::::::::::::::::::::::::::::::::::::
         :: total energy             -65.470918042577 Eh    ::
         :: gradient norm              0.000552895178 Eh/a0 ::
         :: HOMO-LUMO gap              4.317428823635 eV    ::
         ::.................................................::
         :: SCC energy               -66.118272597575 Eh    ::
         :: -> isotropic ES            0.154174935437 Eh    ::
         :: -> anisotropic ES         -0.007260618699 Eh    ::
         :: -> anisotropic XC         -0.002779878575 Eh    ::
         :: -> dispersion             -0.037925094545 Eh    ::
         :: repulsion energy           0.647354554998 Eh    ::
         :: add. restraining           0.000000000000 Eh    ::
         :: total charge              -0.000000000000 e     ::
         :::::::::::::::::::::::::::::::::::::::::::::::::::::

           -------------------------------------------------
          |                Property Printout                |
           -------------------------------------------------

    * Orbital Energies and Occupations

         #    Occupation            Energy/Eh            Energy/eV
      -------------------------------------------------------------
         1        2.0000           -0.7339344             -19.9714
       ...           ...                  ...                  ...
        44        2.0000           -0.4636611             -12.6169
        45        2.0000           -0.4548491             -12.3771
        46        2.0000           -0.4516689             -12.2905
        47        2.0000           -0.4442130             -12.0877
        48        2.0000           -0.4422367             -12.0339
        49        2.0000           -0.4324117             -11.7665
        50        2.0000           -0.4282843             -11.6542
        51        2.0000           -0.4241560             -11.5419
        52        2.0000           -0.4193723             -11.4117
        53        2.0000           -0.4163130             -11.3285
        54        2.0000           -0.4107036             -11.1758
        55        2.0000           -0.4060170             -11.0483
        56        2.0000           -0.3916913             -10.6585 (HOMO)
        57                         -0.2330287              -6.3410 (LUMO)
        58                         -0.2318332              -6.3085
        59                         -0.1064346              -2.8962
        60                         -0.0287970              -0.7836
        61                         -0.0112214              -0.3053
        62                          0.0056230               0.1530
        63                          0.0248924               0.6774
        64                          0.0375559               1.0219
        65                          0.0647990               1.7633
        66                          0.0679642               1.8494
        67                          0.0780074               2.1227
       ...                                ...                  ...
        98                          0.6503688              17.6974
      -------------------------------------------------------------
                  HL-Gap            0.1586626 Eh            4.3174 eV
             Fermi-level           -0.3123600 Eh           -8.4997 eV

     #   Z          covCN         q      C6AA      α(0)
     1   8 O        1.656    -0.434    21.510     6.261
     2   6 C        3.676     0.075    19.541     6.334
     3   6 C        3.756     0.105    18.902     6.199
     4   8 O        1.702    -0.331    19.546     5.969
     5   6 C        3.668     0.250    16.969     5.907
     6   6 C        3.728     0.087    19.224     6.260
     7   6 C        3.731     0.099    19.034     6.227
     8   6 C        3.729     0.094    19.125     6.243
     9   8 O        1.656    -0.440    21.642     6.280
    10   8 O        1.656    -0.444    21.719     6.291
    11   8 O        1.656    -0.444    21.724     6.292
    12   8 O        1.705    -0.317    19.301     5.932
    13   6 C        2.885     0.131    25.131     8.219
    14   6 C        2.918    -0.050    29.254     8.869
    15   6 C        2.920    -0.032    28.794     8.800
    16   6 C        2.918    -0.033    28.828     8.805
    17   6 C        2.927    -0.031    28.765     8.795
    18   6 C        2.964    -0.010    28.262     8.720
    19   6 C        3.680     0.082    19.415     6.311
    20   8 O        1.655    -0.452    21.885     6.315
    21   1 H        0.805     0.306     0.703     1.317
    22   1 H        0.924     0.054     2.267     2.355
    23   1 H        0.924     0.044     2.395     2.420
    24   1 H        0.923     0.046     2.366     2.406
    25   1 H        0.921     0.001     3.041     2.727
    26   1 H        0.923     0.041     2.437     2.442
    27   1 H        0.923     0.033     2.547     2.496
    28   1 H        0.923     0.036     2.508     2.476
    29   1 H        0.805     0.322     0.658     1.274
    30   1 H        0.805     0.317     0.673     1.289
    31   1 H        0.805     0.313     0.685     1.300
    32   1 H        0.926     0.043     2.409     2.427
    33   1 H        0.926     0.043     2.411     2.428
    34   1 H        0.926     0.044     2.398     2.421
    35   1 H        0.926     0.057     2.235     2.338
    36   1 H        0.924     0.035     2.516     2.480
    37   1 H        0.924     0.047     2.358     2.402
    38   1 H        0.804     0.313     0.682     1.297

 Mol. C6AA /au·bohr⁶  :      14033.685561
 Mol. C8AA /au·bohr⁸  :     316371.623331
 Mol. α(0) /au        :        177.321883


Wiberg/Mayer (AO) data.
largest (>0.10) Wiberg bond orders for each atom

 ---------------------------------------------------------------------------
     #   Z sym  total        # sym  WBO       # sym  WBO       # sym  WBO
 ---------------------------------------------------------------------------
     1   8 O    1.969 --     2 C    1.001    21 H    0.892
     2   6 C    3.958 --     1 O    1.001     3 C    0.988    23 H    0.969
                            22 H    0.966
     3   6 C    3.946 --     2 C    0.988     8 C    0.968     4 O    0.966
                            24 H    0.954
     4   8 O    2.083 --     3 C    0.966     5 C    0.961
     5   6 C    3.932 --    12 O    0.988     4 O    0.961     6 C    0.951
                            25 H    0.943
     6   6 C    3.959 --    11 O    0.999     7 C    0.972    26 H    0.956
                             5 C    0.951
     7   6 C    3.962 --    10 O    0.999     6 C    0.972     8 C    0.970
                            27 H    0.955
     8   6 C    3.965 --     9 O    1.006     7 C    0.970     3 C    0.968
                            28 H    0.955
     9   8 O    1.957 --     8 C    1.006    29 H    0.878
    10   8 O    1.957 --     7 C    0.999    30 H    0.881
    11   8 O    1.958 --     6 C    0.999    31 H    0.883
    12   8 O    2.114 --     5 C    0.988    13 C    0.957
    13   6 C    3.923 --    14 C    1.403    18 C    1.383    12 O    0.957
                            16 C    0.103
    14   6 C    3.990 --    15 C    1.444    13 C    1.403    32 H    0.968
                            17 C    0.110
    15   6 C    3.991 --    14 C    1.444    16 C    1.432    33 H    0.970
                            18 C    0.109
    16   6 C    3.991 --    17 C    1.450    15 C    1.432    34 H    0.970
                            13 C    0.103
    17   6 C    3.989 --    16 C    1.450    18 C    1.411    35 H    0.967
                            14 C    0.110
    18   6 C    3.986 --    17 C    1.411    13 C    1.383    19 C    0.994
                            15 C    0.109
    19   6 C    3.964 --    20 O    1.001    18 C    0.994    36 H    0.967
                            37 H    0.964
    20   8 O    1.954 --    19 C    1.001    38 H    0.868
    21   1 H    0.906 --     1 O    0.892
    22   1 H    0.996 --     2 C    0.966
    23   1 H    0.998 --     2 C    0.969
    24   1 H    0.998 --     3 C    0.954
    25   1 H    1.000 --     5 C    0.943
    26   1 H    0.998 --     6 C    0.956
    27   1 H    0.999 --     7 C    0.955
    28   1 H    0.999 --     8 C    0.955
    29   1 H    0.896 --     9 O    0.878
    30   1 H    0.899 --    10 O    0.881
    31   1 H    0.902 --    11 O    0.883
    32   1 H    0.998 --    14 C    0.968
    33   1 H    0.998 --    15 C    0.970
    34   1 H    0.998 --    16 C    0.970
    35   1 H    0.997 --    17 C    0.967
    36   1 H    0.998 --    19 C    0.967
    37   1 H    0.998 --    19 C    0.964
    38   1 H    0.902 --    20 O    0.868
 ---------------------------------------------------------------------------

Topologies differ in total number of bonds
Writing topology from bond orders to xtbtopo.mol

molecular dipole:
                 x           y           z       tot (Debye)
 q only:        0.019       0.237       0.122
   full:       -0.061       0.614       0.101       1.590
molecular quadrupole (traceless):
                xx          xy          yy          xz          yz          zz
 q only:        3.035       4.111       2.389       4.087      -0.153      -5.424
  q+dip:       -1.888       3.775       2.818       7.106       3.196      -0.930
   full:       -0.761       5.072       3.642       5.513       1.005      -2.881

           -------------------------------------------------
          |                Geometry Summary                 |
           -------------------------------------------------

      molecular mass/u    :      286.2783346
   center of mass at/Å    :       -0.0209640       0.0733352       0.0604345
  moments of inertia/u·Å² :        0.9659330E+03   0.2055057E+04   0.2675605E+04
rotational constants/cm⁻¹ :        0.1745217E-01   0.8203000E-02   0.6300494E-02

 * 37 selected distances

     #   Z          #   Z                                           value/Å
     1   8 O        2   6 C                                       1.4093921
     2   6 C        3   6 C                                       1.5262413
     3   6 C        4   8 O                                       1.4105916
     4   8 O        5   6 C                                       1.4044735
     5   6 C        6   6 C                                       1.5351941 (max)
     6   6 C        7   6 C                                       1.5291281
     3   6 C        8   6 C                                       1.5348093
     7   6 C        8   6 C                                       1.5342355
     8   6 C        9   8 O                                       1.4009464
     7   6 C       10   8 O                                       1.4064138
     6   6 C       11   8 O                                       1.4055492
     5   6 C       12   8 O                                       1.3880923
    13   6 C       14   6 C                                       1.3885352
    14   6 C       15   6 C                                       1.3825131
    15   6 C       16   6 C                                       1.3847737
    16   6 C       17   6 C                                       1.3820548
    13   6 C       18   6 C                                       1.3921041
    17   6 C       18   6 C                                       1.3900350
    19   6 C       20   8 O                                       1.4076862
     1   8 O       21   1 H                                       0.9632254 (min)
     2   6 C       22   1 H                                       1.0962422
     2   6 C       23   1 H                                       1.0966702
     3   6 C       24   1 H                                       1.1006285
     5   6 C       25   1 H                                       1.1111947
     6   6 C       26   1 H                                       1.1010024
     7   6 C       27   1 H                                       1.1029918
     8   6 C       28   1 H                                       1.1025035
     9   8 O       29   1 H                                       0.9663428
    10   8 O       30   1 H                                       0.9648585
    11   8 O       31   1 H                                       0.9654300
    14   6 C       32   1 H                                       1.0805476
    15   6 C       33   1 H                                       1.0796564
    16   6 C       34   1 H                                       1.0795926
    17   6 C       35   1 H                                       1.0797003
    19   6 C       36   1 H                                       1.0966614
    19   6 C       37   1 H                                       1.0949175
    20   8 O       38   1 H                                       0.9702285

 * 4 distinct bonds (by element types)

   Z      Z             #   av. dist./Å        max./Å        min./Å
   1 H    6 C          13     1.0940238     1.1111947     1.0795926
   6 C    6 C          11     1.4526931     1.5351941     1.3820548
   1 H    8 O           5     0.9660170     0.9702285     0.9632254
   6 C    8 O           8     1.4041431     1.4105916     1.3880923


optimized geometry written to: xtbopt.xyz


           -------------------------------------------------
          | TOTAL ENERGY              -65.470918042577 Eh   |
          | GRADIENT NORM               0.000552895178 Eh/α |
          | HOMO-LUMO GAP               4.317428823635 eV   |
           -------------------------------------------------

------------------------------------------------------------------------
 * finished run on 2025/05/15 at 16:11:18.191     
------------------------------------------------------------------------
 total:
 * wall-time:     0 d,  0 h,  0 min,  1.119 sec
 *  cpu-time:     0 d,  0 h,  0 min,  0.658 sec
 * ratio c/w:     0.588 speedup
 SCF:
 * wall-time:     0 d,  0 h,  0 min,  0.048 sec
 *  cpu-time:     0 d,  0 h,  0 min,  0.047 sec
 * ratio c/w:     0.995 speedup
 ANC optimizer:
 * wall-time:     0 d,  0 h,  0 min,  1.054 sec
 *  cpu-time:     0 d,  0 h,  0 min,  0.599 sec
 * ratio c/w:     0.568 speedup



----- Single-point -----
      -----------------------------------------------------------      
     |                   =====================                   |     
     |                           x T B                           |     
     |                   =====================                   |     
     |                         S. Grimme                         |     
     |          Mulliken Center for Theoretical Chemistry        |     
     |                    University of Bonn                     |     
      -----------------------------------------------------------      

   * xtb version 6.7.1 (edcfbbe) compiled by 'conda@3ef47c1a292c' on 2024-11-25

   xtb is free software: you can redistribute it and/or modify it under
   the terms of the GNU Lesser General Public License as published by
   the Free Software Foundation, either version 3 of the License, or
   (at your option) any later version.
   
   xtb is distributed in the hope that it will be useful,
   but WITHOUT ANY WARRANTY; without even the implied warranty of
   MERCHANTABILITY or FITNESS FOR A PARTICULAR PURPOSE.  See the
   GNU Lesser General Public License for more details.
   
   Cite this work as:
   * C. Bannwarth, E. Caldeweyher, S. Ehlert, A. Hansen, P. Pracht,
     J. Seibert, S. Spicher, S. Grimme, WIREs Comput. Mol. Sci., 2020, 11,
     e01493. DOI: 10.1002/wcms.1493
   
   for GFN2-xTB:
   * C. Bannwarth, S. Ehlert and S. Grimme., J. Chem. Theory Comput., 2019,
     15, 1652-1671. DOI: 10.1021/acs.jctc.8b01176
   for GFN1-xTB:
   * S. Grimme, C. Bannwarth, P. Shushkov, J. Chem. Theory Comput., 2017,
     13, 1989-2009. DOI: 10.1021/acs.jctc.7b00118
   for GFN0-xTB:
   * P. Pracht, E. Caldeweyher, S. Ehlert, S. Grimme, ChemRxiv, 2019, preprint.
     DOI: 10.26434/chemrxiv.8326202.v1
   for GFN-FF:
   * S. Spicher and S. Grimme, Angew. Chem. Int. Ed., 2020, 59, 15665-15673.
     DOI: 10.1002/anie.202004239
   
   for ALPB and GBSA implicit solvation:
   * S. Ehlert, M. Stahn, S. Spicher, S. Grimme, J. Chem. Theory Comput.,
     2021, 17, 4250-4261. DOI: 10.1021/acs.jctc.1c00471
   
   for ddCOSMO and CPCM-X implicit solvation:
   * M. Stahn, S. Ehlert, S. Grimme, J. Phys. Chem. A,
     2023, XX, XXXX-XXXX. DOI: 10.1021/acs.jpca.3c04382
   
   for DFT-D4:
   * E. Caldeweyher, C. Bannwarth and S. Grimme, J. Chem. Phys., 2017,
     147, 034112. DOI: 10.1063/1.4993215
   * E. Caldeweyher, S. Ehlert, A. Hansen, H. Neugebauer, S. Spicher,
     C. Bannwarth and S. Grimme, J. Chem. Phys., 2019, 150, 154122.
     DOI: 10.1063/1.5090222
   * E. Caldeweyher, J.-M. Mewes, S. Ehlert and S. Grimme, Phys. Chem. Chem. Phys.
     2020, 22, 8499-8512. DOI: 10.1039/D0CP00502A
   
   for sTDA-xTB:
   * S. Grimme and C. Bannwarth, J. Chem. Phys., 2016, 145, 054103.
     DOI: 10.1063/1.4959605
   
   in the mass-spec context:
   * V. Asgeirsson, C. Bauer and S. Grimme, Chem. Sci., 2017, 8, 4879.
     DOI: 10.1039/c7sc00601b
   * J. Koopman and S. Grimme, ACS Omega 2019, 4, 12, 15120-15133.
     DOI: 10.1021/acsomega.9b02011
   
   for metadynamics refer to:
   * S. Grimme, J. Chem. Theory Comput., 2019, 155, 2847-2862
     DOI: 10.1021/acs.jctc.9b00143
   
   for SPH calculations refer to:
   * S. Spicher and S. Grimme, J. Chem. Theory Comput., 2021, 17, 1701-1714
     DOI: 10.1021/acs.jctc.0c01306
   
   for ONIOM refer to:
   * C. Plett, A. Katbashev, S. Ehlert, S. Grimme, M. Bursch,
     Phys. Chem. Chem. Phys., 2023, 25, 17860-17868. DOI: 10.1039/D3CP02178E
   
   for DIPRO refer to:
   * J. Kohn, N. Gildemeister, S. Grimme, D. Fazzi, A. Hansen,
     J. Chem. Phys., 2023, just accepted.
   
   for PTB refer to:
   * S. Grimme, M. Mueller, A. Hansen, J. Chem. Phys., 2023, 158, 124111.
     DOI: 10.1063/5.0137838
   
   with help from (in alphabetical order)
   P. Atkinson, C. Bannwarth, F. Bohle, G. Brandenburg, E. Caldeweyher
   M. Checinski, S. Dohm, S. Ehlert, S. Ehrlich, I. Gerasimov, C. Hölzer
   A. Katbashev, J. Kohn, J. Koopman, C. Lavigne, S. Lehtola, F. März, M. Müller,
   F. Musil, H. Neugebauer, J. Pisarek, C. Plett, P. Pracht, F. Pultar,
   J. Seibert, P. Shushkov, S. Spicher, M. Stahn, M. Steiner, T. Strunk,
   J. Stückrath, T. Rose, and J. Unsleber
   
 * started run on 2025/05/15 at 16:11:18.222     
   ID    Z sym.   atoms
    1    8 O      1, 4, 9-12, 20
    2    6 C      2, 3, 5-8, 13-19
    3    1 H      21-38

           -------------------------------------------------
          |                Calculation Setup                |
           -------------------------------------------------

          program call               : xtb /rds/general/user/hgt20/home/callum/QDESCP/Salicin_rdkit_conf_13/Salicin_rdkit_conf_13.xyz --acc 1 --gfn 2 --chrg 0 --uhf 0 --etemp 300 --input /rds/general/user/hgt20/home/callum/QDESCP/Salicin_rdkit_conf_13/Salicin_rdkit_conf_13_xtb.inp -P 1
          hostname                   : login-c
          coordinate file            : /rds/general/user/hgt20/home/callum/QDESCP/Salicin_rdkit_conf_13/Salicin_rdkit_conf_13.xyz
          omp threads                :                     1


           -------------------------------------------------
          |                 G F N 2 - x T B                 |
           -------------------------------------------------

        Reference                      10.1021/acs.jctc.8b01176
      * Hamiltonian:
        H0-scaling (s, p, d)           1.850000    2.230000    2.230000
        zeta-weighting                 0.500000
      * Dispersion:
        s8                             2.700000
        a1                             0.520000
        a2                             5.000000
        s9                             5.000000
      * Repulsion:
        kExp                           1.500000    1.000000
        rExp                           1.000000
      * Coulomb:
        alpha                          2.000000
        third order                    shell-resolved
        anisotropic                    true
        a3                             3.000000
        a5                             4.000000
        cn-shift                       1.200000
        cn-exp                         4.000000
        max-rad                        5.000000

q/qsh data taken from xtbrestart
CAMM data taken from xtbrestart

          ...................................................
          :                      SETUP                      :
          :.................................................:
          :  # basis functions                  98          :
          :  # atomic orbitals                  98          :
          :  # shells                           58          :
          :  # electrons                       112          :
          :  max. iterations                   250          :
          :  Hamiltonian                  GFN2-xTB          :
          :  restarted?                       true          :
          :  GBSA solvation                  false          :
          :  PC potential                    false          :
          :  electronic temp.          300.0000000     K    :
          :  accuracy                    1.0000000          :
          :  -> integral cutoff          0.2500000E+02      :
          :  -> integral neglect         0.1000000E-07      :
          :  -> SCF convergence          0.1000000E-05 Eh   :
          :  -> wf. convergence          0.1000000E-03 e    :
          :  Broyden damping             0.4000000          :
          :  net charge                          0          :
          :  unpaired electrons                  0          :
          ...................................................

 iter      E             dE          RMSdq      gap      omega  full diag
   1    -66.1188627 -0.661189E+02  0.532E-06    4.32       0.0  T
   2    -66.1188627 -0.113687E-12  0.325E-06    4.32    4985.6  T
   3    -66.1188627 -0.142109E-12  0.206E-06    4.32    7886.2  T

   *** convergence criteria satisfied after 3 iterations ***

         #    Occupation            Energy/Eh            Energy/eV
      -------------------------------------------------------------
         1        2.0000           -0.7339344             -19.9714
       ...           ...                  ...                  ...
        50        2.0000           -0.4282842             -11.6542
        51        2.0000           -0.4241559             -11.5419
        52        2.0000           -0.4193722             -11.4117
        53        2.0000           -0.4163130             -11.3285
        54        2.0000           -0.4107036             -11.1758
        55        2.0000           -0.4060170             -11.0483
        56        2.0000           -0.3916913             -10.6585 (HOMO)
        57                         -0.2330288              -6.3410 (LUMO)
        58                         -0.2318331              -6.3085
        59                         -0.1064346              -2.8962
        60                         -0.0287970              -0.7836
        61                         -0.0112213              -0.3053
       ...                                ...                  ...
        98                          0.6503687              17.6974
      -------------------------------------------------------------
                  HL-Gap            0.1586624 Eh            4.3174 eV
             Fermi-level           -0.3123600 Eh           -8.4997 eV

 SCC (total)                   0 d,  0 h,  0 min,  0.076 sec
 SCC setup                      ...        0 min,  0.000 sec (  0.403%)
 Dispersion                     ...        0 min,  0.000 sec (  0.472%)
 classical contributions        ...        0 min,  0.000 sec (  0.158%)
 integral evaluation            ...        0 min,  0.007 sec (  8.749%)
 iterations                     ...        0 min,  0.047 sec ( 62.786%)
 molecular gradient             ...        0 min,  0.021 sec ( 27.189%)
 printout                       ...        0 min,  0.000 sec (  0.234%)

         :::::::::::::::::::::::::::::::::::::::::::::::::::::
         ::                     SUMMARY                     ::
         :::::::::::::::::::::::::::::::::::::::::::::::::::::
         :: total energy             -65.470918042584 Eh    ::
         :: gradient norm              0.000552697944 Eh/a0 ::
         :: HOMO-LUMO gap              4.317424237598 eV    ::
         ::.................................................::
         :: SCC energy               -66.118272597582 Eh    ::
         :: -> isotropic ES            0.154174876339 Eh    ::
         :: -> anisotropic ES         -0.007260573787 Eh    ::
         :: -> anisotropic XC         -0.002779866644 Eh    ::
         :: -> dispersion             -0.037925092360 Eh    ::
         :: repulsion energy           0.647354554998 Eh    ::
         :: add. restraining           0.000000000000 Eh    ::
         :: total charge              -0.000000000000 e     ::
         :::::::::::::::::::::::::::::::::::::::::::::::::::::

           -------------------------------------------------
          |                Property Printout                |
           -------------------------------------------------

    * Orbital Energies and Occupations

         #    Occupation            Energy/Eh            Energy/eV
      -------------------------------------------------------------
         1        2.0000           -0.7339344             -19.9714
       ...           ...                  ...                  ...
        44        2.0000           -0.4636610             -12.6169
        45        2.0000           -0.4548491             -12.3771
        46        2.0000           -0.4516688             -12.2905
        47        2.0000           -0.4442130             -12.0877
        48        2.0000           -0.4422366             -12.0339
        49        2.0000           -0.4324116             -11.7665
        50        2.0000           -0.4282842             -11.6542
        51        2.0000           -0.4241559             -11.5419
        52        2.0000           -0.4193722             -11.4117
        53        2.0000           -0.4163130             -11.3285
        54        2.0000           -0.4107036             -11.1758
        55        2.0000           -0.4060170             -11.0483
        56        2.0000           -0.3916913             -10.6585 (HOMO)
        57                         -0.2330288              -6.3410 (LUMO)
        58                         -0.2318331              -6.3085
        59                         -0.1064346              -2.8962
        60                         -0.0287970              -0.7836
        61                         -0.0112213              -0.3053
        62                          0.0056232               0.1530
        63                          0.0248925               0.6774
        64                          0.0375560               1.0220
        65                          0.0647990               1.7633
        66                          0.0679643               1.8494
        67                          0.0780075               2.1227
       ...                                ...                  ...
        98                          0.6503687              17.6974
      -------------------------------------------------------------
                  HL-Gap            0.1586624 Eh            4.3174 eV
             Fermi-level           -0.3123600 Eh           -8.4997 eV

     #   Z          covCN         q      C6AA      α(0)
     1   8 O        1.656    -0.434    21.510     6.261
     2   6 C        3.676     0.075    19.541     6.334
     3   6 C        3.756     0.105    18.902     6.199
     4   8 O        1.702    -0.331    19.546     5.969
     5   6 C        3.668     0.250    16.969     5.907
     6   6 C        3.728     0.087    19.224     6.260
     7   6 C        3.731     0.099    19.034     6.227
     8   6 C        3.729     0.094    19.125     6.243
     9   8 O        1.656    -0.440    21.642     6.280
    10   8 O        1.656    -0.444    21.719     6.291
    11   8 O        1.656    -0.444    21.724     6.292
    12   8 O        1.705    -0.317    19.301     5.932
    13   6 C        2.885     0.131    25.131     8.219
    14   6 C        2.918    -0.050    29.254     8.869
    15   6 C        2.920    -0.032    28.794     8.800
    16   6 C        2.918    -0.033    28.828     8.805
    17   6 C        2.927    -0.031    28.765     8.795
    18   6 C        2.964    -0.010    28.262     8.720
    19   6 C        3.680     0.082    19.415     6.311
    20   8 O        1.655    -0.452    21.885     6.315
    21   1 H        0.805     0.306     0.703     1.317
    22   1 H        0.924     0.054     2.267     2.355
    23   1 H        0.924     0.044     2.395     2.420
    24   1 H        0.923     0.046     2.366     2.406
    25   1 H        0.921     0.001     3.041     2.727
    26   1 H        0.923     0.041     2.437     2.442
    27   1 H        0.923     0.033     2.547     2.496
    28   1 H        0.923     0.036     2.508     2.476
    29   1 H        0.805     0.322     0.658     1.274
    30   1 H        0.805     0.317     0.673     1.289
    31   1 H        0.805     0.313     0.685     1.300
    32   1 H        0.926     0.043     2.409     2.427
    33   1 H        0.926     0.043     2.411     2.428
    34   1 H        0.926     0.044     2.398     2.421
    35   1 H        0.926     0.057     2.235     2.338
    36   1 H        0.924     0.035     2.516     2.480
    37   1 H        0.924     0.047     2.358     2.402
    38   1 H        0.804     0.313     0.682     1.297

 Mol. C6AA /au·bohr⁶  :      14033.685581
 Mol. C8AA /au·bohr⁸  :     316371.618573
 Mol. α(0) /au        :        177.321884


Wiberg/Mayer (AO) data.
largest (>0.10) Wiberg bond orders for each atom

 ---------------------------------------------------------------------------
     #   Z sym  total        # sym  WBO       # sym  WBO       # sym  WBO
 ---------------------------------------------------------------------------
     1   8 O    1.969 --     2 C    1.001    21 H    0.892
     2   6 C    3.958 --     1 O    1.001     3 C    0.988    23 H    0.969
                            22 H    0.966
     3   6 C    3.946 --     2 C    0.988     8 C    0.968     4 O    0.966
                            24 H    0.954
     4   8 O    2.083 --     3 C    0.966     5 C    0.961
     5   6 C    3.932 --    12 O    0.988     4 O    0.961     6 C    0.951
                            25 H    0.943
     6   6 C    3.959 --    11 O    0.999     7 C    0.972    26 H    0.956
                             5 C    0.951
     7   6 C    3.962 --    10 O    0.999     6 C    0.972     8 C    0.970
                            27 H    0.955
     8   6 C    3.965 --     9 O    1.006     7 C    0.970     3 C    0.968
                            28 H    0.955
     9   8 O    1.957 --     8 C    1.006    29 H    0.878
    10   8 O    1.957 --     7 C    0.999    30 H    0.881
    11   8 O    1.958 --     6 C    0.999    31 H    0.883
    12   8 O    2.114 --     5 C    0.988    13 C    0.957
    13   6 C    3.923 --    14 C    1.403    18 C    1.383    12 O    0.957
                            16 C    0.103
    14   6 C    3.990 --    15 C    1.444    13 C    1.403    32 H    0.968
                            17 C    0.110
    15   6 C    3.991 --    14 C    1.444    16 C    1.432    33 H    0.970
                            18 C    0.109
    16   6 C    3.991 --    17 C    1.450    15 C    1.432    34 H    0.970
                            13 C    0.103
    17   6 C    3.989 --    16 C    1.450    18 C    1.411    35 H    0.967
                            14 C    0.110
    18   6 C    3.986 --    17 C    1.411    13 C    1.383    19 C    0.994
                            15 C    0.109
    19   6 C    3.964 --    20 O    1.001    18 C    0.994    36 H    0.967
                            37 H    0.964
    20   8 O    1.954 --    19 C    1.001    38 H    0.868
    21   1 H    0.906 --     1 O    0.892
    22   1 H    0.996 --     2 C    0.966
    23   1 H    0.998 --     2 C    0.969
    24   1 H    0.998 --     3 C    0.954
    25   1 H    1.000 --     5 C    0.943
    26   1 H    0.998 --     6 C    0.956
    27   1 H    0.999 --     7 C    0.955
    28   1 H    0.999 --     8 C    0.955
    29   1 H    0.896 --     9 O    0.878
    30   1 H    0.899 --    10 O    0.881
    31   1 H    0.902 --    11 O    0.883
    32   1 H    0.998 --    14 C    0.968
    33   1 H    0.998 --    15 C    0.970
    34   1 H    0.998 --    16 C    0.970
    35   1 H    0.997 --    17 C    0.967
    36   1 H    0.998 --    19 C    0.967
    37   1 H    0.998 --    19 C    0.964
    38   1 H    0.902 --    20 O    0.868
 ---------------------------------------------------------------------------

Topologies differ in total number of bonds
Writing topology from bond orders to xtbtopo.mol

molecular dipole:
                 x           y           z       tot (Debye)
 q only:        0.019       0.237       0.122
   full:       -0.061       0.614       0.101       1.590
molecular quadrupole (traceless):
                xx          xy          yy          xz          yz          zz
 q only:        3.035       4.111       2.389       4.087      -0.153      -5.424
  q+dip:       -1.888       3.775       2.818       7.106       3.196      -0.930
   full:       -0.761       5.072       3.642       5.513       1.005      -2.881


           -------------------------------------------------
          | TOTAL ENERGY              -65.470918042584 Eh   |
          | GRADIENT NORM               0.000552697944 Eh/α |
          | HOMO-LUMO GAP               4.317424237598 eV   |
           -------------------------------------------------

------------------------------------------------------------------------
 * finished run on 2025/05/15 at 16:11:18.311     
------------------------------------------------------------------------
 total:
 * wall-time:     0 d,  0 h,  0 min,  0.089 sec
 *  cpu-time:     0 d,  0 h,  0 min,  0.046 sec
 * ratio c/w:     0.516 speedup
 SCF:
 * wall-time:     0 d,  0 h,  0 min,  0.076 sec
 *  cpu-time:     0 d,  0 h,  0 min,  0.034 sec
 * ratio c/w:     0.455 speedup



----- FOD -----
      -----------------------------------------------------------      
     |                   =====================                   |     
     |                           x T B                           |     
     |                   =====================                   |     
     |                         S. Grimme                         |     
     |          Mulliken Center for Theoretical Chemistry        |     
     |                    University of Bonn                     |     
      -----------------------------------------------------------      

   * xtb version 6.7.1 (edcfbbe) compiled by 'conda@3ef47c1a292c' on 2024-11-25

   xtb is free software: you can redistribute it and/or modify it under
   the terms of the GNU Lesser General Public License as published by
   the Free Software Foundation, either version 3 of the License, or
   (at your option) any later version.
   
   xtb is distributed in the hope that it will be useful,
   but WITHOUT ANY WARRANTY; without even the implied warranty of
   MERCHANTABILITY or FITNESS FOR A PARTICULAR PURPOSE.  See the
   GNU Lesser General Public License for more details.
   
   Cite this work as:
   * C. Bannwarth, E. Caldeweyher, S. Ehlert, A. Hansen, P. Pracht,
     J. Seibert, S. Spicher, S. Grimme, WIREs Comput. Mol. Sci., 2020, 11,
     e01493. DOI: 10.1002/wcms.1493
   
   for GFN2-xTB:
   * C. Bannwarth, S. Ehlert and S. Grimme., J. Chem. Theory Comput., 2019,
     15, 1652-1671. DOI: 10.1021/acs.jctc.8b01176
   for GFN1-xTB:
   * S. Grimme, C. Bannwarth, P. Shushkov, J. Chem. Theory Comput., 2017,
     13, 1989-2009. DOI: 10.1021/acs.jctc.7b00118
   for GFN0-xTB:
   * P. Pracht, E. Caldeweyher, S. Ehlert, S. Grimme, ChemRxiv, 2019, preprint.
     DOI: 10.26434/chemrxiv.8326202.v1
   for GFN-FF:
   * S. Spicher and S. Grimme, Angew. Chem. Int. Ed., 2020, 59, 15665-15673.
     DOI: 10.1002/anie.202004239
   
   for ALPB and GBSA implicit solvation:
   * S. Ehlert, M. Stahn, S. Spicher, S. Grimme, J. Chem. Theory Comput.,
     2021, 17, 4250-4261. DOI: 10.1021/acs.jctc.1c00471
   
   for ddCOSMO and CPCM-X implicit solvation:
   * M. Stahn, S. Ehlert, S. Grimme, J. Phys. Chem. A,
     2023, XX, XXXX-XXXX. DOI: 10.1021/acs.jpca.3c04382
   
   for DFT-D4:
   * E. Caldeweyher, C. Bannwarth and S. Grimme, J. Chem. Phys., 2017,
     147, 034112. DOI: 10.1063/1.4993215
   * E. Caldeweyher, S. Ehlert, A. Hansen, H. Neugebauer, S. Spicher,
     C. Bannwarth and S. Grimme, J. Chem. Phys., 2019, 150, 154122.
[...]
   
   Cite this work as:
   * C. Bannwarth, E. Caldeweyher, S. Ehlert, A. Hansen, P. Pracht,
     J. Seibert, S. Spicher, S. Grimme, WIREs Comput. Mol. Sci., 2020, 11,
     e01493. DOI: 10.1002/wcms.1493
   
   for GFN2-xTB:
   * C. Bannwarth, S. Ehlert and S. Grimme., J. Chem. Theory Comput., 2019,
     15, 1652-1671. DOI: 10.1021/acs.jctc.8b01176
   for GFN1-xTB:
   * S. Grimme, C. Bannwarth, P. Shushkov, J. Chem. Theory Comput., 2017,
     13, 1989-2009. DOI: 10.1021/acs.jctc.7b00118
   for GFN0-xTB:
   * P. Pracht, E. Caldeweyher, S. Ehlert, S. Grimme, ChemRxiv, 2019, preprint.
     DOI: 10.26434/chemrxiv.8326202.v1
   for GFN-FF:
   * S. Spicher and S. Grimme, Angew. Chem. Int. Ed., 2020, 59, 15665-15673.
     DOI: 10.1002/anie.202004239
   
   for ALPB and GBSA implicit solvation:
   * S. Ehlert, M. Stahn, S. Spicher, S. Grimme, J. Chem. Theory Comput.,
     2021, 17, 4250-4261. DOI: 10.1021/acs.jctc.1c00471
   
   for ddCOSMO and CPCM-X implicit solvation:
   * M. Stahn, S. Ehlert, S. Grimme, J. Phys. Chem. A,
     2023, XX, XXXX-XXXX. DOI: 10.1021/acs.jpca.3c04382
   
   for DFT-D4:
   * E. Caldeweyher, C. Bannwarth and S. Grimme, J. Chem. Phys., 2017,
     147, 034112. DOI: 10.1063/1.4993215
   * E. Caldeweyher, S. Ehlert, A. Hansen, H. Neugebauer, S. Spicher,
     C. Bannwarth and S. Grimme, J. Chem. Phys., 2019, 150, 154122.
     DOI: 10.1063/1.5090222
   * E. Caldeweyher, J.-M. Mewes, S. Ehlert and S. Grimme, Phys. Chem. Chem. Phys.
     2020, 22, 8499-8512. DOI: 10.1039/D0CP00502A
   
   for sTDA-xTB:
   * S. Grimme and C. Bannwarth, J. Chem. Phys., 2016, 145, 054103.
     DOI: 10.1063/1.4959605
   
   in the mass-spec context:
   * V. Asgeirsson, C. Bauer and S. Grimme, Chem. Sci., 2017, 8, 4879.
     DOI: 10.1039/c7sc00601b
   * J. Koopman and S. Grimme, ACS Omega 2019, 4, 12, 15120-15133.
     DOI: 10.1021/acsomega.9b02011
   
   for metadynamics refer to:
   * S. Grimme, J. Chem. Theory Comput., 2019, 155, 2847-2862
     DOI: 10.1021/acs.jctc.9b00143
   
   for SPH calculations refer to:
   * S. Spicher and S. Grimme, J. Chem. Theory Comput., 2021, 17, 1701-1714
     DOI: 10.1021/acs.jctc.0c01306
   
   for ONIOM refer to:
   * C. Plett, A. Katbashev, S. Ehlert, S. Grimme, M. Bursch,
     Phys. Chem. Chem. Phys., 2023, 25, 17860-17868. DOI: 10.1039/D3CP02178E
   
   for DIPRO refer to:
   * J. Kohn, N. Gildemeister, S. Grimme, D. Fazzi, A. Hansen,
     J. Chem. Phys., 2023, just accepted.
   
   for PTB refer to:
   * S. Grimme, M. Mueller, A. Hansen, J. Chem. Phys., 2023, 158, 124111.
     DOI: 10.1063/5.0137838
   
   with help from (in alphabetical order)
   P. Atkinson, C. Bannwarth, F. Bohle, G. Brandenburg, E. Caldeweyher
   M. Checinski, S. Dohm, S. Ehlert, S. Ehrlich, I. Gerasimov, C. Hölzer
   A. Katbashev, J. Kohn, J. Koopman, C. Lavigne, S. Lehtola, F. März, M. Müller,
   F. Musil, H. Neugebauer, J. Pisarek, C. Plett, P. Pracht, F. Pultar,
   J. Seibert, P. Shushkov, S. Spicher, M. Stahn, M. Steiner, T. Strunk,
   J. Stückrath, T. Rose, and J. Unsleber
   
 * started run on 2025/05/15 at 16:11:20.507     
   ID    Z sym.   atoms
    1    8 O      1, 4, 9-12, 20
    2    6 C      2, 3, 5-8, 13-19
    3    1 H      21-38

           -------------------------------------------------
          |                Calculation Setup                |
           -------------------------------------------------

          program call               : xtb /rds/general/user/hgt20/home/callum/QDESCP/Salicin_rdkit_conf_13/Salicin_rdkit_conf_13.xyz --acc 1 --gfn 2 --chrg 0 --uhf 2 --etemp 300 --input /rds/general/user/hgt20/home/callum/QDESCP/Salicin_rdkit_conf_13/Salicin_rdkit_conf_13_xtb.inp -P 1
          hostname                   : login-c
          coordinate file            : /rds/general/user/hgt20/home/callum/QDESCP/Salicin_rdkit_conf_13/Salicin_rdkit_conf_13.xyz
          omp threads                :                     1


           -------------------------------------------------
          |                 G F N 2 - x T B                 |
           -------------------------------------------------

        Reference                      10.1021/acs.jctc.8b01176
      * Hamiltonian:
        H0-scaling (s, p, d)           1.850000    2.230000    2.230000
        zeta-weighting                 0.500000
      * Dispersion:
        s8                             2.700000
        a1                             0.520000
        a2                             5.000000
        s9                             5.000000
      * Repulsion:
        kExp                           1.500000    1.000000
        rExp                           1.000000
      * Coulomb:
        alpha                          2.000000
        third order                    shell-resolved
        anisotropic                    true
        a3                             3.000000
        a5                             4.000000
        cn-shift                       1.200000
        cn-exp                         4.000000
        max-rad                        5.000000


          ...................................................
          :                      SETUP                      :
          :.................................................:
          :  # basis functions                  98          :
          :  # atomic orbitals                  98          :
          :  # shells                           58          :
          :  # electrons                       112          :
          :  max. iterations                   250          :
          :  Hamiltonian                  GFN2-xTB          :
          :  restarted?                      false          :
          :  GBSA solvation                  false          :
          :  PC potential                    false          :
          :  electronic temp.          300.0000000     K    :
          :  accuracy                    1.0000000          :
          :  -> integral cutoff          0.2500000E+02      :
          :  -> integral neglect         0.1000000E-07      :
          :  -> SCF convergence          0.1000000E-05 Eh   :
          :  -> wf. convergence          0.1000000E-03 e    :
          :  Broyden damping             0.4000000          :
          :  net charge                          0          :
          :  unpaired electrons                  2          :
          ...................................................

 iter      E             dE          RMSdq      gap      omega  full diag
   1    -65.8169060 -0.658169E+02  0.435E+00    0.18       0.0  T
   2    -65.7939859  0.229201E-01  0.342E+00    0.65       1.0  T
   3    -65.8055558 -0.115699E-01  0.262E+00    0.74       1.0  T
   4    -65.8070614 -0.150559E-02  0.151E+00    0.09       1.0  T
   5    -65.9230641 -0.116003E+00  0.928E-01    0.06       1.0  T
   6    -65.9074175  0.156466E-01  0.113E+00    0.18       1.0  T
   7    -65.9427988 -0.353813E-01  0.462E-01    0.03       1.0  T
   8    -65.9443373 -0.153852E-02  0.354E-01    0.07       1.0  T
   9    -65.9478702 -0.353287E-02  0.179E-01    0.05       1.0  T
  10    -65.9479317 -0.615558E-04  0.147E-01    0.06       1.0  T
  11    -65.9469264  0.100536E-02  0.231E-01    0.05       1.0  T
  12    -65.9484367 -0.151035E-02  0.349E-02    0.05       1.0  T
  13    -65.9484987 -0.619486E-04  0.644E-03    0.05       2.5  T
  14    -65.9484973  0.135097E-05  0.795E-03    0.05       2.0  T
  15    -65.9484989 -0.162456E-05  0.382E-03    0.05       4.3  T
  16    -65.9484993 -0.364584E-06  0.161E-03    0.05      10.1  T
  17    -65.9484994 -0.779415E-07  0.371E-04    0.05      43.7  T
  18    -65.9484994 -0.285941E-08  0.153E-04    0.05     106.3  T

   *** convergence criteria satisfied after 18 iterations ***

         #    Occupation            Energy/Eh            Energy/eV
      -------------------------------------------------------------
         1        2.0000           -0.7361863             -20.0326
       ...           ...                  ...                  ...
        51        2.0000           -0.4261661             -11.5966
        52        2.0000           -0.4220412             -11.4843
        53        2.0000           -0.4168961             -11.3443
        54        1.9975           -0.4039219             -10.9913
        55        1.7535           -0.3993066             -10.8657
        56        1.2491           -0.3971966             -10.8083
        57        0.7209           -0.2236514              -6.0859 (HOMO)
        58        0.2791           -0.2218484              -6.0368 (LUMO)
        59                         -0.0968425              -2.6352
        60                         -0.0312475              -0.8503
        61                         -0.0110282              -0.3001
        62                          0.0029540               0.0804
       ...                                ...                  ...
        98                          0.6596560              17.9502
      -------------------------------------------------------------
                  HL-Gap            0.0018030 Eh            0.0491 eV
             Fermi-level           -0.3104975 Eh           -8.4491 eV

 transition dipole moment (au) for excitation:          56          57
     X       Y       Z   
  -0.2557  -0.9714  -0.8965  total (au/Debye):    1.346   3.422
 dE (eV)             :    4.722
 oscillator strength :  0.29657E+00

 SCC (total)                   0 d,  0 h,  0 min,  0.106 sec
 SCC setup                      ...        0 min,  0.000 sec (  0.293%)
 Dispersion                     ...        0 min,  0.000 sec (  0.352%)
 classical contributions        ...        0 min,  0.000 sec (  0.113%)
 integral evaluation            ...        0 min,  0.007 sec (  6.231%)
 iterations                     ...        0 min,  0.074 sec ( 69.600%)
 molecular gradient             ...        0 min,  0.019 sec ( 17.712%)
 printout                       ...        0 min,  0.006 sec (  5.692%)

         :::::::::::::::::::::::::::::::::::::::::::::::::::::
         ::                     SUMMARY                     ::
         :::::::::::::::::::::::::::::::::::::::::::::::::::::
         :: total energy             -65.300554715828 Eh    ::
         :: gradient norm              0.110051136909 Eh/a0 ::
         :: HOMO-LUMO gap              0.049062890558 eV    ::
         ::.................................................::
         :: SCC energy               -65.947909270827 Eh    ::
         :: -> isotropic ES            0.149346579496 Eh    ::
         :: -> anisotropic ES         -0.006738973555 Eh    ::
         :: -> anisotropic XC         -0.003210348697 Eh    ::
         :: -> dispersion             -0.037893058169 Eh    ::
         :: repulsion energy           0.647354554998 Eh    ::
         :: add. restraining           0.000000000000 Eh    ::
         :: total charge              -0.000000000000 e     ::
         :::::::::::::::::::::::::::::::::::::::::::::::::::::

           -------------------------------------------------
          |                Property Printout                |
           -------------------------------------------------

    * Orbital Energies and Occupations

         #    Occupation            Energy/Eh            Energy/eV
      -------------------------------------------------------------
         1        2.0000           -0.7361863             -20.0326
       ...           ...                  ...                  ...
        45        2.0000           -0.4546017             -12.3703
        46        2.0000           -0.4529675             -12.3259
        47        2.0000           -0.4481834             -12.1957
        48        2.0000           -0.4396542             -11.9636
        49        2.0000           -0.4336187             -11.7994
        50        2.0000           -0.4313811             -11.7385
        51        2.0000           -0.4261661             -11.5966
        52        2.0000           -0.4220412             -11.4843
        53        2.0000           -0.4168961             -11.3443
        54        1.9975           -0.4039219             -10.9913
        55        1.7535           -0.3993066             -10.8657
        56        1.2491           -0.3971966             -10.8083
        57        0.7209           -0.2236514              -6.0859 (HOMO)
        58        0.2791           -0.2218484              -6.0368 (LUMO)
        59                         -0.0968425              -2.6352
        60                         -0.0312475              -0.8503
        61                         -0.0110282              -0.3001
        62                          0.0029540               0.0804
        63                          0.0220423               0.5998
        64                          0.0365348               0.9942
        65                          0.0630146               1.7147
        66                          0.0663605               1.8058
        67                          0.0762819               2.0757
        68                          0.0854604               2.3255
       ...                                ...                  ...
        98                          0.6596560              17.9502
      -------------------------------------------------------------
                  HL-Gap            0.0018030 Eh            0.0491 eV
             Fermi-level           -0.3104975 Eh           -8.4491 eV

     #   Z          covCN         q      C6AA      α(0)
     1   8 O        1.656    -0.434    21.513     6.261
     2   6 C        3.676     0.075    19.550     6.335
     3   6 C        3.756     0.105    18.912     6.200
     4   8 O        1.702    -0.332    19.565     5.972
     5   6 C        3.668     0.248    16.993     5.911
     6   6 C        3.728     0.087    19.228     6.260
     7   6 C        3.731     0.099    19.038     6.228
     8   6 C        3.729     0.094    19.124     6.243
     9   8 O        1.656    -0.440    21.640     6.280
    10   8 O        1.656    -0.444    21.715     6.291
    11   8 O        1.656    -0.443    21.709     6.290
    12   8 O        1.705    -0.314    19.238     5.922
    13   6 C        2.885     0.122    25.320     8.250
    14   6 C        2.918    -0.059    29.469     8.902
    15   6 C        2.920    -0.040    29.003     8.831
    16   6 C        2.918    -0.038    28.933     8.821
    17   6 C        2.927    -0.041    29.009     8.833
    18   6 C        2.964    -0.024    28.599     8.772
    19   6 C        3.680     0.081    19.440     6.315
    20   8 O        1.655    -0.413    21.104     6.202
    21   1 H        0.805     0.306     0.703     1.317
    22   1 H        0.924     0.056     2.245     2.343
    23   1 H        0.924     0.043     2.412     2.429
    24   1 H        0.923     0.048     2.342     2.393
    25   1 H        0.921     0.006     2.952     2.687
    26   1 H        0.923     0.040     2.446     2.446
    27   1 H        0.923     0.034     2.534     2.489
    28   1 H        0.923     0.035     2.513     2.479
    29   1 H        0.805     0.323     0.657     1.273
    30   1 H        0.805     0.317     0.671     1.287
    31   1 H        0.805     0.314     0.682     1.297
    32   1 H        0.926     0.034     2.529     2.487
    33   1 H        0.926     0.035     2.512     2.479
    34   1 H        0.926     0.037     2.493     2.469
    35   1 H        0.926     0.045     2.378     2.411
    36   1 H        0.924     0.053     2.289     2.366
    37   1 H        0.924     0.059     2.209     2.324
    38   1 H        0.804     0.326     0.647     1.264

 Mol. C6AA /au·bohr⁶  :      14034.922546
 Mol. C8AA /au·bohr⁸  :     316567.180706
 Mol. α(0) /au        :        177.357007


Wiberg/Mayer (AO) data.
largest (>0.10) Wiberg bond orders for each atom

 ---------------------------------------------------------------------------
     #   Z sym  total        # sym  WBO       # sym  WBO       # sym  WBO
 ---------------------------------------------------------------------------
     1   8 O    1.969 --     2 C    1.000    21 H    0.892
     2   6 C    3.957 --     1 O    1.000     3 C    0.988    23 H    0.969
                            22 H    0.965
     3   6 C    3.945 --     2 C    0.988     8 C    0.968     4 O    0.965
                            24 H    0.954
     4   8 O    2.082 --     3 C    0.965     5 C    0.959
     5   6 C    3.917 --    12 O    0.982     4 O    0.959     6 C    0.950
                            25 H    0.941
     6   6 C    3.958 --    11 O    1.000     7 C    0.971    26 H    0.956
                             5 C    0.950
     7   6 C    3.961 --    10 O    0.999     6 C    0.971     8 C    0.970
                            27 H    0.955
     8   6 C    3.965 --     9 O    1.006     7 C    0.970     3 C    0.968
                            28 H    0.955
     9   8 O    1.957 --     8 C    1.006    29 H    0.877
    10   8 O    1.956 --     7 C    0.999    30 H    0.881
    11   8 O    1.958 --     6 C    1.000    31 H    0.882
    12   8 O    2.109 --     5 C    0.982    13 C    0.963
    13   6 C    3.600 --    14 C    1.374    18 C    1.118    12 O    0.963
    14   6 C    3.734 --    13 C    1.374    15 C    1.260    32 H    0.968
    15   6 C    3.596 --    14 C    1.260    16 C    1.178    33 H    0.968
    16   6 C    3.682 --    17 C    1.426    15 C    1.178    34 H    0.969
    17   6 C    3.721 --    16 C    1.426    18 C    1.210    35 H    0.967
    18   6 C    3.555 --    17 C    1.210    13 C    1.118    19 C    0.997
    19   6 C    3.939 --    18 C    0.997    20 O    0.996    37 H    0.950
                            36 H    0.946
    20   8 O    2.003 --    19 C    0.996    38 H    0.858
    21   1 H    0.906 --     1 O    0.892
    22   1 H    0.996 --     2 C    0.965
    23   1 H    0.998 --     2 C    0.969
    24   1 H    0.997 --     3 C    0.954
    25   1 H    0.998 --     5 C    0.941
    26   1 H    0.998 --     6 C    0.956
    27   1 H    0.999 --     7 C    0.955
    28   1 H    0.999 --     8 C    0.955
    29   1 H    0.896 --     9 O    0.877
    30   1 H    0.899 --    10 O    0.881
    31   1 H    0.901 --    11 O    0.882
    32   1 H    0.997 --    14 C    0.968
    33   1 H    0.995 --    15 C    0.968
    34   1 H    0.997 --    16 C    0.969
    35   1 H    0.996 --    17 C    0.967
    36   1 H    0.988 --    19 C    0.946
    37   1 H    0.987 --    19 C    0.950
    38   1 H    0.893 --    20 O    0.858
 ---------------------------------------------------------------------------

Topologies differ in total number of bonds
Writing topology from bond orders to xtbtopo.mol

molecular dipole:
                 x           y           z       tot (Debye)
 q only:       -0.345      -0.067      -0.179
   full:       -0.453       0.268      -0.221       1.451
molecular quadrupole (traceless):
                xx          xy          yy          xz          yz          zz
 q only:       -0.600       2.708       4.594       1.711       0.288      -3.994
  q+dip:       -5.850       2.673       5.084       4.613       3.601       0.767
   full:       -4.662       3.656       6.026       3.158       1.556      -1.364


           -------------------------------------------------
          | TOTAL ENERGY              -65.300554715828 Eh   |
          | GRADIENT NORM               0.110051136909 Eh/α |
          | HOMO-LUMO GAP               0.049062890558 eV   |
           -------------------------------------------------

------------------------------------------------------------------------
 * finished run on 2025/05/15 at 16:11:20.625     
------------------------------------------------------------------------
 total:
 * wall-time:     0 d,  0 h,  0 min,  0.118 sec
 *  cpu-time:     0 d,  0 h,  0 min,  0.074 sec
 * ratio c/w:     0.624 speedup
 SCF:
 * wall-time:     0 d,  0 h,  0 min,  0.106 sec
 *  cpu-time:     0 d,  0 h,  0 min,  0.063 sec
 * ratio c/w:     0.593 speedup


