31
 energy: -58.960245740127 gnorm: 0.000766125077 xtb: 6.7.1 (edcfbbe)
N            4.95121224014468       -1.50917011429099       -0.19024674352262
C            3.97709922117099       -0.64297124211010        0.11694722551142
N            4.30970096899339        0.62218775836073        0.38598276312081
C            3.35864473927136        1.48642244258616        0.68653567892220
Cl           3.89614875208768        3.07127170631015        1.00908615097892
N            2.05903094323972        1.29794854202245        0.77031743178802
C            1.71904643410606        0.03465388559023        0.50690808498017
C            2.61530063712875       -0.99461725380221        0.17026866654344
N            1.91921326172723       -2.15858727070183       -0.03285600882982
C            0.67695932577829       -1.84623412744350        0.17126775700433
N            0.48066157384762       -0.53221222935144        0.49933546936614
C           -0.75102163121298        0.15529494795749        0.78834480631307
C           -1.00547221429701        1.32313023417732       -0.17037178872159
C           -2.53069702319076        1.40290290547276       -0.19227156426177
C           -2.96951627320239       -0.04663485355755        0.13469169771247
O           -1.82142078859615       -0.73904386076663        0.61829305388447
C           -3.50295224537905       -0.80481133022873       -1.08924788439439
O           -2.56502996525833       -0.82870874449798       -2.13012989246466
O           -2.94507069732482        2.32108485914110        0.78733346935706
H            4.71623134847599       -2.46455362098673       -0.38745040603733
H            5.90289778884057       -1.18881864907756       -0.19926516568627
H           -0.14040862725117       -2.53603277887591        0.10900138762218
H           -0.71331308048783        0.51520889227016        1.83048034058497
H           -0.55908302553635        2.24629688133540        0.18622696891774
H           -0.62261628180261        1.08197925800250       -1.16189539123550
H           -2.90024915811527        1.69767236561650       -1.18216794709854
H           -3.73328449834665       -0.03922156006376        0.92480556451357
H           -4.39284340251678       -0.30822197760297       -1.48098542136067
H           -3.77031671958194       -1.82393845153399       -0.77915879256702
H           -1.75944575821463       -1.23420459450544       -1.78456615784944
H           -3.89920584449710        2.44182798055417        0.74058664690796
