62
 energy: -94.876638734711 gnorm: 0.000631818195 xtb: 6.7.1 (edcfbbe)
C           -6.27355201008407        3.64402667138184        2.05296059221870
C           -5.46193051068520        3.69891563062116        0.79158787555173
C           -4.33329360557999        2.71932677910995        0.71179520316033
C           -3.07714596064081        3.11254254080097        0.35226681913636
C           -2.71337787587453        4.53265088479900        0.05675409785364
C           -2.04737602257157        2.12393535062169        0.29081888569305
C           -0.71230894587747        2.36949361130633       -0.05474512842879
N            0.20866801233307        1.43919311911847       -0.11409438840029
C           -0.17560038825721        0.18662323823586        0.17842408383646
N            0.71341530248325       -0.82453425625469        0.14172466137881
C            2.06341350387272       -0.84689991800542       -0.18215759684666
N            2.60032209707567       -2.06028526417875       -0.09877944543460
C            3.87246434556254       -2.22564245957097       -0.39148738502588
C            4.72648337882150       -1.18514990329054       -0.79230641775622
C            4.14244378518014        0.09118313456435       -0.86358933510139
C            2.80937906876020        0.26765123686333       -0.56162433230365
N            6.04722461486883       -1.39251044203210       -1.07745602631104
C            6.71363924732185       -2.63308163649113       -0.74632662577866
C            8.21040267117260       -2.37977277254312       -0.59446610546813
N            8.78973417836662       -1.96718019832461       -1.86665185862541
C            7.85145066504423       -1.22714729562395       -2.69439593972452
C            6.80992179714334       -0.45643936029111       -1.87540005326505
N           -1.41461913367713       -0.17315009813379        0.51854795367613
C           -2.34911546593454        0.76832561626678        0.57622511327211
N           -3.61467897102035        0.40405024465560        0.91682052520034
C           -3.88268838619625       -1.00860796327959        1.18681250197590
C           -4.83359408595942       -1.64463897821765        0.15934520985569
C           -5.57057043836972       -2.71204304542438        0.96137425521869
C           -5.82263197590611       -2.01125930915179        2.29291868966126
C           -4.51175051506865       -1.27179980023633        2.57173617816881
C           -4.65928389165180        1.32156238994928        0.99746442591980
O           -5.78175073341272        0.93866145393913        1.27787309194959
O           -5.68905720918228        4.48735295213309       -0.09706608564816
H           -6.82179014396659        2.70375141939327        2.06300553415633
H           -5.62115132556039        3.65958757958704        2.92304085132072
H           -6.96859994046304        4.47849683901913        2.08300263151543
H           -3.57019369520610        5.18997502463431        0.15042295655495
H           -1.92888906043811        4.86742152892661        0.73485321612718
H           -2.33830062545693        4.60993024361771       -0.96263626425709
H           -0.37176796481280        3.36644116174592       -0.29862212273468
H            0.33936272793305       -1.73495983388211        0.37998536010774
H            4.22094573396196       -3.24525299381863       -0.31376831201297
H            4.73520124921726        0.94947977950634       -1.13908021032989
H            2.34410185260981        1.23660756346322       -0.60732569210142
H            6.32238953268841       -3.00358954682926        0.20432262238343
H            6.55045480111737       -3.40196951110007       -1.51436701417123
H            8.35174121959802       -1.62848607947280        0.19861573111797
H            8.70783637994546       -3.30141533047286       -0.27674961260934
H            9.63154674280205       -1.42930504901519       -1.69745659938804
H            8.39779232567954       -0.54013506138890       -3.34210191936680
H            7.32515956511594       -1.94367958462218       -3.33597667050799
H            6.14121734554660        0.07372139203309       -2.55860776114091
H            7.31355497705606        0.28687649659476       -1.23806302144444
H           -2.90462024848383       -1.48782046701659        1.12870222956917
H           -4.29183427064367       -2.04574501298873       -0.69641936961030
H           -5.54685792368675       -0.90087384012482       -0.19268337247504
H           -4.92939065780309       -3.58366919731936        1.10735095046918
H           -6.49014794844349       -3.03348028879777        0.47558867300478
H           -6.08522146644917       -2.70214705397925        3.09259286795244
H           -6.62622071987776       -1.28644644439244        2.17097547155225
H           -4.68305345917262       -0.34603500772614        3.11681363658012
H           -3.83780154486013       -1.89243087889355        3.16348177012681
