57
 energy: -87.644055383162 gnorm: 0.000357896341 xtb: 6.7.1 (edcfbbe)
O           -3.64075298218404        1.54824404194635        2.06779253315390
C           -3.53777461795971        0.86987824238410        1.05872826169587
C           -2.61873786722990        1.09583482658321       -0.03190704065858
C           -1.69616166221889        2.26890814182129        0.12341915432924
C           -0.44084266945520        1.88058000649413        0.92012435411105
N            0.45864711370332        1.05269149760073        0.13082931988830
C            1.43726865561576        1.85763936236563       -0.58343472600003
C            2.23543991732389        1.00081980265522       -1.56069252474950
C            2.91766801992653       -0.17904023006409       -0.86021102521710
C            1.87138342538173       -0.92193844811973       -0.01548687763395
C            1.13649660637898        0.03639909530998        0.91431799660204
C            4.07994634361802        0.23109439447552       -0.02032100187140
N            4.06615467923258        1.21769774930463        0.82401185135219
O            5.28617022354499        1.30799118207168        1.44322687091660
C            6.07725793881358        0.33631955937312        0.96292958500046
C            5.36552751489814       -0.41116359234913        0.00502296894399
C            5.97421598386608       -1.48443544207950       -0.64235512624190
C            7.27659819705540       -1.78081808642823       -0.31567554744294
C            7.95302696343669       -1.01642293704701        0.63951761931546
F            9.22665552911825       -1.34936830592368        0.92051002830029
C            7.39192340218728        0.05173362943686        1.30453700625067
C           -2.61595273602065        0.24732666329151       -1.10171800274731
N           -3.46891662155998       -0.80906289977296       -1.19317592211743
C           -4.29705721356660       -1.01913523198864       -0.22616876771924
N           -4.36515910146723       -0.24887876355842        0.88179333308729
C           -5.38092976863523       -0.55641774647121        1.86403257108060
C           -6.72988199076155       -0.67720797542266        1.15874773783964
C           -6.68098243417186       -1.73244774197685        0.04008367082009
C           -5.24228703469334       -2.17474992085811       -0.26866653201032
C           -1.68071498223049        0.39887919121833       -2.25692173650951
H           -2.22560273156330        3.03675085827229        0.69100852238129
H           -1.41389806001777        2.67093554148062       -0.84835161578828
H           -0.76388501437266        1.32515457439730        1.80296997430690
H            0.06453482895138        2.79310766468000        1.27159234086964
H            0.90587418225279        2.63335547844636       -1.14025836243868
H            2.13511842947768        2.34420854922039        0.11705454337911
H            2.98130413295505        1.62275982499224       -2.05879126146989
H            1.56411596181856        0.59772146516947       -2.32168522103600
H            3.30425201718905       -0.86570498203057       -1.62202914121758
H            1.14685889543893       -1.38085881108555       -0.69005373000096
H            2.34973651923251       -1.71083167903325        0.56875852751425
H            1.85290754472230        0.48317156698821        1.62439449447299
H            0.38581767936115       -0.52120420225281        1.48024922464527
H            5.43925570022686       -2.06589507228628       -1.37651904230453
H            7.79925809386831       -2.59971211305984       -0.78355832287121
H            7.93896791923724        0.62140424540192        2.03569048739138
H           -5.37785637586930        0.25969778788110        2.59105938855022
H           -5.12694009254435       -1.48954960494662        2.37789937990597
H           -6.97763892664180        0.29877910247383        0.73784532426181
H           -7.49555298404439       -0.92570058335536        1.89321979882296
H           -7.26142458790715       -2.61250686663825        0.31947743015651
H           -7.12544653450853       -1.32207784203079       -0.86702530724961
H           -4.91807700984392       -2.90448310652678        0.47895674929773
H           -5.17899169882179       -2.64386477189124       -1.24912133031025
H           -1.91681893746805        1.29948828027204       -2.82179489366818
H           -1.78008349772431       -0.46280508548665       -2.91030695895881
H           -0.66421428534800        0.47780971664633       -1.88277103039014
