----- Optimization -----
      -----------------------------------------------------------      
     |                   =====================                   |     
     |                           x T B                           |     
     |                   =====================                   |     
     |                         S. Grimme                         |     
     |          Mulliken Center for Theoretical Chemistry        |     
     |                    University of Bonn                     |     
      -----------------------------------------------------------      

   * xtb version 6.7.1 (edcfbbe) compiled by 'conda@3ef47c1a292c' on 2024-11-25

   xtb is free software: you can redistribute it and/or modify it under
   the terms of the GNU Lesser General Public License as published by
   the Free Software Foundation, either version 3 of the License, or
   (at your option) any later version.
   
   xtb is distributed in the hope that it will be useful,
   but WITHOUT ANY WARRANTY; without even the implied warranty of
   MERCHANTABILITY or FITNESS FOR A PARTICULAR PURPOSE.  See the
   GNU Lesser General Public License for more details.
   
   Cite this work as:
   * C. Bannwarth, E. Caldeweyher, S. Ehlert, A. Hansen, P. Pracht,
     J. Seibert, S. Spicher, S. Grimme, WIREs Comput. Mol. Sci., 2020, 11,
     e01493. DOI: 10.1002/wcms.1493
   
   for GFN2-xTB:
   * C. Bannwarth, S. Ehlert and S. Grimme., J. Chem. Theory Comput., 2019,
     15, 1652-1671. DOI: 10.1021/acs.jctc.8b01176
   for GFN1-xTB:
   * S. Grimme, C. Bannwarth, P. Shushkov, J. Chem. Theory Comput., 2017,
     13, 1989-2009. DOI: 10.1021/acs.jctc.7b00118
   for GFN0-xTB:
   * P. Pracht, E. Caldeweyher, S. Ehlert, S. Grimme, ChemRxiv, 2019, preprint.
     DOI: 10.26434/chemrxiv.8326202.v1
   for GFN-FF:
   * S. Spicher and S. Grimme, Angew. Chem. Int. Ed., 2020, 59, 15665-15673.
     DOI: 10.1002/anie.202004239
   
   for ALPB and GBSA implicit solvation:
   * S. Ehlert, M. Stahn, S. Spicher, S. Grimme, J. Chem. Theory Comput.,
     2021, 17, 4250-4261. DOI: 10.1021/acs.jctc.1c00471
   
   for ddCOSMO and CPCM-X implicit solvation:
   * M. Stahn, S. Ehlert, S. Grimme, J. Phys. Chem. A,
     2023, XX, XXXX-XXXX. DOI: 10.1021/acs.jpca.3c04382
   
   for DFT-D4:
   * E. Caldeweyher, C. Bannwarth and S. Grimme, J. Chem. Phys., 2017,
     147, 034112. DOI: 10.1063/1.4993215
   * E. Caldeweyher, S. Ehlert, A. Hansen, H. Neugebauer, S. Spicher,
     C. Bannwarth and S. Grimme, J. Chem. Phys., 2019, 150, 154122.
     DOI: 10.1063/1.5090222
   * E. Caldeweyher, J.-M. Mewes, S. Ehlert and S. Grimme, Phys. Chem. Chem. Phys.
     2020, 22, 8499-8512. DOI: 10.1039/D0CP00502A
   
   for sTDA-xTB:
   * S. Grimme and C. Bannwarth, J. Chem. Phys., 2016, 145, 054103.
     DOI: 10.1063/1.4959605
   
   in the mass-spec context:
   * V. Asgeirsson, C. Bauer and S. Grimme, Chem. Sci., 2017, 8, 4879.
     DOI: 10.1039/c7sc00601b
   * J. Koopman and S. Grimme, ACS Omega 2019, 4, 12, 15120-15133.
     DOI: 10.1021/acsomega.9b02011
   
   for metadynamics refer to:
   * S. Grimme, J. Chem. Theory Comput., 2019, 155, 2847-2862
     DOI: 10.1021/acs.jctc.9b00143
   
   for SPH calculations refer to:
   * S. Spicher and S. Grimme, J. Chem. Theory Comput., 2021, 17, 1701-1714
     DOI: 10.1021/acs.jctc.0c01306
   
   for ONIOM refer to:
   * C. Plett, A. Katbashev, S. Ehlert, S. Grimme, M. Bursch,
     Phys. Chem. Chem. Phys., 2023, 25, 17860-17868. DOI: 10.1039/D3CP02178E
   
   for DIPRO refer to:
   * J. Kohn, N. Gildemeister, S. Grimme, D. Fazzi, A. Hansen,
     J. Chem. Phys., 2023, just accepted.
   
   for PTB refer to:
   * S. Grimme, M. Mueller, A. Hansen, J. Chem. Phys., 2023, 158, 124111.
     DOI: 10.1063/5.0137838
   
   with help from (in alphabetical order)
   P. Atkinson, C. Bannwarth, F. Bohle, G. Brandenburg, E. Caldeweyher
   M. Checinski, S. Dohm, S. Ehlert, S. Ehrlich, I. Gerasimov, C. Hölzer
   A. Katbashev, J. Kohn, J. Koopman, C. Lavigne, S. Lehtola, F. März, M. Müller,
   F. Musil, H. Neugebauer, J. Pisarek, C. Plett, P. Pracht, F. Pultar,
   J. Seibert, P. Shushkov, S. Spicher, M. Stahn, M. Steiner, T. Strunk,
   J. Stückrath, T. Rose, and J. Unsleber
   
 * started run on 2025/05/15 at 16:35:21.852     
   ID    Z sym.   atoms
    1    8 O      1, 14
    2    6 C      2-5, 7-12, 15-19, 21, 22, 24, 26-30
    3    7 N      6, 13, 23, 25
    4    9 F      20
    5    1 H      31-57

           -------------------------------------------------
          |                Calculation Setup                |
           -------------------------------------------------

          program call               : xtb /rds/general/user/hgt20/home/callum/QDESCP/Risperidone_rdkit_conf_21/Risperidone_rdkit_conf_21.xyz --opt normal --acc 1 --gfn 2 --chrg 0 --uhf 0 -P 1
          hostname                   : login-c
          coordinate file            : /rds/general/user/hgt20/home/callum/QDESCP/Risperidone_rdkit_conf_21/Risperidone_rdkit_conf_21.xyz
          omp threads                :                     1


           -------------------------------------------------
          |                 G F N 2 - x T B                 |
           -------------------------------------------------

        Reference                      10.1021/acs.jctc.8b01176
      * Hamiltonian:
        H0-scaling (s, p, d)           1.850000    2.230000    2.230000
        zeta-weighting                 0.500000
      * Dispersion:
        s8                             2.700000
        a1                             0.520000
        a2                             5.000000
        s9                             5.000000
      * Repulsion:
        kExp                           1.500000    1.000000
        rExp                           1.000000
      * Coulomb:
        alpha                          2.000000
        third order                    shell-resolved
        anisotropic                    true
        a3                             3.000000
        a5                             4.000000
        cn-shift                       1.200000
        cn-exp                         4.000000
        max-rad                        5.000000


          ...................................................
          :                      SETUP                      :
          :.................................................:
          :  # basis functions                 147          :
          :  # atomic orbitals                 147          :
          :  # shells                           87          :
          :  # electrons                       158          :
          :  max. iterations                   250          :
          :  Hamiltonian                  GFN2-xTB          :
          :  restarted?                      false          :
          :  GBSA solvation                  false          :
          :  PC potential                    false          :
          :  electronic temp.          300.0000000     K    :
          :  accuracy                    1.0000000          :
          :  -> integral cutoff          0.2500000E+02      :
          :  -> integral neglect         0.1000000E-07      :
          :  -> SCF convergence          0.1000000E-05 Eh   :
          :  -> wf. convergence          0.1000000E-03 e    :
          :  Broyden damping             0.4000000          :
          :  net charge                          0          :
          :  unpaired electrons                  0          :
          ...................................................

 iter      E             dE          RMSdq      gap      omega  full diag
   1    -88.5783636 -0.885784E+02  0.355E+00    3.04       0.0  T
   2    -88.7060003 -0.127637E+00  0.218E+00    2.47       1.0  T
   3    -88.7103427 -0.434239E-02  0.115E+00    1.97       1.0  T
   4    -88.7259115 -0.155688E-01  0.419E-01    1.52       1.0  T
   5    -88.7318378 -0.592636E-02  0.113E-01    1.48       1.0  T
   6    -88.7321087 -0.270816E-03  0.595E-02    1.50       1.0  T
   7    -88.7321936 -0.849064E-04  0.237E-02    1.53       1.0  T
   8    -88.7321982 -0.466384E-05  0.958E-03    1.54       1.4  T
   9    -88.7322000 -0.176220E-05  0.390E-03    1.54       3.4  T
  10    -88.7322002 -0.216289E-06  0.127E-03    1.54      10.4  T
  11    -88.7322002 -0.161215E-07  0.657E-04    1.54      20.2  T
  12    -88.7322002 -0.628914E-08  0.242E-04    1.54      54.8  T

   *** convergence criteria satisfied after 12 iterations ***

         #    Occupation            Energy/Eh            Energy/eV
      -------------------------------------------------------------
         1        2.0000           -0.8307790             -22.6066
       ...           ...                  ...                  ...
        73        2.0000           -0.4185419             -11.3891
        74        2.0000           -0.4126729             -11.2294
        75        2.0000           -0.4099959             -11.1566
        76        2.0000           -0.3841761             -10.4540
        77        2.0000           -0.3794728             -10.3260
        78        2.0000           -0.3779293             -10.2840
        79        2.0000           -0.3424030              -9.3173 (HOMO)
        80                         -0.2859246              -7.7804 (LUMO)
        81                         -0.2471760              -6.7260
        82                         -0.2435387              -6.6270
        83                         -0.2224117              -6.0521
        84                         -0.2095352              -5.7017
       ...                                ...                  ...
       147                          0.6982782              19.0011
      -------------------------------------------------------------
                  HL-Gap            0.0564784 Eh            1.5369 eV
             Fermi-level           -0.3141638 Eh           -8.5488 eV

 SCC (total)                   0 d,  0 h,  0 min,  0.145 sec
 SCC setup                      ...        0 min,  0.001 sec (  0.397%)
 Dispersion                     ...        0 min,  0.001 sec (  0.562%)
 classical contributions        ...        0 min,  0.000 sec (  0.180%)
 integral evaluation            ...        0 min,  0.030 sec ( 20.577%)
 iterations                     ...        0 min,  0.044 sec ( 30.588%)
 molecular gradient             ...        0 min,  0.069 sec ( 47.484%)
 printout                       ...        0 min,  0.000 sec (  0.208%)

         :::::::::::::::::::::::::::::::::::::::::::::::::::::
         ::                     SUMMARY                     ::
         :::::::::::::::::::::::::::::::::::::::::::::::::::::
         :: total energy             -87.625157510486 Eh    ::
         :: gradient norm              0.108397819499 Eh/a0 ::
         :: HOMO-LUMO gap              1.536856262456 eV    ::
         ::.................................................::
         :: SCC energy               -88.731702996986 Eh    ::
         :: -> isotropic ES            0.080846937769 Eh    ::
         :: -> anisotropic ES          0.009645957277 Eh    ::
         :: -> anisotropic XC          0.041514857693 Eh    ::
         :: -> dispersion             -0.062700301645 Eh    ::
         :: repulsion energy           1.106545486500 Eh    ::
         :: add. restraining           0.000000000000 Eh    ::
         :: total charge               0.000000000000 e     ::
         :::::::::::::::::::::::::::::::::::::::::::::::::::::

      ----------------------------------------------------------- 
     |                   =====================                   |
     |                        A N C O P T                        |
     |                   =====================                   |
     |               Approximate Normal Coordinate               |
     |                Rational Function Optimizer                |
      ----------------------------------------------------------- 
      ----------------------------------------------------------- 
     |                   =====================                   |
     |                        A N C O P T                        |
     |                   =====================                   |
     |               Approximate Normal Coordinate               |
     |                Rational Function Optimizer                |
      ----------------------------------------------------------- 

          ...................................................
          :                      SETUP                      :
          :.................................................:
          :   optimization level            normal          :
          :   max. optcycles                   200          :
          :   ANC micro-cycles                  20          :
          :   degrees of freedom               165          :
          :.................................................:
          :   RF solver                   davidson          :
          :   write xtbopt.log                true          :
          :   linear?                        false          :
          :   energy convergence         0.5000000E-05 Eh   :
          :   grad. convergence          0.1000000E-02 Eh/α :
          :   maxmium RF displ.          1.0000000          :
          :   Hlow (freq-cutoff)         0.1000000E-01      :
          :   Hmax (freq-cutoff)         5.0000000          :
          :   S6 in model hess.         20.0000000          :
          ...................................................

generating ANC from exact Hessian ...
Using Lindh-Hessian (1995)
 Shifting diagonal of input Hessian by    9.8671549538458109E-003
 Lowest  eigenvalues of input Hessian
    0.000000    0.000000    0.000000    0.000000    0.000000    0.000000
    0.010000    0.010130    0.010209    0.010569    0.010695    0.011324
    0.011511    0.012565    0.012873    0.014988    0.015926    0.017214
 Highest eigenvalues
    1.921627    1.939474    2.069197    2.168932    2.187853    2.327835


........................................................................
.............................. CYCLE    1 ..............................
........................................................................

 iter      E             dE          RMSdq      gap      omega  full diag
   1    -88.7322002 -0.887322E+02  0.886E-05    1.54       0.0  T
   2    -88.7322002 -0.928821E-10  0.534E-05    1.54     247.9  T
   3    -88.7322002 -0.385398E-10  0.353E-05    1.54     374.8  T
     SCC iter.                  ...        0 min,  0.038 sec
     gradient                   ...        0 min,  0.044 sec
 * total energy  :   -87.6251575 Eh     change       -0.8401884E-09 Eh
   gradient norm :     0.1083965 Eh/α   predicted     0.0000000E+00 (-100.00%)
   displ. norm   :     0.3126911 α      lambda       -0.1567497E-01
   maximum displ.:     0.1012392 α      in ANC's #30, #54, #38, ...

........................................................................
.............................. CYCLE    2 ..............................
........................................................................

 iter      E             dE          RMSdq      gap      omega  full diag
   1    -88.7697830 -0.887698E+02  0.197E-01    1.66       0.0  T
   2    -88.7698797 -0.966997E-04  0.114E-01    1.70       1.0  T
   3    -88.7698381  0.415560E-04  0.418E-02    1.71       1.0  T
   4    -88.7698905 -0.523961E-04  0.114E-02    1.71       1.2  T
   5    -88.7698970 -0.642309E-05  0.376E-03    1.71       3.5  T
   6    -88.7698973 -0.359466E-06  0.163E-03    1.71       8.1  T
   7    -88.7698973 -0.236561E-07  0.650E-04    1.71      20.4  T
   8    -88.7698973 -0.662710E-08  0.233E-04    1.71      56.9  T
     SCC iter.                  ...        0 min,  0.029 sec
     gradient                   ...        0 min,  0.077 sec
 * total energy  :   -87.6358942 Eh     change       -0.1073672E-01 Eh
   gradient norm :     0.0478253 Eh/α   predicted    -0.8609189E-02 ( -19.82%)
   displ. norm   :     0.2892455 α      lambda       -0.4777290E-02
   maximum displ.:     0.0881118 α      in ANC's #15, #30, #6, ...

........................................................................
.............................. CYCLE    3 ..............................
........................................................................

 iter      E             dE          RMSdq      gap      omega  full diag
   1    -88.7904620 -0.887905E+02  0.117E-01    1.77       0.0  T
   2    -88.7905163 -0.542924E-04  0.690E-02    1.79       1.0  T
   3    -88.7904869  0.293521E-04  0.386E-02    1.79       1.0  T
   4    -88.7905306 -0.437375E-04  0.865E-03    1.79       1.5  T
   5    -88.7905349 -0.422432E-05  0.213E-03    1.79       6.2  T
   6    -88.7905350 -0.929023E-07  0.896E-04    1.79      14.8  T
   7    -88.7905350 -0.804320E-08  0.371E-04    1.79      35.7  T
     SCC iter.                  ...        0 min,  0.025 sec
     gradient                   ...        0 min,  0.068 sec
 * total energy  :   -87.6387601 Eh     change       -0.2865887E-02 Eh
   gradient norm :     0.0156715 Eh/α   predicted    -0.2590469E-02 (  -9.61%)
   displ. norm   :     0.2407507 α      lambda       -0.9783822E-03
   maximum displ.:     0.0937284 α      in ANC's #6, #5, #9, ...

........................................................................
.............................. CYCLE    4 ..............................
........................................................................

 iter      E             dE          RMSdq      gap      omega  full diag
   1    -88.7930777 -0.887931E+02  0.452E-02    1.79       0.0  T
   2    -88.7930828 -0.504783E-05  0.262E-02    1.79       1.0  T
   3    -88.7930766  0.620523E-05  0.168E-02    1.79       1.0  T
   4    -88.7930866 -0.100062E-04  0.234E-03    1.79       5.7  T
   5    -88.7930868 -0.245019E-06  0.766E-04    1.79      17.3  T
   6    -88.7930868 -0.819281E-08  0.367E-04    1.79      36.1  T
     SCC iter.                  ...        0 min,  0.021 sec
     gradient                   ...        0 min,  0.077 sec
 * total energy  :   -87.6395181 Eh     change       -0.7579963E-03 Eh
   gradient norm :     0.0101422 Eh/α   predicted    -0.5175548E-03 ( -31.72%)
   displ. norm   :     0.4061338 α      lambda       -0.1042360E-02
   maximum displ.:     0.1739962 α      in ANC's #6, #5, #8, ...

........................................................................
.............................. CYCLE    5 ..............................
........................................................................

 iter      E             dE          RMSdq      gap      omega  full diag
   1    -88.7925329 -0.887925E+02  0.550E-02    1.77       0.0  T
   2    -88.7925369 -0.399204E-05  0.317E-02    1.76       1.0  T
   3    -88.7925263  0.106279E-04  0.176E-02    1.76       1.0  T
   4    -88.7925399 -0.136418E-04  0.225E-03    1.76       5.9  T
   5    -88.7925401 -0.183262E-06  0.907E-04    1.76      14.6  T
   6    -88.7925401 -0.411532E-08  0.361E-04    1.76      36.7  T
     SCC iter.                  ...        0 min,  0.066 sec
     gradient                   ...        0 min,  0.044 sec
 * total energy  :   -87.6402494 Eh     change       -0.7312580E-03 Eh
   gradient norm :     0.0093542 Eh/α   predicted    -0.6071487E-03 ( -16.97%)
   displ. norm   :     0.3511962 α      lambda       -0.5294405E-03
   maximum displ.:     0.1655336 α      in ANC's #6, #5, #8, ...

........................................................................
.............................. CYCLE    6 ..............................
........................................................................

 iter      E             dE          RMSdq      gap      omega  full diag
   1    -88.7919426 -0.887919E+02  0.417E-02    1.74       0.0  T
   2    -88.7919446 -0.198386E-05  0.245E-02    1.73       1.0  T
   3    -88.7919437  0.908896E-06  0.547E-03    1.74       2.4  T
   4    -88.7919449 -0.126673E-05  0.155E-03    1.73       8.5  T
   5    -88.7919450 -0.779685E-07  0.707E-04    1.73      18.7  T
   6    -88.7919450 -0.506205E-08  0.281E-04    1.73      47.2  T
     SCC iter.                  ...        0 min,  0.054 sec
     gradient                   ...        0 min,  0.042 sec
 * total energy  :   -87.6406435 Eh     change       -0.3941173E-03 Eh
   gradient norm :     0.0101613 Eh/α   predicted    -0.2973783E-03 ( -24.55%)
   displ. norm   :     0.3258869 α      lambda       -0.3988445E-03
   maximum displ.:     0.1622726 α      in ANC's #6, #5, #8, ...

........................................................................
.............................. CYCLE    7 ..............................
........................................................................

 iter      E             dE          RMSdq      gap      omega  full diag
   1    -88.7925884 -0.887926E+02  0.399E-02    1.71       0.0  T
   2    -88.7925907 -0.221648E-05  0.236E-02    1.71       1.0  T
   3    -88.7925859  0.472504E-05  0.109E-02    1.71       1.2  T
   4    -88.7925917 -0.580996E-05  0.178E-03    1.71       7.4  T
   5    -88.7925919 -0.114990E-06  0.756E-04    1.71      17.5  T
   6    -88.7925919 -0.487188E-08  0.349E-04    1.71      38.0  T
     SCC iter.                  ...        0 min,  0.021 sec
     gradient                   ...        0 min,  0.044 sec
 * total energy  :   -87.6409456 Eh     change       -0.3021409E-03 Eh
   gradient norm :     0.0082714 Eh/α   predicted    -0.2206123E-03 ( -26.98%)
   displ. norm   :     0.3027930 α      lambda       -0.2993643E-03
   maximum displ.:     0.1557758 α      in ANC's #5, #6, #4, ...

........................................................................
.............................. CYCLE    8 ..............................
........................................................................

 iter      E             dE          RMSdq      gap      omega  full diag
   1    -88.7941733 -0.887942E+02  0.388E-02    1.69       0.0  T
   2    -88.7941750 -0.172964E-05  0.226E-02    1.69       1.0  T
   3    -88.7941691  0.588746E-05  0.126E-02    1.69       1.0  T
   4    -88.7941766 -0.745638E-05  0.144E-03    1.69       9.2  T
   5    -88.7941766 -0.606250E-07  0.694E-04    1.69      19.1  T
   6    -88.7941766 -0.400340E-08  0.320E-04    1.69      41.4  T
     SCC iter.                  ...        0 min,  0.021 sec
     gradient                   ...        0 min,  0.083 sec
 * total energy  :   -87.6411666 Eh     change       -0.2209465E-03 Eh
   gradient norm :     0.0056140 Eh/α   predicted    -0.1634316E-03 ( -26.03%)
   displ. norm   :     0.2622582 α      lambda       -0.1895745E-03
   maximum displ.:     0.1367546 α      in ANC's #5, #6, #4, ...

........................................................................
.............................. CYCLE    9 ..............................
........................................................................

 iter      E             dE          RMSdq      gap      omega  full diag
   1    -88.7956230 -0.887956E+02  0.353E-02    1.68       0.0  T
   2    -88.7956245 -0.148346E-05  0.205E-02    1.68       1.0  T
   3    -88.7956211  0.344428E-05  0.943E-03    1.68       1.4  T
   4    -88.7956252 -0.415761E-05  0.148E-03    1.68       8.9  T
   5    -88.7956253 -0.985769E-07  0.559E-04    1.68      23.7  T
   6    -88.7956253 -0.113131E-08  0.239E-04    1.68      55.4  T
     SCC iter.                  ...        0 min,  0.021 sec
     gradient                   ...        0 min,  0.074 sec
 * total energy  :   -87.6413060 Eh     change       -0.1394538E-03 Eh
   gradient norm :     0.0041028 Eh/α   predicted    -0.1013069E-03 ( -27.35%)
   displ. norm   :     0.2332157 α      lambda       -0.1291269E-03
   maximum displ.:     0.1180051 α      in ANC's #5, #6, #4, ...

........................................................................
.............................. CYCLE   10 ..............................
........................................................................

 iter      E             dE          RMSdq      gap      omega  full diag
   1    -88.7965219 -0.887965E+02  0.340E-02    1.68       0.0  T
   2    -88.7965235 -0.155792E-05  0.199E-02    1.68       1.0  T
   3    -88.7965223  0.116039E-05  0.575E-03    1.68       2.3  T
   4    -88.7965237 -0.142111E-05  0.147E-03    1.68       9.0  T
   5    -88.7965238 -0.105534E-06  0.541E-04    1.68      24.5  T
   6    -88.7965238 -0.291513E-08  0.252E-04    1.68      52.5  T
     SCC iter.                  ...        0 min,  0.021 sec
     gradient                   ...        0 min,  0.082 sec
 * total energy  :   -87.6414020 Eh     change       -0.9595092E-04 Eh
   gradient norm :     0.0039583 Eh/α   predicted    -0.6807545E-04 ( -29.05%)
   displ. norm   :     0.2235941 α      lambda       -0.1017386E-03
   maximum displ.:     0.1052131 α      in ANC's #5, #4, #6, ...

........................................................................
.............................. CYCLE   11 ..............................
........................................................................

 iter      E             dE          RMSdq      gap      omega  full diag
   1    -88.7967713 -0.887968E+02  0.353E-02    1.68       0.0  T
   2    -88.7967726 -0.135629E-05  0.207E-02    1.68       1.0  T
   3    -88.7967713  0.126314E-05  0.557E-03    1.68       2.4  T
   4    -88.7967729 -0.157500E-05  0.127E-03    1.68      10.5  T
   5    -88.7967730 -0.590531E-07  0.527E-04    1.68      25.2  T
   6    -88.7967730 -0.263168E-08  0.248E-04    1.68      53.3  T
     SCC iter.                  ...        0 min,  0.048 sec
     gradient                   ...        0 min,  0.044 sec
 * total energy  :   -87.6414773 Eh     change       -0.7534855E-04 Eh
   gradient norm :     0.0041410 Eh/α   predicted    -0.5341409E-04 ( -29.11%)
   displ. norm   :     0.2085202 α      lambda       -0.8144555E-04
   maximum displ.:     0.0946974 α      in ANC's #4, #5, #3, ...

........................................................................
.............................. CYCLE   12 ..............................
........................................................................

 iter      E             dE          RMSdq      gap      omega  full diag
   1    -88.7965538 -0.887966E+02  0.347E-02    1.68       0.0  T
   2    -88.7965546 -0.773433E-06  0.203E-02    1.68       1.0  T
   3    -88.7965522  0.240349E-05  0.704E-03    1.68       1.9  T
   4    -88.7965550 -0.282714E-05  0.106E-03    1.68      12.4  T
   5    -88.7965550 -0.289987E-07  0.531E-04    1.68      24.9  T
   6    -88.7965550 -0.424487E-08  0.213E-04    1.68      62.1  T
     SCC iter.                  ...        0 min,  0.049 sec
     gradient                   ...        0 min,  0.044 sec
 * total energy  :   -87.6415373 Eh     change       -0.6000719E-04 Eh
   gradient norm :     0.0037357 Eh/α   predicted    -0.4249430E-04 ( -29.18%)
   displ. norm   :     0.1826419 α      lambda       -0.6325409E-04
   maximum displ.:     0.0812613 α      in ANC's #4, #9, #3, ...

........................................................................
.............................. CYCLE   13 ..............................
........................................................................

 iter      E             dE          RMSdq      gap      omega  full diag
   1    -88.7961789 -0.887962E+02  0.314E-02    1.68       0.0  T
   2    -88.7961794 -0.471269E-06  0.184E-02    1.68       1.0  T
   3    -88.7961770  0.235944E-05  0.694E-03    1.68       1.9  T
   4    -88.7961798 -0.273948E-05  0.841E-04    1.68      15.8  T
   5    -88.7961798 -0.139146E-07  0.409E-04    1.68      32.3  T
   6    -88.7961798 -0.117025E-08  0.168E-04    1.68      78.8  T
     SCC iter.                  ...        0 min,  0.048 sec
     gradient                   ...        0 min,  0.044 sec
 * total energy  :   -87.6415840 Eh     change       -0.4664539E-04 Eh
   gradient norm :     0.0027433 Eh/α   predicted    -0.3268411E-04 ( -29.93%)
   displ. norm   :     0.1500928 α      lambda       -0.4759735E-04
   maximum displ.:     0.0666489 α      in ANC's #3, #4, #9, ...

........................................................................
.............................. CYCLE   14 ..............................
........................................................................

 iter      E             dE          RMSdq      gap      omega  full diag
   1    -88.7959528 -0.887960E+02  0.268E-02    1.68       0.0  T
   2    -88.7959533 -0.512664E-06  0.156E-02    1.68       1.0  T
   3    -88.7959520  0.127561E-05  0.529E-03    1.68       2.5  T
   4    -88.7959535 -0.147777E-05  0.961E-04    1.68      13.8  T
   5    -88.7959535 -0.395711E-07  0.375E-04    1.68      35.3  T
   6    -88.7959535 -0.416435E-09  0.130E-04    1.68     101.6  T
     SCC iter.                  ...        0 min,  0.022 sec
     gradient                   ...        0 min,  0.083 sec
 * total energy  :   -87.6416204 Eh     change       -0.3644274E-04 Eh
   gradient norm :     0.0021082 Eh/α   predicted    -0.2434123E-04 ( -33.21%)
   displ. norm   :     0.1633593 α      lambda       -0.4570224E-04
   maximum displ.:     0.0790040 α      in ANC's #3, #4, #1, ...

........................................................................
.............................. CYCLE   15 ..............................
........................................................................

 iter      E             dE          RMSdq      gap      omega  full diag
   1    -88.7958360 -0.887958E+02  0.300E-02    1.68       0.0  T
   2    -88.7958366 -0.632805E-06  0.176E-02    1.68       1.0  T
   3    -88.7958357  0.907078E-06  0.456E-03    1.68       2.9  T
   4    -88.7958368 -0.107305E-05  0.107E-03    1.68      12.3  T
   5    -88.7958368 -0.478237E-07  0.450E-04    1.68      29.4  T
   6    -88.7958368 -0.134915E-08  0.190E-04    1.68      69.7  T
     SCC iter.                  ...        0 min,  0.021 sec
     gradient                   ...        0 min,  0.071 sec
 * total energy  :   -87.6416554 Eh     change       -0.3500570E-04 Eh
   gradient norm :     0.0026802 Eh/α   predicted    -0.2346378E-04 ( -32.97%)
   displ. norm   :     0.1756739 α      lambda       -0.4420647E-04
   maximum displ.:     0.0903989 α      in ANC's #3, #4, #1, ...

........................................................................
.............................. CYCLE   16 ..............................
........................................................................

 iter      E             dE          RMSdq      gap      omega  full diag
   1    -88.7957787 -0.887958E+02  0.334E-02    1.68       0.0  T
   2    -88.7957792 -0.491820E-06  0.196E-02    1.68       1.0  T
   3    -88.7957787  0.459376E-06  0.342E-03    1.68       3.9  T
   4    -88.7957793 -0.605553E-06  0.926E-04    1.68      14.3  T
   5    -88.7957794 -0.209848E-07  0.465E-04    1.68      28.5  T
     SCC iter.                  ...        0 min,  0.018 sec
     gradient                   ...        0 min,  0.070 sec
 * total energy  :   -87.6416915 Eh     change       -0.3609355E-04 Eh
   gradient norm :     0.0033203 Eh/α   predicted    -0.2278678E-04 ( -36.87%)
   displ. norm   :     0.2249692 α      lambda       -0.5797505E-04
   maximum displ.:     0.1202386 α      in ANC's #3, #4, #1, ...

........................................................................
.............................. CYCLE   17 ..............................
........................................................................

 iter      E             dE          RMSdq      gap      omega  full diag
   1    -88.7957687 -0.887958E+02  0.435E-02    1.68       0.0  T
   2    -88.7957692 -0.524091E-06  0.254E-02    1.68       1.0  T
   3    -88.7957690  0.179069E-06  0.287E-03    1.68       4.6  T
   4    -88.7957694 -0.366959E-06  0.100E-03    1.68      13.2  T
   5    -88.7957694 -0.985423E-08  0.468E-04    1.68      28.3  T
   6    -88.7957694 -0.296652E-08  0.156E-04    1.68      85.1  T
     SCC iter.                  ...        0 min,  0.021 sec
     gradient                   ...        0 min,  0.077 sec
 * total energy  :   -87.6417403 Eh     change       -0.4880158E-04 Eh
   gradient norm :     0.0033903 Eh/α   predicted    -0.3045767E-04 ( -37.59%)
   displ. norm   :     0.3095271 α      lambda       -0.8098151E-04
   maximum displ.:     0.1693705 α      in ANC's #3, #4, #1, ...

........................................................................
.............................. CYCLE   18 ..............................
........................................................................

 iter      E             dE          RMSdq      gap      omega  full diag
   1    -88.7955034 -0.887955E+02  0.600E-02    1.68       0.0  T
   2    -88.7955043 -0.883496E-06  0.350E-02    1.68       1.0  T
   3    -88.7955044 -0.159107E-06  0.241E-03    1.68       5.5  T
   4    -88.7955046 -0.129757E-06  0.125E-03    1.68      10.6  T
   5    -88.7955046 -0.118370E-07  0.592E-04    1.68      22.4  T
   6    -88.7955046 -0.847243E-08  0.157E-04    1.68      84.4  T
     SCC iter.                  ...        0 min,  0.022 sec
     gradient                   ...        0 min,  0.073 sec
 * total energy  :   -87.6418076 Eh     change       -0.6726406E-04 Eh
   gradient norm :     0.0031839 Eh/α   predicted    -0.4437174E-04 ( -34.03%)
   displ. norm   :     0.3766909 α      lambda       -0.9893526E-04
   maximum displ.:     0.2097500 α      in ANC's #3, #4, #1, ...

........................................................................
.............................. CYCLE   19 ..............................
........................................................................

 iter      E             dE          RMSdq      gap      omega  full diag
   1    -88.7950512 -0.887951E+02  0.723E-02    1.67       0.0  T
   2    -88.7950526 -0.138213E-05  0.422E-02    1.67       1.0  T
   3    -88.7950528 -0.232453E-06  0.287E-03    1.67       4.6  T
   4    -88.7950530 -0.182165E-06  0.144E-03    1.67       9.2  T
   5    -88.7950530 -0.118701E-07  0.745E-04    1.67      17.8  T
   6    -88.7950530 -0.157881E-07  0.185E-04    1.67      71.8  T
     SCC iter.                  ...        0 min,  0.048 sec
     gradient                   ...        0 min,  0.044 sec
 * total energy  :   -87.6418879 Eh     change       -0.8028906E-04 Eh
   gradient norm :     0.0036259 Eh/α   predicted    -0.5648762E-04 ( -29.64%)
   displ. norm   :     0.4156383 α      lambda       -0.1145183E-03
   maximum displ.:     0.2349143 α      in ANC's #3, #4, #1, ...

........................................................................
.............................. CYCLE   20 ..............................
........................................................................

 iter      E             dE          RMSdq      gap      omega  full diag
   1    -88.7948907 -0.887949E+02  0.782E-02    1.67       0.0  T
   2    -88.7948924 -0.165991E-05  0.456E-02    1.67       1.0  T
   3    -88.7948922  0.160186E-06  0.422E-03    1.67       3.1  T
   4    -88.7948929 -0.677404E-06  0.173E-03    1.67       7.7  T
   5    -88.7948930 -0.389960E-07  0.838E-04    1.67      15.8  T
   6    -88.7948930 -0.102700E-07  0.236E-04    1.67      56.2  T
     SCC iter.                  ...        0 min,  0.041 sec
     gradient                   ...        0 min,  0.044 sec
 * total energy  :   -87.6419790 Eh     change       -0.9115944E-04 Eh
   gradient norm :     0.0046421 Eh/α   predicted    -0.6715375E-04 ( -26.33%)
   displ. norm   :     0.4279558 α      lambda       -0.1262311E-03
   maximum displ.:     0.2453452 α      in ANC's #3, #4, #1, ...
 * RMSD in coord.:     0.5202159 α      energy gain  -0.1682153E-01 Eh

generating ANC from exact Hessian ...
Using Lindh-Hessian (1995)
 Shifting diagonal of input Hessian by    9.8616572400165078E-003
 Lowest  eigenvalues of input Hessian
    0.000000    0.000000    0.000000    0.000000    0.000000    0.000000
    0.010000    0.010138    0.010191    0.010588    0.010745    0.011413
    0.011594    0.012767    0.013018    0.015102    0.016061    0.017533
 Highest eigenvalues
    1.976471    1.980711    2.084992    2.211358    2.230458    2.382137


........................................................................
.............................. CYCLE   21 ..............................
........................................................................

 iter      E             dE          RMSdq      gap      omega  full diag
   1    -88.7951982 -0.887952E+02  0.785E-02    1.67       0.0  T
   2    -88.7951998 -0.160382E-05  0.458E-02    1.67       1.0  T
   3    -88.7951990  0.896019E-06  0.567E-03    1.67       2.3  T
   4    -88.7952005 -0.150860E-05  0.179E-03    1.67       7.4  T
   5    -88.7952005 -0.309902E-07  0.864E-04    1.67      15.3  T
   6    -88.7952005 -0.123837E-07  0.284E-04    1.67      46.6  T
     SCC iter.                  ...        0 min,  0.021 sec
     gradient                   ...        0 min,  0.043 sec
 * total energy  :   -87.6420792 Eh     change       -0.1001114E-03 Eh
   gradient norm :     0.0050925 Eh/α   predicted     0.0000000E+00 (-100.00%)
   displ. norm   :     0.0386335 α      lambda       -0.2960887E-04
   maximum displ.:     0.0187437 α      in ANC's #14, #3, #11, ...

........................................................................
.............................. CYCLE   22 ..............................
........................................................................

 iter      E             dE          RMSdq      gap      omega  full diag
   1    -88.7965422 -0.887965E+02  0.935E-03    1.67       0.0  T
   2    -88.7965425 -0.301166E-06  0.533E-03    1.67       2.5  T
   3    -88.7965424  0.993139E-07  0.227E-03    1.67       5.8  T
   4    -88.7965425 -0.127390E-06  0.685E-04    1.67      19.3  T
   5    -88.7965425 -0.243145E-07  0.175E-04    1.67      75.8  T
     SCC iter.                  ...        0 min,  0.027 sec
     gradient                   ...        0 min,  0.043 sec
 * total energy  :   -87.6421189 Eh     change       -0.3977479E-04 Eh
   gradient norm :     0.0027851 Eh/α   predicted    -0.2468235E-04 ( -37.94%)
   displ. norm   :     0.1061231 α      lambda       -0.7658209E-04
   maximum displ.:     0.0541892 α      in ANC's #14, #3, #10, ...

........................................................................
.............................. CYCLE   23 ..............................
........................................................................

 iter      E             dE          RMSdq      gap      omega  full diag
   1    -88.7978515 -0.887979E+02  0.199E-02    1.67       0.0  T
   2    -88.7978524 -0.828710E-06  0.115E-02    1.67       1.2  T
   3    -88.7978517  0.637471E-06  0.471E-03    1.67       2.8  T
   4    -88.7978525 -0.767834E-06  0.119E-03    1.67      11.1  T
   5    -88.7978526 -0.757245E-07  0.330E-04    1.67      40.1  T
   6    -88.7978526 -0.811283E-09  0.158E-04    1.67      83.8  T
     SCC iter.                  ...        0 min,  0.036 sec
     gradient                   ...        0 min,  0.043 sec
 * total energy  :   -87.6421686 Eh     change       -0.4967488E-04 Eh
   gradient norm :     0.0019887 Eh/α   predicted    -0.3872270E-04 ( -22.05%)
   displ. norm   :     0.1336353 α      lambda       -0.3200203E-04
   maximum displ.:     0.0727048 α      in ANC's #14, #3, #10, ...

........................................................................
.............................. CYCLE   24 ..............................
........................................................................

 iter      E             dE          RMSdq      gap      omega  full diag
   1    -88.7975996 -0.887976E+02  0.212E-02    1.68       0.0  T
   2    -88.7975999 -0.263805E-06  0.124E-02    1.68       1.1  T
   3    -88.7975991  0.822605E-06  0.425E-03    1.68       3.1  T
   4    -88.7976000 -0.953664E-06  0.687E-04    1.68      19.3  T
   5    -88.7976000 -0.145144E-07  0.305E-04    1.68      43.4  T
     SCC iter.                  ...        0 min,  0.018 sec
     gradient                   ...        0 min,  0.059 sec
 * total energy  :   -87.6422027 Eh     change       -0.3414088E-04 Eh
   gradient norm :     0.0036301 Eh/α   predicted    -0.1622766E-04 ( -52.47%)
   displ. norm   :     0.1263602 α      lambda       -0.4357948E-04
   maximum displ.:     0.0719221 α      in ANC's #14, #3, #10, ...

........................................................................
.............................. CYCLE   25 ..............................
........................................................................

 iter      E             dE          RMSdq      gap      omega  full diag
   1    -88.7968352 -0.887968E+02  0.181E-02    1.68       0.0  T
   2    -88.7968354 -0.152245E-06  0.107E-02    1.68       1.2  T
   3    -88.7968351  0.299699E-06  0.247E-03    1.68       5.4  T
   4    -88.7968354 -0.354798E-06  0.546E-04    1.68      24.3  T
   5    -88.7968354 -0.682269E-08  0.267E-04    1.68      49.6  T
     SCC iter.                  ...        0 min,  0.018 sec
     gradient                   ...        0 min,  0.053 sec
 * total energy  :   -87.6422403 Eh     change       -0.3754719E-04 Eh
   gradient norm :     0.0037180 Eh/α   predicted    -0.2214113E-04 ( -41.03%)
   displ. norm   :     0.3242619 α      lambda       -0.1066728E-03
   maximum displ.:     0.1876363 α      in ANC's #14, #3, #10, ...

........................................................................
.............................. CYCLE   26 ..............................
........................................................................

 iter      E             dE          RMSdq      gap      omega  full diag
   1    -88.7938878 -0.887939E+02  0.463E-02    1.68       0.0  T
   2    -88.7938898 -0.200236E-05  0.274E-02    1.69       1.0  T
   3    -88.7938890  0.883493E-06  0.503E-03    1.69       2.6  T
   4    -88.7938900 -0.108433E-05  0.193E-03    1.69       6.9  T
   5    -88.7938902 -0.161556E-06  0.780E-04    1.69      17.0  T
   6    -88.7938902 -0.155309E-08  0.335E-04    1.69      39.5  T
     SCC iter.                  ...        0 min,  0.021 sec
     gradient                   ...        0 min,  0.059 sec
 * total energy  :   -87.6422754 Eh     change       -0.3511902E-04 Eh
   gradient norm :     0.0080688 Eh/α   predicted    -0.5894575E-04 (  67.85%)
   displ. norm   :     0.0811069 α      lambda       -0.8918261E-04
   maximum displ.:     0.0474618 α      in ANC's #14, #10, #3, ...

........................................................................
.............................. CYCLE   27 ..............................
........................................................................

 iter      E             dE          RMSdq      gap      omega  full diag
   1    -88.7955973 -0.887956E+02  0.161E-02    1.68       0.0  T
   2    -88.7955980 -0.693861E-06  0.923E-03    1.68       1.4  T
   3    -88.7955978  0.229124E-06  0.314E-03    1.68       4.2  T
   4    -88.7955980 -0.270204E-06  0.116E-03    1.68      11.4  T
   5    -88.7955981 -0.648641E-07  0.375E-04    1.68      35.3  T
   6    -88.7955981 -0.717733E-09  0.130E-04    1.68     102.2  T
     SCC iter.                  ...        0 min,  0.021 sec
     gradient                   ...        0 min,  0.063 sec
 * total energy  :   -87.6423295 Eh     change       -0.5410852E-04 Eh
   gradient norm :     0.0038535 Eh/α   predicted    -0.4491268E-04 ( -17.00%)
   displ. norm   :     0.1131349 α      lambda       -0.7548572E-04
   maximum displ.:     0.0618639 α      in ANC's #3, #14, #15, ...

........................................................................
.............................. CYCLE   28 ..............................
........................................................................

 iter      E             dE          RMSdq      gap      omega  full diag
   1    -88.7962028 -0.887962E+02  0.174E-02    1.68       0.0  T
   2    -88.7962032 -0.353187E-06  0.102E-02    1.68       1.3  T
   3    -88.7962030  0.197961E-06  0.259E-03    1.68       5.1  T
   4    -88.7962032 -0.233409E-06  0.809E-04    1.68      16.4  T
   5    -88.7962032 -0.316303E-07  0.303E-04    1.68      43.7  T
     SCC iter.                  ...        0 min,  0.018 sec
     gradient                   ...        0 min,  0.043 sec
 * total energy  :   -87.6423950 Eh     change       -0.6550803E-04 Eh
   gradient norm :     0.0031047 Eh/α   predicted    -0.3822591E-04 ( -41.65%)
   displ. norm   :     0.4734546 α      lambda       -0.2412989E-03
   maximum displ.:     0.2642491 α      in ANC's #14, #3, #15, ...

........................................................................
.............................. CYCLE   29 ..............................
........................................................................

 iter      E             dE          RMSdq      gap      omega  full diag
   1    -88.7944019 -0.887944E+02  0.694E-02    1.68       0.0  T
   2    -88.7944052 -0.324897E-05  0.409E-02    1.68       1.0  T
   3    -88.7944044  0.729462E-06  0.609E-03    1.68       2.2  T
   4    -88.7944055 -0.107526E-05  0.250E-03    1.68       5.3  T
   5    -88.7944058 -0.232731E-06  0.106E-03    1.68      12.5  T
   6    -88.7944058 -0.529238E-08  0.298E-04    1.68      44.5  T
   7    -88.7944058 -0.392032E-08  0.921E-05    1.68     143.8  T
     SCC iter.                  ...        0 min,  0.025 sec
     gradient                   ...        0 min,  0.044 sec
 * total energy  :   -87.6425332 Eh     change       -0.1382101E-03 Eh
   gradient norm :     0.0099826 Eh/α   predicted    -0.1476929E-03 (   6.86%)
   displ. norm   :     0.0671494 α      lambda       -0.1492852E-03
   maximum displ.:     0.0310351 α      in ANC's #10, #9, #7, ...

........................................................................
.............................. CYCLE   30 ..............................
........................................................................

 iter      E             dE          RMSdq      gap      omega  full diag
   1    -88.7972526 -0.887973E+02  0.171E-02    1.68       0.0  T
   2    -88.7972543 -0.168831E-05  0.958E-03    1.68       1.4  T
   3    -88.7972542  0.109305E-06  0.370E-03    1.68       3.6  T
   4    -88.7972544 -0.183292E-06  0.132E-03    1.68      10.1  T
   5    -88.7972545 -0.820737E-07  0.432E-04    1.68      30.7  T
   6    -88.7972545 -0.906624E-09  0.226E-04    1.68      58.5  T
     SCC iter.                  ...        0 min,  0.027 sec
     gradient                   ...        0 min,  0.043 sec
 * total energy  :   -87.6426282 Eh     change       -0.9497379E-04 Eh
   gradient norm :     0.0049993 Eh/α   predicted    -0.7498344E-04 ( -21.05%)
   displ. norm   :     0.3398472 α      lambda       -0.1741211E-03
   maximum displ.:     0.1906283 α      in ANC's #14, #3, #15, ...

........................................................................
.............................. CYCLE   31 ..............................
........................................................................

 iter      E             dE          RMSdq      gap      omega  full diag
   1    -88.7967401 -0.887967E+02  0.522E-02    1.67       0.0  T
   2    -88.7967411 -0.989255E-06  0.309E-02    1.67       1.0  T
   3    -88.7967405  0.539765E-06  0.389E-03    1.67       3.4  T
   4    -88.7967414 -0.811197E-06  0.126E-03    1.67      10.5  T
   5    -88.7967414 -0.247120E-07  0.667E-04    1.67      19.8  T
   6    -88.7967414 -0.630121E-08  0.214E-04    1.67      61.8  T
     SCC iter.                  ...        0 min,  0.028 sec
     gradient                   ...        0 min,  0.044 sec
 * total energy  :   -87.6427600 Eh     change       -0.1318228E-03 Eh
   gradient norm :     0.0071071 Eh/α   predicted    -0.9712671E-04 ( -26.32%)
   displ. norm   :     0.3541280 α      lambda       -0.2177257E-03
   maximum displ.:     0.2061188 α      in ANC's #14, #3, #6, ...

........................................................................
.............................. CYCLE   32 ..............................
........................................................................

 iter      E             dE          RMSdq      gap      omega  full diag
   1    -88.7949115 -0.887949E+02  0.566E-02    1.67       0.0  T
   2    -88.7949134 -0.188783E-05  0.334E-02    1.67       1.0  T
   3    -88.7949103  0.311569E-05  0.836E-03    1.67       1.6  T
   4    -88.7949139 -0.361846E-05  0.193E-03    1.67       6.8  T
   5    -88.7949141 -0.149218E-06  0.832E-04    1.67      15.9  T
   6    -88.7949141 -0.536679E-08  0.285E-04    1.67      46.5  T
     SCC iter.                  ...        0 min,  0.021 sec
     gradient                   ...        0 min,  0.059 sec
 * total energy  :   -87.6429087 Eh     change       -0.1486357E-03 Eh
   gradient norm :     0.0090541 Eh/α   predicted    -0.1225325E-03 ( -17.56%)
   displ. norm   :     0.2338247 α      lambda       -0.3248200E-03
   maximum displ.:     0.1257158 α      in ANC's #3, #14, #6, ...

........................................................................
.............................. CYCLE   33 ..............................
........................................................................

 iter      E             dE          RMSdq      gap      omega  full diag
   1    -88.7967808 -0.887968E+02  0.498E-02    1.68       0.0  T
   2    -88.7967880 -0.720305E-05  0.281E-02    1.68       1.0  T
   3    -88.7967837  0.438004E-05  0.133E-02    1.68       1.0  T
   4    -88.7967890 -0.536079E-05  0.354E-03    1.68       3.7  T
   5    -88.7967897 -0.655040E-06  0.863E-04    1.68      15.4  T
   6    -88.7967897 -0.558799E-09  0.434E-04    1.68      30.5  T
     SCC iter.                  ...        0 min,  0.021 sec
     gradient                   ...        0 min,  0.059 sec
 * total energy  :   -87.6430393 Eh     change       -0.1306207E-03 Eh
   gradient norm :     0.0088520 Eh/α   predicted    -0.1712965E-03 (  31.14%)
   displ. norm   :     0.3722452 α      lambda       -0.2320995E-03
   maximum displ.:     0.2190278 α      in ANC's #3, #14, #6, ...

........................................................................
.............................. CYCLE   34 ..............................
........................................................................

 iter      E             dE          RMSdq      gap      omega  full diag
   1    -88.7926529 -0.887927E+02  0.634E-02    1.69       0.0  T
   2    -88.7926558 -0.284056E-05  0.372E-02    1.69       1.0  T
   3    -88.7926479  0.792751E-05  0.127E-02    1.69       1.0  T
   4    -88.7926571 -0.922080E-05  0.211E-03    1.69       6.3  T
   5    -88.7926572 -0.906226E-07  0.103E-03    1.69      12.9  T
   6    -88.7926572  0.779337E-09  0.392E-04    1.69      33.8  T
   7    -88.7926572 -0.526151E-08  0.933E-05    1.69     142.0  T
     SCC iter.                  ...        0 min,  0.025 sec
     gradient                   ...        0 min,  0.056 sec
 * total energy  :   -87.6431452 Eh     change       -0.1059054E-03 Eh
   gradient norm :     0.0115437 Eh/α   predicted    -0.1321392E-03 (  24.77%)
   displ. norm   :     0.0555873 α      lambda       -0.1668779E-03
   maximum displ.:     0.0339523 α      in ANC's #14, #10, #3, ...

........................................................................
.............................. CYCLE   35 ..............................
........................................................................

 iter      E             dE          RMSdq      gap      omega  full diag
   1    -88.7956749 -0.887957E+02  0.173E-02    1.69       0.0  T
   2    -88.7956765 -0.164185E-05  0.979E-03    1.69       1.4  T
   3    -88.7956765  0.455710E-07  0.395E-03    1.69       3.4  T
   4    -88.7956767 -0.237045E-06  0.996E-04    1.69      13.3  T
   5    -88.7956767 -0.328342E-07  0.456E-04    1.69      29.0  T
     SCC iter.                  ...        0 min,  0.018 sec
     gradient                   ...        0 min,  0.059 sec
 * total energy  :   -87.6432602 Eh     change       -0.1149860E-03 Eh
   gradient norm :     0.0058031 Eh/α   predicted    -0.8369709E-04 ( -27.21%)
   displ. norm   :     0.2613933 α      lambda       -0.1798066E-03
   maximum displ.:     0.1549795 α      in ANC's #3, #14, #2, ...

........................................................................
.............................. CYCLE   36 ..............................
........................................................................

 iter      E             dE          RMSdq      gap      omega  full diag
   1    -88.7965543 -0.887966E+02  0.467E-02    1.71       0.0  T
   2    -88.7965564 -0.208060E-05  0.274E-02    1.71       1.0  T
   3    -88.7965532  0.316821E-05  0.826E-03    1.71       1.6  T
   4    -88.7965569 -0.369098E-05  0.195E-03    1.71       6.8  T
   5    -88.7965571 -0.155231E-06  0.702E-04    1.71      18.9  T
   6    -88.7965571 -0.267616E-08  0.303E-04    1.71      43.7  T
     SCC iter.                  ...        0 min,  0.021 sec
     gradient                   ...        0 min,  0.060 sec
 * total energy  :   -87.6433915 Eh     change       -0.1313683E-03 Eh
   gradient norm :     0.0055127 Eh/α   predicted    -0.9606377E-04 ( -26.87%)
   displ. norm   :     0.3328456 α      lambda       -0.1621000E-03
   maximum displ.:     0.1997273 α      in ANC's #3, #14, #2, ...

........................................................................
.............................. CYCLE   37 ..............................
........................................................................

 iter      E             dE          RMSdq      gap      omega  full diag
   1    -88.7957469 -0.887957E+02  0.574E-02    1.72       0.0  T
   2    -88.7957481 -0.110442E-05  0.337E-02    1.72       1.0  T
   3    -88.7957462  0.188214E-05  0.627E-03    1.72       2.1  T
   4    -88.7957484 -0.227487E-05  0.155E-03    1.72       8.5  T
   5    -88.7957485 -0.569228E-07  0.710E-04    1.72      18.7  T
   6    -88.7957485 -0.115141E-08  0.197E-04    1.72      67.2  T
     SCC iter.                  ...        0 min,  0.021 sec
     gradient                   ...        0 min,  0.063 sec
 * total energy  :   -87.6435139 Eh     change       -0.1223861E-03 Eh
   gradient norm :     0.0061905 Eh/α   predicted    -0.9004827E-04 ( -26.42%)
   displ. norm   :     0.3101912 α      lambda       -0.1634675E-03
   maximum displ.:     0.1840961 α      in ANC's #3, #14, #2, ...

........................................................................
.............................. CYCLE   38 ..............................
........................................................................

 iter      E             dE          RMSdq      gap      omega  full diag
   1    -88.7960543 -0.887961E+02  0.543E-02    1.73       0.0  T
   2    -88.7960561 -0.175817E-05  0.317E-02    1.73       1.0  T
   3    -88.7960560  0.113064E-06  0.323E-03    1.73       4.1  T
   4    -88.7960563 -0.303181E-06  0.150E-03    1.73       8.9  T
   5    -88.7960564 -0.758133E-07  0.687E-04    1.73      19.3  T
   6    -88.7960564 -0.147217E-08  0.252E-04    1.73      52.7  T
     SCC iter.                  ...        0 min,  0.022 sec
     gradient                   ...        0 min,  0.059 sec
 * total energy  :   -87.6436279 Eh     change       -0.1139208E-03 Eh
   gradient norm :     0.0036202 Eh/α   predicted    -0.8961621E-04 ( -21.33%)
   displ. norm   :     0.4242899 α      lambda       -0.1359701E-03
   maximum displ.:     0.2572511 α      in ANC's #3, #14, #2, ...

........................................................................
.............................. CYCLE   39 ..............................
........................................................................

 iter      E             dE          RMSdq      gap      omega  full diag
   1    -88.7926866 -0.887927E+02  0.736E-02    1.73       0.0  T
   2    -88.7926884 -0.180972E-05  0.433E-02    1.73       1.0  T
   3    -88.7926866  0.179019E-05  0.664E-03    1.73       2.0  T
   4    -88.7926890 -0.241467E-05  0.204E-03    1.73       6.5  T
   5    -88.7926891 -0.818883E-07  0.107E-03    1.73      12.3  T
   6    -88.7926891 -0.107837E-07  0.286E-04    1.73      46.3  T
   7    -88.7926891 -0.222711E-08  0.113E-04    1.73     117.7  T
     SCC iter.                  ...        0 min,  0.025 sec
     gradient                   ...        0 min,  0.056 sec
 * total energy  :   -87.6436491 Eh     change       -0.2123715E-04 Eh
   gradient norm :     0.0088327 Eh/α   predicted    -0.8024905E-04 ( 277.87%)
   displ. norm   :     0.0891965 α      lambda       -0.2416689E-03
   maximum displ.:     0.0459073 α      in ANC's #2, #5, #9, ...

........................................................................
.............................. CYCLE   40 ..............................
........................................................................

 iter      E             dE          RMSdq      gap      omega  full diag
   1    -88.7976980 -0.887977E+02  0.232E-02    1.73       0.0  T
   2    -88.7977013 -0.331930E-05  0.129E-02    1.72       1.0  T
   3    -88.7977008  0.506561E-06  0.600E-03    1.72       2.2  T
   4    -88.7977015 -0.692499E-06  0.231E-03    1.72       5.7  T
   5    -88.7977017 -0.240183E-06  0.656E-04    1.72      20.2  T
   6    -88.7977017 -0.181322E-08  0.338E-04    1.72      39.2  T
     SCC iter.                  ...        0 min,  0.021 sec
     gradient                   ...        0 min,  0.044 sec
 * total energy  :   -87.6437666 Eh     change       -0.1175237E-03 Eh
   gradient norm :     0.0046840 Eh/α   predicted    -0.1217722E-03 (   3.62%)
   displ. norm   :     0.1804177 α      lambda       -0.6982857E-04
   maximum displ.:     0.1081984 α      in ANC's #3, #2, #14, ...

........................................................................
.............................. CYCLE   41 ..............................
........................................................................

 iter      E             dE          RMSdq      gap      omega  full diag
   1    -88.7974507 -0.887975E+02  0.295E-02    1.72       0.0  T
   2    -88.7974510 -0.226074E-06  0.173E-02    1.72       1.0  T
   3    -88.7974508  0.191012E-06  0.224E-03    1.72       5.9  T
   4    -88.7974510 -0.271308E-06  0.755E-04    1.72      17.5  T
   5    -88.7974511 -0.108029E-07  0.350E-04    1.72      37.9  T
     SCC iter.                  ...        0 min,  0.018 sec
     gradient                   ...        0 min,  0.044 sec
 * total energy  :   -87.6438166 Eh     change       -0.4993689E-04 Eh
   gradient norm :     0.0045152 Eh/α   predicted    -0.3601367E-04 ( -27.88%)
   displ. norm   :     0.3932047 α      lambda       -0.1100602E-03
   maximum displ.:     0.2424803 α      in ANC's #3, #2, #14, ...

........................................................................
.............................. CYCLE   42 ..............................
........................................................................

 iter      E             dE          RMSdq      gap      omega  full diag
   1    -88.7952701 -0.887953E+02  0.623E-02    1.73       0.0  T
   2    -88.7952710 -0.891759E-06  0.365E-02    1.73       1.0  T
   3    -88.7952698  0.118191E-05  0.542E-03    1.73       2.4  T
   4    -88.7952714 -0.162244E-05  0.152E-03    1.73       8.7  T
   5    -88.7952715 -0.172045E-07  0.657E-04    1.73      20.2  T
   6    -88.7952715 -0.371000E-08  0.165E-04    1.73      80.2  T
     SCC iter.                  ...        0 min,  0.030 sec
     gradient                   ...        0 min,  0.044 sec
 * total energy  :   -87.6438607 Eh     change       -0.4418039E-04 Eh
   gradient norm :     0.0056440 Eh/α   predicted    -0.6334149E-04 (  43.37%)
   displ. norm   :     0.0794775 α      lambda       -0.8281763E-04
   maximum displ.:     0.0365017 α      in ANC's #7, #14, #9, ...
 * RMSD in coord.:     0.5252703 α      energy gain  -0.1881692E-02 Eh

generating ANC from exact Hessian ...
Using Lindh-Hessian (1995)
 Shifting diagonal of input Hessian by    9.8644940415592731E-003
 Lowest  eigenvalues of input Hessian
    0.000000    0.000000    0.000000    0.000000    0.000000    0.000000
    0.010000    0.010151    0.010203    0.010600    0.010728    0.011409
    0.011657    0.012720    0.012909    0.015151    0.016011    0.017561
 Highest eigenvalues
    1.980927    1.981533    2.087515    2.212187    2.223919    2.383871


........................................................................
.............................. CYCLE   43 ..............................
........................................................................

 iter      E             dE          RMSdq      gap      omega  full diag
   1    -88.7978314 -0.887978E+02  0.178E-02    1.72       0.0  T
   2    -88.7978321 -0.657031E-06  0.103E-02    1.73       1.3  T
   3    -88.7978319  0.206092E-06  0.303E-03    1.73       4.4  T
   4    -88.7978322 -0.309626E-06  0.887E-04    1.73      14.9  T
   5    -88.7978322 -0.266766E-07  0.401E-04    1.73      33.1  T
     SCC iter.                  ...        0 min,  0.018 sec
     gradient                   ...        0 min,  0.044 sec
 * total energy  :   -87.6439067 Eh     change       -0.4600134E-04 Eh
   gradient norm :     0.0019055 Eh/α   predicted     0.0000000E+00 (-100.00%)
   displ. norm   :     0.0377849 α      lambda       -0.3794918E-05
   maximum displ.:     0.0187185 α      in ANC's #12, #8, #3, ...

........................................................................
.............................. CYCLE   44 ..............................
........................................................................

 iter      E             dE          RMSdq      gap      omega  full diag
   1    -88.7981673 -0.887982E+02  0.867E-03    1.72       0.0  T
   2    -88.7981674 -0.820763E-07  0.511E-03    1.72       2.6  T
   3    -88.7981673  0.684078E-07  0.126E-03    1.72      10.5  T
   4    -88.7981674 -0.895521E-07  0.301E-04    1.72      44.1  T
   5    -88.7981674 -0.260317E-08  0.149E-04    1.72      89.1  T
     SCC iter.                  ...        0 min,  0.018 sec
     gradient                   ...        0 min,  0.042 sec
 * total energy  :   -87.6439231 Eh     change       -0.1633354E-04 Eh
   gradient norm :     0.0005159 Eh/α   predicted    -0.7744636E-05 ( -52.58%)
   displ. norm   :     0.0766048 α      lambda       -0.1505944E-04
   maximum displ.:     0.0398521 α      in ANC's #8, #12, #3, ...

........................................................................
.............................. CYCLE   45 ..............................
........................................................................

 iter      E             dE          RMSdq      gap      omega  full diag
   1    -88.7981477 -0.887981E+02  0.115E-02    1.72       0.0  T
   2    -88.7981478 -0.660684E-07  0.679E-03    1.72       1.9  T
   3    -88.7981477  0.102915E-06  0.142E-03    1.72       9.3  T
   4    -88.7981478 -0.126469E-06  0.324E-04    1.72      40.8  T
   5    -88.7981478 -0.223456E-08  0.170E-04    1.72      77.9  T
     SCC iter.                  ...        0 min,  0.018 sec
     gradient                   ...        0 min,  0.044 sec
 * total energy  :   -87.6439403 Eh     change       -0.1727335E-04 Eh
   gradient norm :     0.0012486 Eh/α   predicted    -0.7557834E-05 ( -56.25%)
   displ. norm   :     0.1432108 α      lambda       -0.2047377E-04
   maximum displ.:     0.0721049 α      in ANC's #8, #3, #12, ...

........................................................................
.............................. CYCLE   46 ..............................
........................................................................

 iter      E             dE          RMSdq      gap      omega  full diag
   1    -88.7979226 -0.887979E+02  0.195E-02    1.72       0.0  T
   2    -88.7979227 -0.108995E-06  0.115E-02    1.72       1.2  T
   3    -88.7979225  0.163328E-06  0.191E-03    1.72       6.9  T
   4    -88.7979227 -0.208631E-06  0.488E-04    1.72      27.2  T
   5    -88.7979227 -0.326123E-08  0.251E-04    1.72      52.8  T
     SCC iter.                  ...        0 min,  0.019 sec
     gradient                   ...        0 min,  0.044 sec
 * total energy  :   -87.6439626 Eh     change       -0.2230623E-04 Eh
   gradient norm :     0.0015732 Eh/α   predicted    -0.1033042E-04 ( -53.69%)
   displ. norm   :     0.1586226 α      lambda       -0.1784776E-04
   maximum displ.:     0.0775628 α      in ANC's #3, #8, #7, ...

........................................................................
.............................. CYCLE   47 ..............................
........................................................................

 iter      E             dE          RMSdq      gap      omega  full diag
   1    -88.7977523 -0.887978E+02  0.203E-02    1.71       0.0  T
   2    -88.7977524 -0.112964E-06  0.119E-02    1.71       1.1  T
   3    -88.7977523  0.156361E-06  0.193E-03    1.71       6.9  T
   4    -88.7977525 -0.202328E-06  0.527E-04    1.71      25.1  T
   5    -88.7977525 -0.425901E-08  0.262E-04    1.71      50.6  T
     SCC iter.                  ...        0 min,  0.034 sec
     gradient                   ...        0 min,  0.042 sec
 * total energy  :   -87.6439820 Eh     change       -0.1936411E-04 Eh
   gradient norm :     0.0011752 Eh/α   predicted    -0.9032900E-05 ( -53.35%)
   displ. norm   :     0.1409011 α      lambda       -0.1476080E-04
   maximum displ.:     0.0762789 α      in ANC's #3, #7, #8, ...

........................................................................
.............................. CYCLE   48 ..............................
........................................................................

 iter      E             dE          RMSdq      gap      omega  full diag
   1    -88.7978323 -0.887978E+02  0.171E-02    1.71       0.0  T
   2    -88.7978324 -0.103896E-06  0.100E-02    1.71       1.3  T
   3    -88.7978324  0.569886E-07  0.131E-03    1.71      10.1  T
   4    -88.7978324 -0.868893E-07  0.465E-04    1.71      28.5  T
   5    -88.7978325 -0.420988E-08  0.236E-04    1.71      56.2  T
     SCC iter.                  ...        0 min,  0.019 sec
     gradient                   ...        0 min,  0.052 sec
 * total energy  :   -87.6439983 Eh     change       -0.1632917E-04 Eh
   gradient norm :     0.0007075 Eh/α   predicted    -0.7447584E-05 ( -54.39%)
   displ. norm   :     0.1191335 α      lambda       -0.1253162E-04
   maximum displ.:     0.0713667 α      in ANC's #3, #7, #13, ...

........................................................................
.............................. CYCLE   49 ..............................
........................................................................

 iter      E             dE          RMSdq      gap      omega  full diag
   1    -88.7980844 -0.887981E+02  0.149E-02    1.71       0.0  T
   2    -88.7980846 -0.108878E-06  0.876E-03    1.71       1.5  T
   3    -88.7980845  0.351184E-07  0.107E-03    1.71      12.4  T
   4    -88.7980846 -0.574681E-07  0.423E-04    1.71      31.3  T
   5    -88.7980846 -0.534044E-08  0.201E-04    1.71      66.0  T
     SCC iter.                  ...        0 min,  0.019 sec
     gradient                   ...        0 min,  0.044 sec
 * total energy  :   -87.6440120 Eh     change       -0.1367908E-04 Eh
   gradient norm :     0.0006982 Eh/α   predicted    -0.6305827E-05 ( -53.90%)
   displ. norm   :     0.1052947 α      lambda       -0.9290903E-05
   maximum displ.:     0.0664282 α      in ANC's #3, #13, #6, ...

........................................................................
.............................. CYCLE   50 ..............................
........................................................................

 iter      E             dE          RMSdq      gap      omega  full diag
   1    -88.7981206 -0.887981E+02  0.142E-02    1.71       0.0  T
   2    -88.7981207 -0.779071E-07  0.834E-03    1.71       1.6  T
   3    -88.7981207  0.439115E-07  0.109E-03    1.72      12.1  T
   4    -88.7981207 -0.626434E-07  0.405E-04    1.71      32.7  T
   5    -88.7981207 -0.488792E-08  0.185E-04    1.71      71.5  T
     SCC iter.                  ...        0 min,  0.019 sec
     gradient                   ...        0 min,  0.065 sec
 * total energy  :   -87.6440224 Eh     change       -0.1034663E-04 Eh
   gradient norm :     0.0007174 Eh/α   predicted    -0.4669097E-05 ( -54.87%)
   displ. norm   :     0.0922041 α      lambda       -0.7459273E-05
   maximum displ.:     0.0600467 α      in ANC's #3, #13, #6, ...

........................................................................
.............................. CYCLE   51 ..............................
........................................................................

 iter      E             dE          RMSdq      gap      omega  full diag
   1    -88.7982185 -0.887982E+02  0.145E-02    1.72       0.0  T
   2    -88.7982186 -0.790021E-07  0.853E-03    1.72       1.6  T
   3    -88.7982185  0.627278E-07  0.124E-03    1.72      10.7  T
   4    -88.7982186 -0.829963E-07  0.409E-04    1.72      32.4  T
   5    -88.7982186 -0.503516E-08  0.186E-04    1.72      71.1  T
     SCC iter.                  ...        0 min,  0.019 sec
     gradient                   ...        0 min,  0.068 sec
 * total energy  :   -87.6440309 Eh     change       -0.8542361E-05 Eh
   gradient norm :     0.0005413 Eh/α   predicted    -0.3747689E-05 ( -56.13%)
   displ. norm   :     0.0894695 α      lambda       -0.6453571E-05
   maximum displ.:     0.0593456 α      in ANC's #3, #13, #6, ...

........................................................................
.............................. CYCLE   52 ..............................
........................................................................

 iter      E             dE          RMSdq      gap      omega  full diag
   1    -88.7981557 -0.887982E+02  0.153E-02    1.72       0.0  T
   2    -88.7981558 -0.630253E-07  0.898E-03    1.72       1.5  T
   3    -88.7981557  0.566031E-07  0.122E-03    1.72      10.9  T
   4    -88.7981558 -0.787060E-07  0.372E-04    1.72      35.6  T
   5    -88.7981558 -0.310246E-08  0.179E-04    1.72      74.1  T
     SCC iter.                  ...        0 min,  0.019 sec
     gradient                   ...        0 min,  0.066 sec
 * total energy  :   -87.6440385 Eh     change       -0.7591957E-05 Eh
   gradient norm :     0.0003881 Eh/α   predicted    -0.3238982E-05 ( -57.34%)
   displ. norm   :     0.0853125 α      lambda       -0.5764613E-05
   maximum displ.:     0.0578374 α      in ANC's #3, #12, #13, ...

........................................................................
.............................. CYCLE   53 ..............................
........................................................................

 iter      E             dE          RMSdq      gap      omega  full diag
   1    -88.7981891 -0.887982E+02  0.155E-02    1.72       0.0  T
   2    -88.7981891 -0.658036E-07  0.905E-03    1.72       1.5  T
   3    -88.7981891  0.349406E-07  0.107E-03    1.72      12.3  T
   4    -88.7981892 -0.548227E-07  0.379E-04    1.72      35.0  T
   5    -88.7981892 -0.366879E-08  0.173E-04    1.72      76.7  T
     SCC iter.                  ...        0 min,  0.019 sec
     gradient                   ...        0 min,  0.076 sec
 * total energy  :   -87.6440452 Eh     change       -0.6740867E-05 Eh
   gradient norm :     0.0004953 Eh/α   predicted    -0.2892488E-05 ( -57.09%)
   displ. norm   :     0.0792787 α      lambda       -0.4686364E-05
   maximum displ.:     0.0555306 α      in ANC's #3, #12, #8, ...

........................................................................
.............................. CYCLE   54 ..............................
........................................................................

 iter      E             dE          RMSdq      gap      omega  full diag
   1    -88.7981473 -0.887981E+02  0.140E-02    1.72       0.0  T
   2    -88.7981474 -0.500800E-07  0.818E-03    1.72       1.6  T
   3    -88.7981474  0.687558E-08  0.739E-04    1.72      17.9  T
   4    -88.7981474 -0.219251E-07  0.315E-04    1.72      42.0  T
     SCC iter.                  ...        0 min,  0.015 sec
     gradient                   ...        0 min,  0.044 sec
 * total energy  :   -87.6440508 Eh     change       -0.5537790E-05 Eh
   gradient norm :     0.0004787 Eh/α   predicted    -0.2351080E-05 ( -57.54%)
   displ. norm   :     0.0698768 α      lambda       -0.3808616E-05
   maximum displ.:     0.0505449 α      in ANC's #3, #12, #8, ...

........................................................................
.............................. CYCLE   55 ..............................
........................................................................

 iter      E             dE          RMSdq      gap      omega  full diag
   1    -88.7981355 -0.887981E+02  0.114E-02    1.72       0.0  T
   2    -88.7981356 -0.364997E-07  0.668E-03    1.72       2.0  T
   3    -88.7981355  0.207038E-07  0.828E-04    1.72      16.0  T
   4    -88.7981356 -0.325122E-07  0.267E-04    1.72      49.6  T
     SCC iter.                  ...        0 min,  0.015 sec
     gradient                   ...        0 min,  0.045 sec
 * total energy  :   -87.6440554 Eh     change       -0.4602116E-05 Eh
   gradient norm :     0.0003573 Eh/α   predicted    -0.1910912E-05 ( -58.48%)
   displ. norm   :     0.0634186 α      lambda       -0.3304551E-05
   maximum displ.:     0.0472306 α      in ANC's #3, #12, #14, ...

   *** GEOMETRY OPTIMIZATION CONVERGED AFTER 55 ITERATIONS ***

------------------------------------------------------------------------
 total energy gain   :        -0.0188979 Eh      -11.8586 kcal/mol
 total RMSD          :         0.9587929 a0        0.5074 Å
 total power (kW/mol):        -0.9021155 (step)   -8.9552 (real)
------------------------------------------------------------------------

 ANCopt (total)                0 d,  0 h,  0 min,  5.541 sec
 optimizer setup                ...        0 min,  0.000 sec (  0.002%)
 model hessian                  ...        0 min,  0.108 sec (  1.944%)
 ANC generation                 ...        0 min,  0.008 sec (  0.149%)
 coordinate transformation      ...        0 min,  0.001 sec (  0.013%)
 single point calculation       ...        0 min,  5.407 sec ( 97.584%)
 optimization log               ...        0 min,  0.009 sec (  0.166%)
 hessian update                 ...        0 min,  0.001 sec (  0.020%)
 rational function              ...        0 min,  0.005 sec (  0.084%)

================
 final structure:
================
57
 xtb: 6.7.1 (edcfbbe)
O           -3.64075298218404        1.54824404194635        2.06779253315390
C           -3.53777461795971        0.86987824238410        1.05872826169587
C           -2.61873786722990        1.09583482658321       -0.03190704065858
C           -1.69616166221889        2.26890814182129        0.12341915432924
C           -0.44084266945520        1.88058000649413        0.92012435411105
N            0.45864711370332        1.05269149760073        0.13082931988830
C            1.43726865561576        1.85763936236563       -0.58343472600003
C            2.23543991732389        1.00081980265522       -1.56069252474950
C            2.91766801992653       -0.17904023006409       -0.86021102521710
C            1.87138342538173       -0.92193844811973       -0.01548687763395
C            1.13649660637898        0.03639909530998        0.91431799660204
C            4.07994634361802        0.23109439447552       -0.02032100187140
N            4.06615467923258        1.21769774930463        0.82401185135219
O            5.28617022354499        1.30799118207168        1.44322687091660
C            6.07725793881358        0.33631955937312        0.96292958500046
C            5.36552751489814       -0.41116359234913        0.00502296894399
C            5.97421598386608       -1.48443544207950       -0.64235512624190
C            7.27659819705540       -1.78081808642823       -0.31567554744294
C            7.95302696343669       -1.01642293704701        0.63951761931546
F            9.22665552911825       -1.34936830592368        0.92051002830029
C            7.39192340218728        0.05173362943686        1.30453700625067
C           -2.61595273602065        0.24732666329151       -1.10171800274731
N           -3.46891662155998       -0.80906289977296       -1.19317592211743
C           -4.29705721356660       -1.01913523198864       -0.22616876771924
N           -4.36515910146723       -0.24887876355842        0.88179333308729
C           -5.38092976863523       -0.55641774647121        1.86403257108060
C           -6.72988199076155       -0.67720797542266        1.15874773783964
C           -6.68098243417186       -1.73244774197685        0.04008367082009
C           -5.24228703469334       -2.17474992085811       -0.26866653201032
C           -1.68071498223049        0.39887919121833       -2.25692173650951
H           -2.22560273156330        3.03675085827229        0.69100852238129
H           -1.41389806001777        2.67093554148062       -0.84835161578828
H           -0.76388501437266        1.32515457439730        1.80296997430690
H            0.06453482895138        2.79310766468000        1.27159234086964
H            0.90587418225279        2.63335547844636       -1.14025836243868
H            2.13511842947768        2.34420854922039        0.11705454337911
H            2.98130413295505        1.62275982499224       -2.05879126146989
H            1.56411596181856        0.59772146516947       -2.32168522103600
H            3.30425201718905       -0.86570498203057       -1.62202914121758
H            1.14685889543893       -1.38085881108555       -0.69005373000096
H            2.34973651923251       -1.71083167903325        0.56875852751425
H            1.85290754472230        0.48317156698821        1.62439449447299
H            0.38581767936115       -0.52120420225281        1.48024922464527
H            5.43925570022686       -2.06589507228628       -1.37651904230453
H            7.79925809386831       -2.59971211305984       -0.78355832287121
H            7.93896791923724        0.62140424540192        2.03569048739138
H           -5.37785637586930        0.25969778788110        2.59105938855022
H           -5.12694009254435       -1.48954960494662        2.37789937990597
H           -6.97763892664180        0.29877910247383        0.73784532426181
H           -7.49555298404439       -0.92570058335536        1.89321979882296
H           -7.26142458790715       -2.61250686663825        0.31947743015651
H           -7.12544653450853       -1.32207784203079       -0.86702530724961
H           -4.91807700984392       -2.90448310652678        0.47895674929773
H           -5.17899169882179       -2.64386477189124       -1.24912133031025
H           -1.91681893746805        1.29948828027204       -2.82179489366818
H           -1.78008349772431       -0.46280508548665       -2.91030695895881
H           -0.66421428534800        0.47780971664633       -1.88277103039014

 Bond Distances (Angstroems)
 ---------------------------
O1-C2=1.2202         C2-O1=1.2202         C2-C3=1.4440         C2-N25=1.4027        C3-C2=1.4440         C3-C4=1.5005         
[...]
   A. Katbashev, J. Kohn, J. Koopman, C. Lavigne, S. Lehtola, F. März, M. Müller,
   F. Musil, H. Neugebauer, J. Pisarek, C. Plett, P. Pracht, F. Pultar,
   J. Seibert, P. Shushkov, S. Spicher, M. Stahn, M. Steiner, T. Strunk,
   J. Stückrath, T. Rose, and J. Unsleber
   
 * started run on 2025/05/15 at 16:35:30.627     
   ID    Z sym.   atoms
    1    8 O      1, 14
    2    6 C      2-5, 7-12, 15-19, 21, 22, 24, 26-30
    3    7 N      6, 13, 23, 25
    4    9 F      20
    5    1 H      31-57

           -------------------------------------------------
          |                Calculation Setup                |
           -------------------------------------------------

          program call               : xtb /rds/general/user/hgt20/home/callum/QDESCP/Risperidone_rdkit_conf_21/Risperidone_rdkit_conf_21.xyz --acc 1 --gfn 2 --chrg 0 --uhf 2 --etemp 300 --input /rds/general/user/hgt20/home/callum/QDESCP/Risperidone_rdkit_conf_21/Risperidone_rdkit_conf_21_xtb.inp -P 1
          hostname                   : login-c
          coordinate file            : /rds/general/user/hgt20/home/callum/QDESCP/Risperidone_rdkit_conf_21/Risperidone_rdkit_conf_21.xyz
          omp threads                :                     1


           -------------------------------------------------
          |                 G F N 2 - x T B                 |
           -------------------------------------------------

        Reference                      10.1021/acs.jctc.8b01176
      * Hamiltonian:
        H0-scaling (s, p, d)           1.850000    2.230000    2.230000
        zeta-weighting                 0.500000
      * Dispersion:
        s8                             2.700000
        a1                             0.520000
        a2                             5.000000
        s9                             5.000000
      * Repulsion:
        kExp                           1.500000    1.000000
        rExp                           1.000000
      * Coulomb:
        alpha                          2.000000
        third order                    shell-resolved
        anisotropic                    true
        a3                             3.000000
        a5                             4.000000
        cn-shift                       1.200000
        cn-exp                         4.000000
        max-rad                        5.000000


          ...................................................
          :                      SETUP                      :
          :.................................................:
          :  # basis functions                 147          :
          :  # atomic orbitals                 147          :
          :  # shells                           87          :
          :  # electrons                       158          :
          :  max. iterations                   250          :
          :  Hamiltonian                  GFN2-xTB          :
          :  restarted?                      false          :
          :  GBSA solvation                  false          :
          :  PC potential                    false          :
          :  electronic temp.          300.0000000     K    :
          :  accuracy                    1.0000000          :
          :  -> integral cutoff          0.2500000E+02      :
          :  -> integral neglect         0.1000000E-07      :
          :  -> SCF convergence          0.1000000E-05 Eh   :
          :  -> wf. convergence          0.1000000E-03 e    :
          :  Broyden damping             0.4000000          :
          :  net charge                          0          :
          :  unpaired electrons                  2          :
          ...................................................

 iter      E             dE          RMSdq      gap      omega  full diag
   1    -88.3842708 -0.883843E+02  0.334E+00    0.17       0.0  T
   2    -88.2337900  0.150481E+00  0.285E+00    1.00       1.0  T
   3    -88.4090906 -0.175301E+00  0.198E+00    1.03       1.0  T
   4    -88.4774049 -0.683144E-01  0.152E+00    0.91       1.0  T
   5    -88.4289797  0.484252E-01  0.132E+00    0.38       1.0  T
   6    -88.3984719  0.305078E-01  0.123E+00    0.51       1.0  T
   7    -88.5877498 -0.189278E+00  0.880E-01    0.44       1.0  T
   8    -88.5976924 -0.994266E-02  0.740E-01    0.28       1.0  T
   9    -88.5780101  0.196823E-01  0.790E-01    0.27       1.0  T
  10    -88.6808859 -0.102876E+00  0.185E-01    0.02       1.0  T
  11    -88.6813992 -0.513332E-03  0.150E-01    0.02       1.0  T
  12    -88.6811792  0.220002E-03  0.113E-01    0.00       1.0  T
  13    -88.6793730  0.180620E-02  0.139E-01    0.04       1.0  T
  14    -88.6824614 -0.308836E-02  0.680E-02    0.01       1.0  T
  15    -88.6831724 -0.711030E-03  0.275E-02    0.02       1.0  T
  16    -88.6832863 -0.113868E-03  0.102E-02    0.02       1.3  T
  17    -88.6833040 -0.177521E-04  0.413E-03    0.02       3.2  T
  18    -88.6832987  0.533881E-05  0.614E-03    0.02       2.2  T
  19    -88.6833061 -0.737862E-05  0.145E-03    0.02       9.1  T
  20    -88.6833058  0.216974E-06  0.179E-03    0.02       7.4  T
  21    -88.6833064 -0.590839E-06  0.295E-04    0.02      44.9  T
  22    -88.6833064  0.568891E-07  0.611E-04    0.02      21.7  T

   *** convergence criteria satisfied after 22 iterations ***

         #    Occupation            Energy/Eh            Energy/eV
      -------------------------------------------------------------
         1        2.0000           -0.8011816             -21.8013
       ...           ...                  ...                  ...
        74        2.0000           -0.4011787             -10.9166
        75        2.0000           -0.3961801             -10.7806
        76        1.9995           -0.3928448             -10.6899
        77        1.9607           -0.3887045             -10.5772
        78        1.9468           -0.3884039             -10.5690
        79        1.0931           -0.3835057             -10.4357
        80        0.5813           -0.2522349              -6.8637 (HOMO)
        81        0.4187           -0.2516117              -6.8467 (LUMO)
        82                         -0.2264102              -6.1609
        83                         -0.2129873              -5.7957
        84                         -0.1795218              -4.8850
        85                         -0.1243029              -3.3825
       ...                                ...                  ...
       147                          0.7031983              19.1350
      -------------------------------------------------------------
                  HL-Gap            0.0006231 Eh            0.0170 eV
             Fermi-level           -0.3187960 Eh           -8.6749 eV

 transition dipole moment (au) for excitation:          79          80
     X       Y       Z   
  -0.4470  -0.8147  -0.5127  total (au/Debye):    1.061   2.698
 dE (eV)             :    3.572
 oscillator strength :  0.13941E+00

 SCC (total)                   0 d,  0 h,  0 min,  0.170 sec
 SCC setup                      ...        0 min,  0.001 sec (  0.330%)
 Dispersion                     ...        0 min,  0.001 sec (  0.479%)
 classical contributions        ...        0 min,  0.000 sec (  0.152%)
 integral evaluation            ...        0 min,  0.012 sec (  7.010%)
 iterations                     ...        0 min,  0.088 sec ( 51.633%)
 molecular gradient             ...        0 min,  0.059 sec ( 34.556%)
 printout                       ...        0 min,  0.010 sec (  5.836%)

         :::::::::::::::::::::::::::::::::::::::::::::::::::::
         ::                     SUMMARY                     ::
         :::::::::::::::::::::::::::::::::::::::::::::::::::::
         :: total energy             -87.529226188477 Eh    ::
         :: gradient norm              0.116525089246 Eh/a0 ::
         :: HOMO-LUMO gap              0.016956483496 eV    ::
         ::.................................................::
         :: SCC energy               -88.682827953980 Eh    ::
         :: -> isotropic ES            0.078384952047 Eh    ::
         :: -> anisotropic ES          0.002283063896 Eh    ::
         :: -> anisotropic XC          0.035527913962 Eh    ::
         :: -> dispersion             -0.064156960623 Eh    ::
         :: repulsion energy           1.153601765503 Eh    ::
         :: add. restraining           0.000000000000 Eh    ::
         :: total charge              -0.000000000002 e     ::
         :::::::::::::::::::::::::::::::::::::::::::::::::::::

           -------------------------------------------------
          |                Property Printout                |
           -------------------------------------------------

    * Orbital Energies and Occupations

         #    Occupation            Energy/Eh            Energy/eV
      -------------------------------------------------------------
         1        2.0000           -0.8011816             -21.8013
       ...           ...                  ...                  ...
        68        2.0000           -0.4431827             -12.0596
        69        2.0000           -0.4388307             -11.9412
        70        2.0000           -0.4318442             -11.7511
        71        2.0000           -0.4273890             -11.6298
        72        2.0000           -0.4256608             -11.5828
        73        2.0000           -0.4029618             -10.9651
        74        2.0000           -0.4011787             -10.9166
        75        2.0000           -0.3961801             -10.7806
        76        1.9995           -0.3928448             -10.6899
        77        1.9607           -0.3887045             -10.5772
        78        1.9468           -0.3884039             -10.5690
        79        1.0931           -0.3835057             -10.4357
        80        0.5813           -0.2522349              -6.8637 (HOMO)
        81        0.4187           -0.2516117              -6.8467 (LUMO)
        82                         -0.2264102              -6.1609
        83                         -0.2129873              -5.7957
        84                         -0.1795218              -4.8850
        85                         -0.1243029              -3.3825
        86                         -0.0806427              -2.1944
        87                         -0.0286321              -0.7791
        88                         -0.0099369              -0.2704
        89                         -0.0000383              -0.0010
        90                          0.0415621               1.1310
        91                          0.0515440               1.4026
       ...                                ...                  ...
       147                          0.7031983              19.1350
      -------------------------------------------------------------
                  HL-Gap            0.0006231 Eh            0.0170 eV
             Fermi-level           -0.3187960 Eh           -8.6749 eV

     #   Z          covCN         q      C6AA      α(0)
     1   8 O        0.858    -0.441    22.523     6.363
     2   6 C        2.781     0.253    22.757     7.814
     3   6 C        2.960    -0.053    29.307     8.880
     4   6 C        3.808    -0.058    21.616     6.618
     5   6 C        3.759     0.000    20.624     6.474
     6   7 N        2.730    -0.088    22.958     7.116
     7   6 C        3.769    -0.009    20.768     6.495
     8   6 C        3.808    -0.062    21.683     6.629
     9   6 C        3.857    -0.020    20.896     6.501
    10   6 C        3.810    -0.062    21.675     6.627
    11   6 C        3.766    -0.002    20.662     6.479
    12   6 C        3.006     0.058    26.691     8.475
    13   7 N        1.956    -0.164    25.325     7.463
    14   8 O        1.801    -0.159    16.689     5.517
    15   6 C        3.049     0.132    25.065     8.211
    16   6 C        3.031    -0.045    29.087     8.846
    17   6 C        2.914    -0.052    29.284     8.874
    18   6 C        2.920    -0.060    29.481     8.904
    19   6 C        2.797     0.157    24.588     8.123
    20   9 F        0.788    -0.230    11.547     4.014
    21   6 C        2.906    -0.087    30.176     9.007
    22   6 C        2.949     0.071    26.420     8.430
    23   7 N        1.845    -0.258    27.552     7.779
    24   6 C        2.901     0.138    24.981     8.195
    25   7 N        2.753    -0.091    23.006     7.124
    26   6 C        3.756     0.003    20.582     6.468
    27   6 C        3.804    -0.063    21.710     6.633
    28   6 C        3.803    -0.058    21.620     6.620
    29   6 C        3.812    -0.072    21.860     6.655
    30   6 C        3.761    -0.120    22.850     6.814
    31   1 H        0.924     0.071     2.070     2.250
    32   1 H        0.925     0.053     2.282     2.362
    33   1 H        0.924     0.059     2.210     2.325
    34   1 H        0.923     0.054     2.276     2.359
    35   1 H        0.924     0.051     2.305     2.374
    36   1 H        0.923     0.072     2.064     2.247
    37   1 H        0.924     0.048     2.342     2.393
    38   1 H        0.924     0.047     2.363     2.404
    39   1 H        0.924     0.043     2.413     2.429
    40   1 H        0.924     0.051     2.312     2.378
    41   1 H        0.924     0.045     2.379     2.412
    42   1 H        0.923     0.063     2.162     2.299
    43   1 H        0.924     0.047     2.356     2.401
    44   1 H        0.926     0.029     2.594     2.519
    45   1 H        0.926     0.050     2.318     2.381
    46   1 H        0.926     0.059     2.206     2.322
    47   1 H        0.924     0.080     1.982     2.201
    48   1 H        0.924     0.046     2.376     2.410
    49   1 H        0.924     0.044     2.393     2.419
    50   1 H        0.925     0.045     2.382     2.413
    51   1 H        0.924     0.042     2.428     2.437
    52   1 H        0.924     0.043     2.403     2.424
    53   1 H        0.924     0.053     2.280     2.361
    54   1 H        0.925     0.064     2.149     2.293
    55   1 H        0.925     0.050     2.319     2.381
    56   1 H        0.925     0.063     2.169     2.303
    57   1 H        0.925     0.068     2.109     2.271

 Mol. C6AA /au·bohr⁶  :      34266.044614
 Mol. C8AA /au·bohr⁸  :     797067.632503
 Mol. α(0) /au        :        281.918995


Wiberg/Mayer (AO) data.
largest (>0.10) Wiberg bond orders for each atom

 ---------------------------------------------------------------------------
     #   Z sym  total        # sym  WBO       # sym  WBO       # sym  WBO
 ---------------------------------------------------------------------------
     1   8 O    1.932 --     2 C    1.608
     2   6 C    3.920 --     1 O    1.608     3 C    1.165    25 N    1.041
     3   6 C    3.774 --    22 C    1.272     2 C    1.165     4 C    1.038
     4   6 C    3.980 --     3 C    1.038    32 H    0.964    31 H    0.962
                             5 C    0.944
     5   6 C    3.964 --     6 N    1.024    33 H    0.970    34 H    0.948
                             4 C    0.944
     6   7 N    3.323 --     5 C    1.024     7 C    1.004    11 C    1.002
     7   6 C    3.967 --     8 C    1.006     6 N    1.004    35 H    0.966
                            36 H    0.933
     8   6 C    3.991 --     7 C    1.006     9 C    0.987    37 H    0.974
                            38 H    0.969
     9   6 C    3.994 --    12 C    1.003     8 C    0.987    10 C    0.978
                            39 H    0.964
    10   6 C    3.988 --    11 C    1.005     9 C    0.978    41 H    0.975
                            40 H    0.973
    11   6 C    3.973 --    10 C    1.005     6 N    1.002    43 H    0.968
                            42 H    0.938
    12   6 C    3.877 --    13 N    1.514    16 C    1.206     9 C    1.003
    13   7 N    2.813 --    12 C    1.514    14 O    1.033
    14   8 O    2.351 --    15 C    1.111    13 N    1.033
    15   6 C    3.926 --    21 C    1.348    16 C    1.271    14 O    1.111
    16   6 C    3.947 --    17 C    1.274    15 C    1.271    12 C    1.206
    17   6 C    3.858 --    18 C    1.474    16 C    1.274    44 H    0.968
    18   6 C    3.976 --    17 C    1.474    19 C    1.359    45 H    0.968
    19   6 C    3.799 --    21 C    1.369    18 C    1.359    20 F    0.954
    20   9 F    1.070 --    19 C    0.954
    21   6 C    3.887 --    19 C    1.369    15 C    1.348    46 H    0.965
    22   6 C    3.778 --    23 N    1.299     3 C    1.272    30 C    1.031
    23   7 N    3.021 --    24 C    1.454    22 C    1.299
    24   6 C    3.808 --    23 N    1.454    25 N    1.179    29 C    1.012
    25   7 N    3.470 --    24 C    1.179     2 C    1.041    26 C    0.985
    26   6 C    3.963 --    27 C    0.997    25 N    0.985    47 H    0.963
                            48 H    0.962
    27   6 C    3.990 --    28 C    1.003    26 C    0.997    49 H    0.980
                            50 H    0.977
    28   6 C    3.989 --    27 C    1.003    29 C    0.989    52 H    0.981
                            51 H    0.980
    29   6 C    3.991 --    24 C    1.012    28 C    0.989    54 H    0.973
                            53 H    0.952
    30   6 C    3.986 --    22 C    1.031    56 H    0.983    55 H    0.961
                            57 H    0.946
    31   1 H    0.991 --     4 C    0.962
    32   1 H    0.995 --     4 C    0.964
    33   1 H    0.996 --     5 C    0.970
    34   1 H    0.987 --     5 C    0.948
    35   1 H    0.995 --     7 C    0.966
    36   1 H    0.978 --     7 C    0.933
    37   1 H    0.997 --     8 C    0.974
    38   1 H    0.996 --     8 C    0.969
    39   1 H    0.997 --     9 C    0.964
    40   1 H    0.995 --    10 C    0.973
    41   1 H    0.998 --    10 C    0.975
    42   1 H    0.981 --    11 C    0.938
    43   1 H    0.997 --    11 C    0.968
    44   1 H    0.999 --    17 C    0.968
    45   1 H    0.997 --    18 C    0.968
    46   1 H    0.996 --    21 C    0.965
    47   1 H    0.993 --    26 C    0.963
    48   1 H    0.992 --    26 C    0.962
    49   1 H    0.998 --    27 C    0.980
    50   1 H    0.997 --    27 C    0.977
    51   1 H    0.997 --    28 C    0.980
    52   1 H    0.997 --    28 C    0.981
    53   1 H    0.989 --    29 C    0.952
    54   1 H    0.995 --    29 C    0.973
    55   1 H    0.989 --    30 C    0.961
    56   1 H    0.995 --    30 C    0.983
    57   1 H    0.988 --    30 C    0.946
 ---------------------------------------------------------------------------

Topologies differ in total number of bonds
Writing topology from bond orders to xtbtopo.mol

molecular dipole:
                 x           y           z       tot (Debye)
 q only:       -3.144      -0.461      -1.242
   full:       -2.847      -0.497      -0.996       7.769
molecular quadrupole (traceless):
                xx          xy          yy          xz          yz          zz
 q only:      -37.027      17.057      21.567     -10.878      -7.371      15.460
  q+dip:      -35.149      16.192      21.314     -11.762      -8.514      13.835
   full:      -34.271      15.393      20.880     -12.212     -10.981      13.391


           -------------------------------------------------
          | TOTAL ENERGY              -87.529226188477 Eh   |
          | GRADIENT NORM               0.116525089246 Eh/α |
          | HOMO-LUMO GAP               0.016956483496 eV   |
           -------------------------------------------------

------------------------------------------------------------------------
 * finished run on 2025/05/15 at 16:35:30.817     
------------------------------------------------------------------------
 total:
 * wall-time:     0 d,  0 h,  0 min,  0.189 sec
 *  cpu-time:     0 d,  0 h,  0 min,  0.164 sec
 * ratio c/w:     0.865 speedup
 SCF:
 * wall-time:     0 d,  0 h,  0 min,  0.171 sec
 *  cpu-time:     0 d,  0 h,  0 min,  0.148 sec
 * ratio c/w:     0.867 speedup


