----- Optimization -----
      -----------------------------------------------------------      
     |                   =====================                   |     
     |                           x T B                           |     
     |                   =====================                   |     
     |                         S. Grimme                         |     
     |          Mulliken Center for Theoretical Chemistry        |     
     |                    University of Bonn                     |     
      -----------------------------------------------------------      

   * xtb version 6.7.1 (edcfbbe) compiled by 'conda@3ef47c1a292c' on 2024-11-25

   xtb is free software: you can redistribute it and/or modify it under
   the terms of the GNU Lesser General Public License as published by
   the Free Software Foundation, either version 3 of the License, or
   (at your option) any later version.
   
   xtb is distributed in the hope that it will be useful,
   but WITHOUT ANY WARRANTY; without even the implied warranty of
   MERCHANTABILITY or FITNESS FOR A PARTICULAR PURPOSE.  See the
   GNU Lesser General Public License for more details.
   
   Cite this work as:
   * C. Bannwarth, E. Caldeweyher, S. Ehlert, A. Hansen, P. Pracht,
     J. Seibert, S. Spicher, S. Grimme, WIREs Comput. Mol. Sci., 2020, 11,
     e01493. DOI: 10.1002/wcms.1493
   
   for GFN2-xTB:
   * C. Bannwarth, S. Ehlert and S. Grimme., J. Chem. Theory Comput., 2019,
     15, 1652-1671. DOI: 10.1021/acs.jctc.8b01176
   for GFN1-xTB:
   * S. Grimme, C. Bannwarth, P. Shushkov, J. Chem. Theory Comput., 2017,
     13, 1989-2009. DOI: 10.1021/acs.jctc.7b00118
   for GFN0-xTB:
   * P. Pracht, E. Caldeweyher, S. Ehlert, S. Grimme, ChemRxiv, 2019, preprint.
     DOI: 10.26434/chemrxiv.8326202.v1
   for GFN-FF:
   * S. Spicher and S. Grimme, Angew. Chem. Int. Ed., 2020, 59, 15665-15673.
     DOI: 10.1002/anie.202004239
   
   for ALPB and GBSA implicit solvation:
   * S. Ehlert, M. Stahn, S. Spicher, S. Grimme, J. Chem. Theory Comput.,
     2021, 17, 4250-4261. DOI: 10.1021/acs.jctc.1c00471
   
   for ddCOSMO and CPCM-X implicit solvation:
   * M. Stahn, S. Ehlert, S. Grimme, J. Phys. Chem. A,
     2023, XX, XXXX-XXXX. DOI: 10.1021/acs.jpca.3c04382
   
   for DFT-D4:
   * E. Caldeweyher, C. Bannwarth and S. Grimme, J. Chem. Phys., 2017,
     147, 034112. DOI: 10.1063/1.4993215
   * E. Caldeweyher, S. Ehlert, A. Hansen, H. Neugebauer, S. Spicher,
     C. Bannwarth and S. Grimme, J. Chem. Phys., 2019, 150, 154122.
     DOI: 10.1063/1.5090222
   * E. Caldeweyher, J.-M. Mewes, S. Ehlert and S. Grimme, Phys. Chem. Chem. Phys.
     2020, 22, 8499-8512. DOI: 10.1039/D0CP00502A
   
   for sTDA-xTB:
   * S. Grimme and C. Bannwarth, J. Chem. Phys., 2016, 145, 054103.
     DOI: 10.1063/1.4959605
   
   in the mass-spec context:
   * V. Asgeirsson, C. Bauer and S. Grimme, Chem. Sci., 2017, 8, 4879.
     DOI: 10.1039/c7sc00601b
   * J. Koopman and S. Grimme, ACS Omega 2019, 4, 12, 15120-15133.
     DOI: 10.1021/acsomega.9b02011
   
   for metadynamics refer to:
   * S. Grimme, J. Chem. Theory Comput., 2019, 155, 2847-2862
     DOI: 10.1021/acs.jctc.9b00143
   
   for SPH calculations refer to:
   * S. Spicher and S. Grimme, J. Chem. Theory Comput., 2021, 17, 1701-1714
     DOI: 10.1021/acs.jctc.0c01306
   
   for ONIOM refer to:
   * C. Plett, A. Katbashev, S. Ehlert, S. Grimme, M. Bursch,
     Phys. Chem. Chem. Phys., 2023, 25, 17860-17868. DOI: 10.1039/D3CP02178E
   
   for DIPRO refer to:
   * J. Kohn, N. Gildemeister, S. Grimme, D. Fazzi, A. Hansen,
     J. Chem. Phys., 2023, just accepted.
   
   for PTB refer to:
   * S. Grimme, M. Mueller, A. Hansen, J. Chem. Phys., 2023, 158, 124111.
     DOI: 10.1063/5.0137838
   
   with help from (in alphabetical order)
   P. Atkinson, C. Bannwarth, F. Bohle, G. Brandenburg, E. Caldeweyher
   M. Checinski, S. Dohm, S. Ehlert, S. Ehrlich, I. Gerasimov, C. Hölzer
   A. Katbashev, J. Kohn, J. Koopman, C. Lavigne, S. Lehtola, F. März, M. Müller,
   F. Musil, H. Neugebauer, J. Pisarek, C. Plett, P. Pracht, F. Pultar,
   J. Seibert, P. Shushkov, S. Spicher, M. Stahn, M. Steiner, T. Strunk,
   J. Stückrath, T. Rose, and J. Unsleber
   
 * started run on 2025/05/15 at 16:18:53.035     
   ID    Z sym.   atoms
    1    6 C      1-4, 6-8, 11-16, 20, 21, 23-26, 28, 30, 31, 33
    2    7 N      5, 9, 10, 19, 22, 32
    3   16 S      17
    4    8 O      18, 27, 29, 34
    5    1 H      35-66

           -------------------------------------------------
          |                Calculation Setup                |
           -------------------------------------------------

          program call               : xtb /rds/general/user/hgt20/home/callum/QDESCP/Vardenafil_rdkit_conf_3/Vardenafil_rdkit_conf_3.xyz --opt normal --acc 1 --gfn 2 --chrg 0 --uhf 0 -P 1
          hostname                   : login-c
          coordinate file            : /rds/general/user/hgt20/home/callum/QDESCP/Vardenafil_rdkit_conf_3/Vardenafil_rdkit_conf_3.xyz
          omp threads                :                     1


           -------------------------------------------------
          |                 G F N 2 - x T B                 |
           -------------------------------------------------

        Reference                      10.1021/acs.jctc.8b01176
      * Hamiltonian:
        H0-scaling (s, p, d)           1.850000    2.230000    2.230000
        zeta-weighting                 0.500000
      * Dispersion:
        s8                             2.700000
        a1                             0.520000
        a2                             5.000000
        s9                             5.000000
      * Repulsion:
        kExp                           1.500000    1.000000
        rExp                           1.000000
      * Coulomb:
        alpha                          2.000000
        third order                    shell-resolved
        anisotropic                    true
        a3                             3.000000
        a5                             4.000000
        cn-shift                       1.200000
        cn-exp                         4.000000
        max-rad                        5.000000


          ...................................................
          :                      SETUP                      :
          :.................................................:
          :  # basis functions                 174          :
          :  # atomic orbitals                 173          :
          :  # shells                          101          :
          :  # electrons                       184          :
          :  max. iterations                   250          :
          :  Hamiltonian                  GFN2-xTB          :
          :  restarted?                      false          :
          :  GBSA solvation                  false          :
          :  PC potential                    false          :
          :  electronic temp.          300.0000000     K    :
          :  accuracy                    1.0000000          :
          :  -> integral cutoff          0.2500000E+02      :
          :  -> integral neglect         0.1000000E-07      :
          :  -> SCF convergence          0.1000000E-05 Eh   :
          :  -> wf. convergence          0.1000000E-03 e    :
          :  Broyden damping             0.4000000          :
          :  net charge                          0          :
          :  unpaired electrons                  0          :
          ...................................................

 iter      E             dE          RMSdq      gap      omega  full diag
   1   -103.6098784 -0.103610E+03  0.419E+00    2.36       0.0  T
   2   -103.8355499 -0.225671E+00  0.270E+00    1.67       1.0  T
   3   -103.8576781 -0.221282E-01  0.139E+00    1.87       1.0  T
   4   -103.8698862 -0.122081E-01  0.492E-01    1.27       1.0  T
   5   -103.8792918 -0.940560E-02  0.187E-01    1.36       1.0  T
   6   -103.8796159 -0.324135E-03  0.955E-02    1.35       1.0  T
   7   -103.8797605 -0.144586E-03  0.565E-02    1.39       1.0  T
   8   -103.8798327 -0.721713E-04  0.285E-02    1.39       1.0  T
   9   -103.8798421 -0.940728E-05  0.102E-02    1.39       1.2  T
  10   -103.8798448 -0.270614E-05  0.488E-03    1.39       2.5  T
  11   -103.8798451 -0.289842E-06  0.215E-03    1.39       5.7  T
  12   -103.8798451 -0.852069E-07  0.661E-04    1.39      18.6  T
  13   -103.8798452 -0.118916E-07  0.318E-04    1.39      38.8  T

   *** convergence criteria satisfied after 13 iterations ***

         #    Occupation            Energy/Eh            Energy/eV
      -------------------------------------------------------------
         1        2.0000           -0.7729551             -21.0332
       ...           ...                  ...                  ...
        86        2.0000           -0.4138608             -11.2617
        87        2.0000           -0.4103834             -11.1671
        88        2.0000           -0.3944562             -10.7337
        89        2.0000           -0.3851569             -10.4807
        90        2.0000           -0.3807273             -10.3601
        91        2.0000           -0.3738969             -10.1743
        92        2.0000           -0.3544903              -9.6462 (HOMO)
        93                         -0.3033814              -8.2554 (LUMO)
        94                         -0.2716586              -7.3922
        95                         -0.2548582              -6.9350
        96                         -0.2321279              -6.3165
        97                         -0.1931837              -5.2568
       ...                                ...                  ...
       173                          1.1500654              31.2949
      -------------------------------------------------------------
                  HL-Gap            0.0511089 Eh            1.3907 eV
             Fermi-level           -0.3289359 Eh           -8.9508 eV

 SCC (total)                   0 d,  0 h,  0 min,  0.255 sec
 SCC setup                      ...        0 min,  0.001 sec (  0.294%)
 Dispersion                     ...        0 min,  0.001 sec (  0.411%)
 classical contributions        ...        0 min,  0.000 sec (  0.134%)
 integral evaluation            ...        0 min,  0.051 sec ( 20.143%)
 iterations                     ...        0 min,  0.111 sec ( 43.468%)
 molecular gradient             ...        0 min,  0.090 sec ( 35.387%)
 printout                       ...        0 min,  0.000 sec (  0.159%)

         :::::::::::::::::::::::::::::::::::::::::::::::::::::
         ::                     SUMMARY                     ::
         :::::::::::::::::::::::::::::::::::::::::::::::::::::
         :: total energy            -102.651144204306 Eh    ::
         :: gradient norm              0.104658890848 Eh/a0 ::
         :: HOMO-LUMO gap              1.390745303796 eV    ::
         ::.................................................::
         :: SCC energy              -103.879046903222 Eh    ::
         :: -> isotropic ES            0.146806930195 Eh    ::
         :: -> anisotropic ES          0.005967891937 Eh    ::
         :: -> anisotropic XC          0.051463392714 Eh    ::
         :: -> dispersion             -0.074943677424 Eh    ::
         :: repulsion energy           1.227902698915 Eh    ::
         :: add. restraining           0.000000000000 Eh    ::
         :: total charge              -0.000000000000 e     ::
         :::::::::::::::::::::::::::::::::::::::::::::::::::::

      ----------------------------------------------------------- 
     |                   =====================                   |
     |                        A N C O P T                        |
     |                   =====================                   |
     |               Approximate Normal Coordinate               |
     |                Rational Function Optimizer                |
      ----------------------------------------------------------- 
      ----------------------------------------------------------- 
     |                   =====================                   |
     |                        A N C O P T                        |
     |                   =====================                   |
     |               Approximate Normal Coordinate               |
     |                Rational Function Optimizer                |
      ----------------------------------------------------------- 

          ...................................................
          :                      SETUP                      :
          :.................................................:
          :   optimization level            normal          :
          :   max. optcycles                   200          :
          :   ANC micro-cycles                  20          :
          :   degrees of freedom               192          :
          :.................................................:
          :   RF solver                   davidson          :
          :   write xtbopt.log                true          :
          :   linear?                        false          :
          :   energy convergence         0.5000000E-05 Eh   :
          :   grad. convergence          0.1000000E-02 Eh/α :
          :   maxmium RF displ.          1.0000000          :
          :   Hlow (freq-cutoff)         0.1000000E-01      :
          :   Hmax (freq-cutoff)         5.0000000          :
          :   S6 in model hess.         20.0000000          :
          ...................................................

generating ANC from exact Hessian ...
Using Lindh-Hessian (1995)
 Shifting diagonal of input Hessian by    9.8950037618323553E-003
 Lowest  eigenvalues of input Hessian
    0.000000    0.000000    0.000000    0.000000    0.000000    0.000000
    0.010000    0.010027    0.010110    0.010393    0.010586    0.010967
    0.010990    0.011362    0.011615    0.012074    0.012406    0.012578
 Highest eigenvalues
    2.084734    2.103257    2.317263    2.431778    2.520881    3.432253


........................................................................
.............................. CYCLE    1 ..............................
........................................................................

 iter      E             dE          RMSdq      gap      omega  full diag
   1   -103.8798452 -0.103880E+03  0.130E-04    1.39       0.0  T
   2   -103.8798452 -0.140332E-09  0.841E-05    1.39     146.4  T
   3   -103.8798452 -0.552802E-10  0.567E-05    1.39     217.1  T
     SCC iter.                  ...        0 min,  0.043 sec
     gradient                   ...        0 min,  0.059 sec
 * total energy  :  -102.6511442 Eh     change       -0.1706923E-08 Eh
   gradient norm :     0.1046565 Eh/α   predicted     0.0000000E+00 (-100.00%)
   displ. norm   :     0.3301965 α      lambda       -0.1903967E-01
   maximum displ.:     0.1365837 α      in ANC's #64, #35, #75, ...

........................................................................
.............................. CYCLE    2 ..............................
........................................................................

 iter      E             dE          RMSdq      gap      omega  full diag
   1   -103.9301184 -0.103930E+03  0.182E-01    1.45       0.0  T
   2   -103.9303353 -0.216880E-03  0.117E-01    1.50       1.0  T
   3   -103.9303337  0.159659E-05  0.610E-02    1.50       1.0  T
   4   -103.9304071 -0.733727E-04  0.198E-02    1.51       1.0  T
   5   -103.9304227 -0.155971E-04  0.573E-03    1.51       2.1  T
   6   -103.9304227 -0.929707E-08  0.181E-03    1.51       6.8  T
   7   -103.9304228 -0.109066E-06  0.784E-04    1.51      15.7  T
   8   -103.9304228 -0.137112E-07  0.379E-04    1.51      32.5  T
     SCC iter.                  ...        0 min,  0.040 sec
     gradient                   ...        0 min,  0.085 sec
 * total energy  :  -102.6646381 Eh     change       -0.1349391E-01 Eh
   gradient norm :     0.0468703 Eh/α   predicted    -0.1056324E-01 ( -21.72%)
   displ. norm   :     0.3106179 α      lambda       -0.7001655E-02
   maximum displ.:     0.0834249 α      in ANC's #64, #18, #21, ...

........................................................................
.............................. CYCLE    3 ..............................
........................................................................

 iter      E             dE          RMSdq      gap      omega  full diag
   1   -103.9589536 -0.103959E+03  0.138E-01    1.50       0.0  T
   2   -103.9590923 -0.138714E-03  0.882E-02    1.54       1.0  T
   3   -103.9591018 -0.956284E-05  0.452E-02    1.54       1.0  T
   4   -103.9591401 -0.382062E-04  0.168E-02    1.55       1.0  T
   5   -103.9591497 -0.964453E-05  0.570E-03    1.55       2.2  T
   6   -103.9591497  0.509309E-08  0.169E-03    1.55       7.3  T
   7   -103.9591498 -0.118804E-06  0.621E-04    1.55      19.8  T
   8   -103.9591498 -0.368354E-08  0.285E-04    1.55      43.1  T
     SCC iter.                  ...        0 min,  0.068 sec
     gradient                   ...        0 min,  0.090 sec
 * total energy  :  -102.6687666 Eh     change       -0.4128513E-02 Eh
   gradient norm :     0.0167425 Eh/α   predicted    -0.3840130E-02 (  -6.99%)
   displ. norm   :     0.2097040 α      lambda       -0.1138494E-02
   maximum displ.:     0.0820807 α      in ANC's #18, #14, #8, ...

........................................................................
.............................. CYCLE    4 ..............................
........................................................................

 iter      E             dE          RMSdq      gap      omega  full diag
   1   -103.9613945 -0.103961E+03  0.612E-02    1.54       0.0  T
   2   -103.9614153 -0.208044E-04  0.343E-02    1.55       1.0  T
   3   -103.9614126  0.273323E-05  0.173E-02    1.56       1.0  T
   4   -103.9614223 -0.974071E-05  0.549E-03    1.56       2.2  T
   5   -103.9614232 -0.855180E-06  0.248E-03    1.56       5.0  T
   6   -103.9614233 -0.839670E-07  0.794E-04    1.56      15.5  T
   7   -103.9614233 -0.208556E-07  0.271E-04    1.56      45.4  T
     SCC iter.                  ...        0 min,  0.036 sec
     gradient                   ...        0 min,  0.081 sec
 * total energy  :  -102.6696437 Eh     change       -0.8770816E-03 Eh
   gradient norm :     0.0147757 Eh/α   predicted    -0.5942944E-03 ( -32.24%)
   displ. norm   :     0.3304883 α      lambda       -0.1211969E-02
   maximum displ.:     0.1281728 α      in ANC's #18, #8, #14, ...

........................................................................
.............................. CYCLE    5 ..............................
........................................................................

 iter      E             dE          RMSdq      gap      omega  full diag
   1   -103.9607063 -0.103961E+03  0.832E-02    1.55       0.0  T
   2   -103.9607590 -0.527436E-04  0.452E-02    1.55       1.0  T
   3   -103.9607609 -0.191746E-05  0.244E-02    1.56       1.0  T
   4   -103.9607747 -0.137567E-04  0.697E-03    1.56       1.8  T
   5   -103.9607765 -0.178947E-05  0.340E-03    1.56       3.6  T
   6   -103.9607767 -0.219298E-06  0.105E-03    1.56      11.7  T
   7   -103.9607767 -0.462611E-07  0.377E-04    1.56      32.6  T
   8   -103.9607767 -0.895156E-09  0.182E-04    1.56      67.5  T
     SCC iter.                  ...        0 min,  0.040 sec
     gradient                   ...        0 min,  0.093 sec
 * total energy  :  -102.6704774 Eh     change       -0.8336829E-03 Eh
   gradient norm :     0.0115611 Eh/α   predicted    -0.6721768E-03 ( -19.37%)
   displ. norm   :     0.2720277 α      lambda       -0.5742193E-03
   maximum displ.:     0.1133370 α      in ANC's #8, #14, #4, ...

........................................................................
.............................. CYCLE    6 ..............................
........................................................................

 iter      E             dE          RMSdq      gap      omega  full diag
   1   -103.9606334 -0.103961E+03  0.549E-02    1.56       0.0  T
   2   -103.9606625 -0.290970E-04  0.304E-02    1.56       1.0  T
   3   -103.9606665 -0.395678E-05  0.174E-02    1.56       1.0  T
   4   -103.9606716 -0.514338E-05  0.483E-03    1.56       2.5  T
   5   -103.9606727 -0.104974E-05  0.212E-03    1.56       5.8  T
   6   -103.9606728 -0.757200E-07  0.770E-04    1.56      16.0  T
   7   -103.9606728 -0.225863E-07  0.264E-04    1.56      46.6  T
     SCC iter.                  ...        0 min,  0.082 sec
     gradient                   ...        0 min,  0.091 sec
 * total energy  :  -102.6708980 Eh     change       -0.4205819E-03 Eh
   gradient norm :     0.0092144 Eh/α   predicted    -0.3083672E-03 ( -26.68%)
   displ. norm   :     0.2877135 α      lambda       -0.4449158E-03
   maximum displ.:     0.1192618 α      in ANC's #8, #4, #14, ...

........................................................................
.............................. CYCLE    7 ..............................
........................................................................

 iter      E             dE          RMSdq      gap      omega  full diag
   1   -103.9615610 -0.103962E+03  0.498E-02    1.57       0.0  T
   2   -103.9615809 -0.198374E-04  0.281E-02    1.56       1.0  T
   3   -103.9615826 -0.174992E-05  0.163E-02    1.57       1.0  T
   4   -103.9615879 -0.522819E-05  0.420E-03    1.57       2.9  T
   5   -103.9615886 -0.751732E-06  0.177E-03    1.57       7.0  T
   6   -103.9615887 -0.590651E-07  0.687E-04    1.57      17.9  T
   7   -103.9615887 -0.153031E-07  0.241E-04    1.57      51.2  T
     SCC iter.                  ...        0 min,  0.081 sec
     gradient                   ...        0 min,  0.096 sec
 * total energy  :  -102.6712208 Eh     change       -0.3228681E-03 Eh
   gradient norm :     0.0073743 Eh/α   predicted    -0.2408745E-03 ( -25.40%)
   displ. norm   :     0.2720868 α      lambda       -0.3028140E-03
   maximum displ.:     0.1289839 α      in ANC's #4, #8, #14, ...

........................................................................
.............................. CYCLE    8 ..............................
........................................................................

 iter      E             dE          RMSdq      gap      omega  full diag
   1   -103.9627766 -0.103963E+03  0.429E-02    1.57       0.0  T
   2   -103.9627846 -0.800531E-05  0.240E-02    1.57       1.0  T
   3   -103.9627826  0.201851E-05  0.130E-02    1.57       1.0  T
   4   -103.9627878 -0.519596E-05  0.298E-03    1.57       4.1  T
   5   -103.9627881 -0.277695E-06  0.137E-03    1.57       9.0  T
   6   -103.9627881 -0.463017E-07  0.491E-04    1.57      25.1  T
   7   -103.9627881 -0.776097E-08  0.173E-04    1.57      71.3  T
     SCC iter.                  ...        0 min,  0.079 sec
     gradient                   ...        0 min,  0.105 sec
 * total energy  :  -102.6714414 Eh     change       -0.2205778E-03 Eh
   gradient norm :     0.0066653 Eh/α   predicted    -0.1626165E-03 ( -26.28%)
   displ. norm   :     0.2544014 α      lambda       -0.2093831E-03
   maximum displ.:     0.1363426 α      in ANC's #4, #7, #8, ...

........................................................................
.............................. CYCLE    9 ..............................
........................................................................

 iter      E             dE          RMSdq      gap      omega  full diag
   1   -103.9636805 -0.103964E+03  0.369E-02    1.57       0.0  T
   2   -103.9636835 -0.306332E-05  0.206E-02    1.57       1.0  T
   3   -103.9636815  0.202751E-05  0.881E-03    1.57       1.4  T
   4   -103.9636847 -0.320082E-05  0.219E-03    1.57       5.6  T
   5   -103.9636848 -0.739207E-07  0.102E-03    1.57      12.1  T
   6   -103.9636848 -0.370231E-07  0.331E-04    1.57      37.2  T
   7   -103.9636848 -0.431766E-08  0.116E-04    1.57     105.7  T
     SCC iter.                  ...        0 min,  0.086 sec
     gradient                   ...        0 min,  0.108 sec
 * total energy  :  -102.6715963 Eh     change       -0.1548928E-03 Eh
   gradient norm :     0.0059875 Eh/α   predicted    -0.1114680E-03 ( -28.04%)
   displ. norm   :     0.2423898 α      lambda       -0.1572896E-03
   maximum displ.:     0.1430308 α      in ANC's #4, #7, #11, ...

........................................................................
.............................. CYCLE   10 ..............................
........................................................................

 iter      E             dE          RMSdq      gap      omega  full diag
   1   -103.9642141 -0.103964E+03  0.336E-02    1.57       0.0  T
   2   -103.9642159 -0.179967E-05  0.187E-02    1.57       1.0  T
   3   -103.9642151  0.854977E-06  0.599E-03    1.57       2.1  T
   4   -103.9642164 -0.135349E-05  0.213E-03    1.57       5.8  T
   5   -103.9642165 -0.656918E-07  0.767E-04    1.57      16.0  T
   6   -103.9642165 -0.239000E-07  0.260E-04    1.57      47.4  T
     SCC iter.                  ...        0 min,  0.031 sec
     gradient                   ...        0 min,  0.110 sec
 * total energy  :  -102.6717156 Eh     change       -0.1192834E-03 Eh
   gradient norm :     0.0048306 Eh/α   predicted    -0.8326593E-04 ( -30.19%)
   displ. norm   :     0.2305147 α      lambda       -0.1273727E-03
   maximum displ.:     0.1458144 α      in ANC's #4, #7, #9, ...

........................................................................
.............................. CYCLE   11 ..............................
........................................................................

 iter      E             dE          RMSdq      gap      omega  full diag
   1   -103.9645823 -0.103965E+03  0.323E-02    1.56       0.0  T
   2   -103.9645839 -0.160665E-05  0.177E-02    1.56       1.0  T
   3   -103.9645833  0.548914E-06  0.560E-03    1.56       2.2  T
   4   -103.9645841 -0.789874E-06  0.250E-03    1.56       4.9  T
   5   -103.9645843 -0.185210E-06  0.821E-04    1.56      15.0  T
   6   -103.9645843 -0.158569E-07  0.250E-04    1.56      49.2  T
     SCC iter.                  ...        0 min,  0.031 sec
     gradient                   ...        0 min,  0.103 sec
 * total energy  :  -102.6718142 Eh     change       -0.9861801E-04 Eh
   gradient norm :     0.0036719 Eh/α   predicted    -0.6707155E-04 ( -31.99%)
   displ. norm   :     0.2181192 α      lambda       -0.1047971E-03
   maximum displ.:     0.1435532 α      in ANC's #4, #7, #9, ...

........................................................................
.............................. CYCLE   12 ..............................
........................................................................

 iter      E             dE          RMSdq      gap      omega  full diag
   1   -103.9648220 -0.103965E+03  0.314E-02    1.56       0.0  T
   2   -103.9648235 -0.153405E-05  0.169E-02    1.56       1.0  T
   3   -103.9648230  0.499748E-06  0.570E-03    1.56       2.2  T
   4   -103.9648237 -0.643782E-06  0.248E-03    1.56       5.0  T
   5   -103.9648239 -0.235419E-06  0.815E-04    1.56      15.1  T
   6   -103.9648239 -0.131402E-07  0.228E-04    1.56      53.9  T
     SCC iter.                  ...        0 min,  0.031 sec
     gradient                   ...        0 min,  0.101 sec
 * total energy  :  -102.6718972 Eh     change       -0.8298239E-04 Eh
   gradient norm :     0.0033994 Eh/α   predicted    -0.5489240E-04 ( -33.85%)
   displ. norm   :     0.2025077 α      lambda       -0.8822112E-04
   maximum displ.:     0.1361805 α      in ANC's #4, #7, #9, ...

........................................................................
.............................. CYCLE   13 ..............................
........................................................................

 iter      E             dE          RMSdq      gap      omega  full diag
   1   -103.9651581 -0.103965E+03  0.292E-02    1.55       0.0  T
   2   -103.9651593 -0.116876E-05  0.159E-02    1.55       1.0  T
   3   -103.9651589  0.434645E-06  0.503E-03    1.55       2.4  T
   4   -103.9651594 -0.534514E-06  0.203E-03    1.55       6.0  T
   5   -103.9651596 -0.180667E-06  0.681E-04    1.55      18.1  T
   6   -103.9651596 -0.947388E-08  0.185E-04    1.55      66.4  T
     SCC iter.                  ...        0 min,  0.031 sec
     gradient                   ...        0 min,  0.104 sec
 * total energy  :  -102.6719687 Eh     change       -0.7146112E-04 Eh
   gradient norm :     0.0039442 Eh/α   predicted    -0.4592040E-04 ( -35.74%)
   displ. norm   :     0.2021731 α      lambda       -0.8072145E-04
   maximum displ.:     0.1367224 α      in ANC's #4, #7, #1, ...

........................................................................
.............................. CYCLE   14 ..............................
........................................................................

 iter      E             dE          RMSdq      gap      omega  full diag
   1   -103.9651598 -0.103965E+03  0.279E-02    1.54       0.0  T
   2   -103.9651606 -0.860652E-06  0.156E-02    1.54       1.0  T
   3   -103.9651601  0.551741E-06  0.443E-03    1.55       2.8  T
   4   -103.9651608 -0.721620E-06  0.146E-03    1.55       8.5  T
   5   -103.9651609 -0.755858E-07  0.534E-04    1.55      23.1  T
   6   -103.9651609 -0.714870E-08  0.136E-04    1.55      90.5  T
     SCC iter.                  ...        0 min,  0.031 sec
     gradient                   ...        0 min,  0.117 sec
 * total energy  :  -102.6720355 Eh     change       -0.6681526E-04 Eh
   gradient norm :     0.0039884 Eh/α   predicted    -0.4201444E-04 ( -37.12%)
   displ. norm   :     0.2198819 α      lambda       -0.8609518E-04
   maximum displ.:     0.1475790 α      in ANC's #4, #7, #1, ...

........................................................................
.............................. CYCLE   15 ..............................
........................................................................

 iter      E             dE          RMSdq      gap      omega  full diag
   1   -103.9656948 -0.103966E+03  0.293E-02    1.54       0.0  T
   2   -103.9656954 -0.599041E-06  0.167E-02    1.54       1.0  T
   3   -103.9656947  0.676122E-06  0.390E-03    1.54       3.2  T
   4   -103.9656956 -0.847405E-06  0.127E-03    1.54       9.7  T
   5   -103.9656956 -0.473577E-07  0.400E-04    1.54      30.8  T
   6   -103.9656956 -0.382823E-08  0.117E-04    1.54     105.5  T
     SCC iter.                  ...        0 min,  0.031 sec
     gradient                   ...        0 min,  0.109 sec
 * total energy  :  -102.6721051 Eh     change       -0.6967278E-04 Eh
   gradient norm :     0.0046643 Eh/α   predicted    -0.4512949E-04 ( -35.23%)
   displ. norm   :     0.2604887 α      lambda       -0.9975863E-04
   maximum displ.:     0.1760065 α      in ANC's #4, #7, #1, ...

........................................................................
.............................. CYCLE   16 ..............................
........................................................................

 iter      E             dE          RMSdq      gap      omega  full diag
   1   -103.9650974 -0.103965E+03  0.327E-02    1.54       0.0  T
   2   -103.9650982 -0.798826E-06  0.190E-02    1.54       1.0  T
   3   -103.9650971  0.106938E-05  0.484E-03    1.54       2.5  T
   4   -103.9650985 -0.136080E-05  0.130E-03    1.54       9.5  T
   5   -103.9650985 -0.252500E-07  0.478E-04    1.54      25.7  T
   6   -103.9650985 -0.486634E-08  0.173E-04    1.54      71.0  T
     SCC iter.                  ...        0 min,  0.030 sec
     gradient                   ...        0 min,  0.112 sec
 * total energy  :  -102.6721849 Eh     change       -0.7979069E-04 Eh
   gradient norm :     0.0037003 Eh/α   predicted    -0.5326488E-04 ( -33.24%)
   displ. norm   :     0.2901338 α      lambda       -0.1044321E-03
   maximum displ.:     0.1955133 α      in ANC's #4, #1, #7, ...

........................................................................
.............................. CYCLE   17 ..............................
........................................................................

 iter      E             dE          RMSdq      gap      omega  full diag
   1   -103.9650488 -0.103965E+03  0.351E-02    1.53       0.0  T
   2   -103.9650496 -0.799620E-06  0.204E-02    1.54       1.0  T
   3   -103.9650489  0.697089E-06  0.404E-03    1.54       3.0  T
   4   -103.9650498 -0.902739E-06  0.145E-03    1.54       8.5  T
   5   -103.9650499 -0.672241E-07  0.458E-04    1.54      26.9  T
   6   -103.9650499 -0.266571E-08  0.152E-04    1.54      81.0  T
     SCC iter.                  ...        0 min,  0.030 sec
     gradient                   ...        0 min,  0.094 sec
 * total energy  :  -102.6722736 Eh     change       -0.8870051E-04 Eh
   gradient norm :     0.0037366 Eh/α   predicted    -0.5661622E-04 ( -36.17%)
   displ. norm   :     0.3273911 α      lambda       -0.1181129E-03
   maximum displ.:     0.2227825 α      in ANC's #4, #1, #7, ...

........................................................................
.............................. CYCLE   18 ..............................
........................................................................

 iter      E             dE          RMSdq      gap      omega  full diag
   1   -103.9648686 -0.103965E+03  0.390E-02    1.53       0.0  T
   2   -103.9648697 -0.104979E-05  0.226E-02    1.53       1.0  T
   3   -103.9648692  0.518975E-06  0.396E-03    1.54       3.1  T
   4   -103.9648699 -0.702951E-06  0.166E-03    1.54       7.4  T
   5   -103.9648700 -0.111570E-06  0.581E-04    1.54      21.2  T
   6   -103.9648700 -0.501011E-08  0.173E-04    1.54      71.3  T
     SCC iter.                  ...        0 min,  0.065 sec
     gradient                   ...        0 min,  0.057 sec
 * total energy  :  -102.6723747 Eh     change       -0.1010659E-03 Eh
   gradient norm :     0.0038172 Eh/α   predicted    -0.6538764E-04 ( -35.30%)
   displ. norm   :     0.3695680 α      lambda       -0.1289234E-03
   maximum displ.:     0.2535679 α      in ANC's #4, #1, #7, ...

........................................................................
.............................. CYCLE   19 ..............................
........................................................................

 iter      E             dE          RMSdq      gap      omega  full diag
   1   -103.9645722 -0.103965E+03  0.441E-02    1.53       0.0  T
   2   -103.9645735 -0.124121E-05  0.255E-02    1.53       1.0  T
   3   -103.9645729  0.546060E-06  0.406E-03    1.53       3.0  T
   4   -103.9645737 -0.760373E-06  0.181E-03    1.53       6.8  T
   5   -103.9645738 -0.132844E-06  0.669E-04    1.53      18.4  T
   6   -103.9645738 -0.641246E-08  0.208E-04    1.53      59.1  T
     SCC iter.                  ...        0 min,  0.030 sec
     gradient                   ...        0 min,  0.078 sec
 * total energy  :  -102.6724836 Eh     change       -0.1089279E-03 Eh
   gradient norm :     0.0041958 Eh/α   predicted    -0.7326931E-04 ( -32.74%)
   displ. norm   :     0.3917234 α      lambda       -0.1297290E-03
   maximum displ.:     0.2702584 α      in ANC's #4, #1, #7, ...

........................................................................
.............................. CYCLE   20 ..............................
........................................................................

 iter      E             dE          RMSdq      gap      omega  full diag
   1   -103.9643225 -0.103964E+03  0.467E-02    1.52       0.0  T
   2   -103.9643237 -0.121240E-05  0.271E-02    1.53       1.0  T
   3   -103.9643230  0.737035E-06  0.428E-03    1.53       2.9  T
   4   -103.9643240 -0.101089E-05  0.177E-03    1.53       6.9  T
   5   -103.9643241 -0.111249E-06  0.676E-04    1.53      18.2  T
   6   -103.9643241 -0.472372E-08  0.208E-04    1.53      59.2  T
     SCC iter.                  ...        0 min,  0.063 sec
     gradient                   ...        0 min,  0.099 sec
 * total energy  :  -102.6725943 Eh     change       -0.1106671E-03 Eh
   gradient norm :     0.0045775 Eh/α   predicted    -0.7482290E-04 ( -32.39%)
   displ. norm   :     0.4195443 α      lambda       -0.1406134E-03
   maximum displ.:     0.2905113 α      in ANC's #4, #1, #9, ...
 * RMSD in coord.:     0.5249278 α      energy gain  -0.2145010E-01 Eh

generating ANC from exact Hessian ...
Using Lindh-Hessian (1995)
 Shifting diagonal of input Hessian by    9.8791654228791593E-003
 Lowest  eigenvalues of input Hessian
    0.000000    0.000000    0.000000    0.000000    0.000000    0.000000
    0.010000    0.010012    0.010108    0.010396    0.010619    0.011032
    0.011173    0.011394    0.011682    0.012191    0.012403    0.012818
 Highest eigenvalues
    2.096691    2.201175    2.356875    2.433917    2.758730    3.491703


........................................................................
.............................. CYCLE   21 ..............................
........................................................................

 iter      E             dE          RMSdq      gap      omega  full diag
   1   -103.9642283 -0.103964E+03  0.498E-02    1.52       0.0  T
   2   -103.9642296 -0.129348E-05  0.290E-02    1.52       1.0  T
   3   -103.9642286  0.973152E-06  0.470E-03    1.52       2.6  T
   4   -103.9642299 -0.131496E-05  0.173E-03    1.52       7.1  T
   5   -103.9642300 -0.969395E-07  0.696E-04    1.52      17.7  T
   6   -103.9642300 -0.477677E-08  0.207E-04    1.52      59.6  T
     SCC iter.                  ...        0 min,  0.070 sec
     gradient                   ...        0 min,  0.097 sec
 * total energy  :  -102.6727159 Eh     change       -0.1216337E-03 Eh
   gradient norm :     0.0047203 Eh/α   predicted     0.0000000E+00 (-100.00%)
   displ. norm   :     0.0452738 α      lambda       -0.2409743E-04
   maximum displ.:     0.0226574 α      in ANC's #4, #13, #5, ...

........................................................................
.............................. CYCLE   22 ..............................
........................................................................

 iter      E             dE          RMSdq      gap      omega  full diag
   1   -103.9655951 -0.103966E+03  0.886E-03    1.52       0.0  T
   2   -103.9655953 -0.208180E-06  0.520E-03    1.52       2.4  T
   3   -103.9655953  0.144541E-08  0.147E-03    1.52       8.4  T
   4   -103.9655953 -0.174551E-07  0.460E-04    1.52      26.8  T
   5   -103.9655953 -0.310143E-08  0.203E-04    1.52      60.6  T
     SCC iter.                  ...        0 min,  0.070 sec
     gradient                   ...        0 min,  0.097 sec
 * total energy  :  -102.6727609 Eh     change       -0.4499755E-04 Eh
   gradient norm :     0.0029660 Eh/α   predicted    -0.2625665E-04 ( -41.65%)
   displ. norm   :     0.1713771 α      lambda       -0.1330477E-03
   maximum displ.:     0.0873591 α      in ANC's #4, #13, #5, ...

........................................................................
.............................. CYCLE   23 ..............................
........................................................................

 iter      E             dE          RMSdq      gap      omega  full diag
   1   -103.9675847 -0.103968E+03  0.289E-02    1.52       0.0  T
   2   -103.9675863 -0.163576E-05  0.169E-02    1.51       1.0  T
   3   -103.9675863  0.333131E-07  0.438E-03    1.51       2.8  T
   4   -103.9675865 -0.158449E-06  0.158E-03    1.51       7.8  T
   5   -103.9675865 -0.408228E-07  0.689E-04    1.51      17.9  T
   6   -103.9675865 -0.153427E-07  0.184E-04    1.51      66.9  T
     SCC iter.                  ...        0 min,  0.030 sec
     gradient                   ...        0 min,  0.085 sec
 * total energy  :  -102.6728465 Eh     change       -0.8556942E-04 Eh
   gradient norm :     0.0027109 Eh/α   predicted    -0.6847897E-04 ( -19.97%)
   displ. norm   :     0.1228523 α      lambda       -0.4645664E-04
   maximum displ.:     0.0667513 α      in ANC's #4, #13, #5, ...

........................................................................
.............................. CYCLE   24 ..............................
........................................................................

 iter      E             dE          RMSdq      gap      omega  full diag
   1   -103.9674766 -0.103967E+03  0.180E-02    1.51       0.0  T
   2   -103.9674769 -0.325441E-06  0.105E-02    1.51       1.2  T
   3   -103.9674769  0.506242E-07  0.220E-03    1.51       5.6  T
   4   -103.9674770 -0.769126E-07  0.105E-03    1.51      11.7  T
   5   -103.9674770 -0.314057E-07  0.375E-04    1.51      32.8  T
   6   -103.9674770 -0.359024E-08  0.104E-04    1.51     118.4  T
     SCC iter.                  ...        0 min,  0.058 sec
     gradient                   ...        0 min,  0.096 sec
 * total energy  :  -102.6728843 Eh     change       -0.3783272E-04 Eh
   gradient norm :     0.0036259 Eh/α   predicted    -0.2359550E-04 ( -37.63%)
   displ. norm   :     0.1998563 α      lambda       -0.7296667E-04
   maximum displ.:     0.1086489 α      in ANC's #4, #13, #5, ...

........................................................................
.............................. CYCLE   25 ..............................
........................................................................

 iter      E             dE          RMSdq      gap      omega  full diag
   1   -103.9664849 -0.103966E+03  0.275E-02    1.51       0.0  T
   2   -103.9664854 -0.535799E-06  0.159E-02    1.51       1.0  T
   3   -103.9664852  0.192775E-06  0.317E-03    1.51       3.9  T
   4   -103.9664855 -0.260993E-06  0.154E-03    1.51       8.0  T
   5   -103.9664855 -0.712022E-07  0.467E-04    1.51      26.4  T
   6   -103.9664855 -0.717914E-08  0.153E-04    1.51      80.4  T
     SCC iter.                  ...        0 min,  0.030 sec
     gradient                   ...        0 min,  0.092 sec
 * total energy  :  -102.6729436 Eh     change       -0.5930856E-04 Eh
   gradient norm :     0.0037282 Eh/α   predicted    -0.3794156E-04 ( -36.03%)
   displ. norm   :     0.2702963 α      lambda       -0.8919761E-04
   maximum displ.:     0.1496661 α      in ANC's #4, #5, #13, ...

........................................................................
.............................. CYCLE   26 ..............................
........................................................................

 iter      E             dE          RMSdq      gap      omega  full diag
   1   -103.9650984 -0.103965E+03  0.360E-02    1.51       0.0  T
   2   -103.9650993 -0.926280E-06  0.206E-02    1.51       1.0  T
   3   -103.9650989  0.365591E-06  0.425E-03    1.51       2.9  T
   4   -103.9650994 -0.497807E-06  0.197E-03    1.51       6.3  T
   5   -103.9650995 -0.113405E-06  0.619E-04    1.51      19.9  T
   6   -103.9650996 -0.153402E-07  0.194E-04    1.51      63.3  T
     SCC iter.                  ...        0 min,  0.064 sec
     gradient                   ...        0 min,  0.086 sec
 * total energy  :  -102.6730125 Eh     change       -0.6883502E-04 Eh
   gradient norm :     0.0037691 Eh/α   predicted    -0.4786208E-04 ( -30.47%)
   displ. norm   :     0.2544689 α      lambda       -0.7672273E-04
   maximum displ.:     0.1462302 α      in ANC's #4, #5, #1, ...

........................................................................
.............................. CYCLE   27 ..............................
........................................................................

 iter      E             dE          RMSdq      gap      omega  full diag
   1   -103.9644920 -0.103964E+03  0.330E-02    1.51       0.0  T
   2   -103.9644929 -0.889408E-06  0.187E-02    1.52       1.0  T
   3   -103.9644926  0.263978E-06  0.406E-03    1.52       3.0  T
   4   -103.9644930 -0.367077E-06  0.183E-03    1.52       6.7  T
   5   -103.9644931 -0.107093E-06  0.621E-04    1.52      19.8  T
   6   -103.9644931 -0.135411E-07  0.181E-04    1.52      67.8  T
     SCC iter.                  ...        0 min,  0.069 sec
     gradient                   ...        0 min,  0.058 sec
 * total energy  :  -102.6730732 Eh     change       -0.6070995E-04 Eh
   gradient norm :     0.0040768 Eh/α   predicted    -0.4084833E-04 ( -32.72%)
   displ. norm   :     0.2448746 α      lambda       -0.8033545E-04
   maximum displ.:     0.1470604 α      in ANC's #4, #1, #5, ...

........................................................................
.............................. CYCLE   28 ..............................
........................................................................

 iter      E             dE          RMSdq      gap      omega  full diag
   1   -103.9649440 -0.103965E+03  0.311E-02    1.52       0.0  T
   2   -103.9649450 -0.906661E-06  0.174E-02    1.52       1.0  T
   3   -103.9649448  0.164115E-06  0.394E-03    1.52       3.1  T
   4   -103.9649450 -0.250744E-06  0.175E-03    1.52       7.0  T
   5   -103.9649451 -0.104917E-06  0.623E-04    1.52      19.8  T
   6   -103.9649452 -0.121968E-07  0.174E-04    1.52      70.5  T
     SCC iter.                  ...        0 min,  0.031 sec
     gradient                   ...        0 min,  0.080 sec
 * total energy  :  -102.6731384 Eh     change       -0.6525564E-04 Eh
   gradient norm :     0.0040967 Eh/α   predicted    -0.4257649E-04 ( -34.75%)
   displ. norm   :     0.2796175 α      lambda       -0.9147957E-04
   maximum displ.:     0.1732430 α      in ANC's #4, #1, #5, ...

........................................................................
.............................. CYCLE   29 ..............................
........................................................................

 iter      E             dE          RMSdq      gap      omega  full diag
   1   -103.9658183 -0.103966E+03  0.343E-02    1.52       0.0  T
   2   -103.9658193 -0.994287E-06  0.192E-02    1.52       1.0  T
   3   -103.9658191  0.126530E-06  0.403E-03    1.52       3.1  T
   4   -103.9658194 -0.227803E-06  0.181E-03    1.52       6.8  T
   5   -103.9658195 -0.119253E-06  0.632E-04    1.52      19.5  T
   6   -103.9658195 -0.118045E-07  0.182E-04    1.52      67.7  T
     SCC iter.                  ...        0 min,  0.030 sec
     gradient                   ...        0 min,  0.084 sec
 * total energy  :  -102.6732138 Eh     change       -0.7538453E-04 Eh
   gradient norm :     0.0038001 Eh/α   predicted    -0.4931979E-04 ( -34.58%)
   displ. norm   :     0.3328192 α      lambda       -0.1028127E-03
   maximum displ.:     0.2094019 α      in ANC's #4, #1, #5, ...

........................................................................
.............................. CYCLE   30 ..............................
........................................................................

 iter      E             dE          RMSdq      gap      omega  full diag
   1   -103.9663801 -0.103966E+03  0.392E-02    1.52       0.0  T
   2   -103.9663812 -0.107244E-05  0.222E-02    1.52       1.0  T
   3   -103.9663811  0.125926E-06  0.399E-03    1.52       3.1  T
   4   -103.9663813 -0.248077E-06  0.182E-03    1.52       6.8  T
   5   -103.9663815 -0.136223E-06  0.641E-04    1.52      19.2  T
   6   -103.9663815 -0.106717E-07  0.188E-04    1.52      65.4  T
     SCC iter.                  ...        0 min,  0.031 sec
     gradient                   ...        0 min,  0.097 sec
 * total energy  :  -102.6733008 Eh     change       -0.8695603E-04 Eh
   gradient norm :     0.0034835 Eh/α   predicted    -0.5710633E-04 ( -34.33%)
   displ. norm   :     0.3812189 α      lambda       -0.1178783E-03
   maximum displ.:     0.2424337 α      in ANC's #4, #1, #5, ...

........................................................................
.............................. CYCLE   31 ..............................
........................................................................

 iter      E             dE          RMSdq      gap      omega  full diag
   1   -103.9665976 -0.103967E+03  0.433E-02    1.52       0.0  T
   2   -103.9665988 -0.117823E-05  0.250E-02    1.52       1.0  T
   3   -103.9665985  0.258646E-06  0.402E-03    1.52       3.1  T
   4   -103.9665989 -0.407378E-06  0.177E-03    1.52       7.0  T
   5   -103.9665991 -0.148049E-06  0.685E-04    1.52      18.0  T
   6   -103.9665991 -0.102051E-07  0.198E-04    1.52      62.1  T
     SCC iter.                  ...        0 min,  0.058 sec
     gradient                   ...        0 min,  0.057 sec
 * total energy  :  -102.6734007 Eh     change       -0.9988682E-04 Eh
   gradient norm :     0.0036889 Eh/α   predicted    -0.6750466E-04 ( -32.42%)
   displ. norm   :     0.4169605 α      lambda       -0.1267663E-03
   maximum displ.:     0.2671794 α      in ANC's #4, #1, #19, ...

........................................................................
.............................. CYCLE   32 ..............................
........................................................................

 iter      E             dE          RMSdq      gap      omega  full diag
   1   -103.9664482 -0.103966E+03  0.455E-02    1.52       0.0  T
   2   -103.9664494 -0.124395E-05  0.266E-02    1.52       1.0  T
   3   -103.9664490  0.473320E-06  0.407E-03    1.52       3.0  T
   4   -103.9664496 -0.664885E-06  0.160E-03    1.52       7.7  T
   5   -103.9664498 -0.132341E-06  0.669E-04    1.52      18.4  T
   6   -103.9664498 -0.660214E-08  0.200E-04    1.52      61.6  T
     SCC iter.                  ...        0 min,  0.031 sec
     gradient                   ...        0 min,  0.092 sec
 * total energy  :  -102.6735066 Eh     change       -0.1058882E-03 Eh
   gradient norm :     0.0045788 Eh/α   predicted    -0.7440293E-04 ( -29.73%)
   displ. norm   :     0.4264293 α      lambda       -0.1264683E-03
   maximum displ.:     0.2748033 α      in ANC's #4, #1, #19, ...

........................................................................
.............................. CYCLE   33 ..............................
........................................................................

 iter      E             dE          RMSdq      gap      omega  full diag
   1   -103.9663271 -0.103966E+03  0.445E-02    1.52       0.0  T
   2   -103.9663284 -0.124178E-05  0.262E-02    1.52       1.0  T
   3   -103.9663278  0.613339E-06  0.403E-03    1.52       3.1  T
   4   -103.9663286 -0.839051E-06  0.143E-03    1.52       8.6  T
   5   -103.9663287 -0.981623E-07  0.625E-04    1.52      19.7  T
   6   -103.9663287 -0.322909E-08  0.182E-04    1.52      67.6  T
     SCC iter.                  ...        0 min,  0.070 sec
     gradient                   ...        0 min,  0.098 sec
 * total energy  :  -102.6736110 Eh     change       -0.1044191E-03 Eh
   gradient norm :     0.0053046 Eh/α   predicted    -0.7473403E-04 ( -28.43%)
   displ. norm   :     0.4487150 α      lambda       -0.1269714E-03
   maximum displ.:     0.2897785 α      in ANC's #4, #1, #19, ...

........................................................................
.............................. CYCLE   34 ..............................
........................................................................

 iter      E             dE          RMSdq      gap      omega  full diag
   1   -103.9658385 -0.103966E+03  0.452E-02    1.51       0.0  T
   2   -103.9658398 -0.129975E-05  0.265E-02    1.51       1.0  T
   3   -103.9658391  0.630714E-06  0.413E-03    1.51       3.0  T
   4   -103.9658400 -0.892980E-06  0.153E-03    1.51       8.1  T
   5   -103.9658401 -0.880713E-07  0.649E-04    1.51      19.0  T
   6   -103.9658401 -0.633223E-08  0.187E-04    1.51      66.0  T
     SCC iter.                  ...        0 min,  0.070 sec
     gradient                   ...        0 min,  0.090 sec
 * total energy  :  -102.6737151 Eh     change       -0.1041363E-03 Eh
   gradient norm :     0.0054124 Eh/α   predicted    -0.7627163E-04 ( -26.76%)
   displ. norm   :     0.4459260 α      lambda       -0.1465630E-03
   maximum displ.:     0.2857875 α      in ANC's #4, #1, #19, ...

........................................................................
.............................. CYCLE   35 ..............................
........................................................................

 iter      E             dE          RMSdq      gap      omega  full diag
   1   -103.9679113 -0.103968E+03  0.443E-02    1.50       0.0  T
   2   -103.9679137 -0.241376E-05  0.253E-02    1.51       1.0  T
   3   -103.9679132  0.507506E-06  0.530E-03    1.51       2.3  T
   4   -103.9679140 -0.732859E-06  0.232E-03    1.51       5.3  T
   5   -103.9679142 -0.220007E-06  0.807E-04    1.51      15.2  T
   6   -103.9679142 -0.140516E-07  0.216E-04    1.51      57.0  T
     SCC iter.                  ...        0 min,  0.030 sec
     gradient                   ...        0 min,  0.079 sec
 * total energy  :  -102.6738101 Eh     change       -0.9498851E-04 Eh
   gradient norm :     0.0050309 Eh/α   predicted    -0.8785520E-04 (  -7.51%)
   displ. norm   :     0.6049377 α      lambda       -0.1790900E-03
   maximum displ.:     0.3851117 α      in ANC's #4, #1, #19, ...

........................................................................
.............................. CYCLE   36 ..............................
........................................................................

 iter      E             dE          RMSdq      gap      omega  full diag
   1   -103.9630561 -0.103963E+03  0.640E-02    1.50       0.0  T
   2   -103.9630603 -0.427042E-05  0.371E-02    1.50       1.0  T
   3   -103.9630598  0.514389E-06  0.628E-03    1.50       2.0  T
   4   -103.9630609 -0.105914E-05  0.272E-03    1.50       4.5  T
   5   -103.9630611 -0.260093E-06  0.110E-03    1.50      11.2  T
   6   -103.9630612 -0.274807E-07  0.330E-04    1.50      37.3  T
   7   -103.9630612 -0.208500E-08  0.163E-04    1.50      75.5  T
     SCC iter.                  ...        0 min,  0.035 sec
     gradient                   ...        0 min,  0.073 sec
 * total energy  :  -102.6738583 Eh     change       -0.4822156E-04 Eh
   gradient norm :     0.0078623 Eh/α   predicted    -0.1223147E-03 ( 153.65%)
   displ. norm   :     0.0775593 α      lambda       -0.1265102E-03
   maximum displ.:     0.0331637 α      in ANC's #4, #19, #5, ...

........................................................................
.............................. CYCLE   37 ..............................
........................................................................

 iter      E             dE          RMSdq      gap      omega  full diag
   1   -103.9666737 -0.103967E+03  0.166E-02    1.50       0.0  T
   2   -103.9666747 -0.101301E-05  0.915E-03    1.50       1.3  T
   3   -103.9666747  0.188793E-07  0.306E-03    1.50       4.0  T
   4   -103.9666748 -0.758587E-07  0.101E-03    1.50      12.1  T
   5   -103.9666748 -0.429359E-07  0.414E-04    1.50      29.7  T
   6   -103.9666748 -0.118355E-08  0.141E-04    1.50      87.6  T
     SCC iter.                  ...        0 min,  0.031 sec
     gradient                   ...        0 min,  0.087 sec
 * total energy  :  -102.6739384 Eh     change       -0.8012179E-04 Eh
   gradient norm :     0.0033685 Eh/α   predicted    -0.6363965E-04 ( -20.57%)
   displ. norm   :     0.2509798 α      lambda       -0.7059474E-04
   maximum displ.:     0.1566110 α      in ANC's #1, #4, #2, ...

........................................................................
.............................. CYCLE   38 ..............................
........................................................................

 iter      E             dE          RMSdq      gap      omega  full diag
   1   -103.9675863 -0.103968E+03  0.270E-02    1.49       0.0  T
   2   -103.9675873 -0.977830E-06  0.151E-02    1.49       1.0  T
   3   -103.9675870  0.242696E-06  0.408E-03    1.49       3.0  T
   4   -103.9675874 -0.386808E-06  0.154E-03    1.49       8.0  T
   5   -103.9675875 -0.840274E-07  0.547E-04    1.49      22.5  T
   6   -103.9675875 -0.420506E-08  0.147E-04    1.49      83.6  T
     SCC iter.                  ...        0 min,  0.031 sec
     gradient                   ...        0 min,  0.079 sec
 * total energy  :  -102.6739930 Eh     change       -0.5452818E-04 Eh
   gradient norm :     0.0026063 Eh/α   predicted    -0.3752174E-04 ( -31.19%)
   displ. norm   :     0.3739838 α      lambda       -0.8090895E-04
   maximum displ.:     0.2361786 α      in ANC's #1, #4, #2, ...

........................................................................
.............................. CYCLE   39 ..............................
........................................................................

 iter      E             dE          RMSdq      gap      omega  full diag
   1   -103.9678525 -0.103968E+03  0.392E-02    1.48       0.0  T
   2   -103.9678543 -0.178109E-05  0.220E-02    1.49       1.0  T
   3   -103.9678536  0.676940E-06  0.582E-03    1.49       2.1  T
   4   -103.9678547 -0.101540E-05  0.209E-03    1.49       5.9  T
   5   -103.9678548 -0.147059E-06  0.739E-04    1.49      16.7  T
   6   -103.9678548 -0.807962E-08  0.214E-04    1.49      57.5  T
     SCC iter.                  ...        0 min,  0.064 sec
     gradient                   ...        0 min,  0.058 sec
 * total energy  :  -102.6740571 Eh     change       -0.6417518E-04 Eh
   gradient norm :     0.0032883 Eh/α   predicted    -0.4611264E-04 ( -28.15%)
   displ. norm   :     0.3763051 α      lambda       -0.7623330E-04
   maximum displ.:     0.2394587 α      in ANC's #1, #4, #2, ...

........................................................................
.............................. CYCLE   40 ..............................
........................................................................

 iter      E             dE          RMSdq      gap      omega  full diag
   1   -103.9670678 -0.103967E+03  0.398E-02    1.48       0.0  T
   2   -103.9670694 -0.158700E-05  0.226E-02    1.48       1.0  T
   3   -103.9670685  0.947204E-06  0.556E-03    1.48       2.2  T
   4   -103.9670698 -0.133220E-05  0.186E-03    1.48       6.6  T
   5   -103.9670699 -0.106324E-06  0.692E-04    1.48      17.8  T
   6   -103.9670699 -0.789612E-08  0.229E-04    1.48      53.7  T
     SCC iter.                  ...        0 min,  0.031 sec
     gradient                   ...        0 min,  0.074 sec
 * total energy  :  -102.6741203 Eh     change       -0.6316100E-04 Eh
   gradient norm :     0.0035475 Eh/α   predicted    -0.4351520E-04 ( -31.10%)
   displ. norm   :     0.3904717 α      lambda       -0.9400733E-04
   maximum displ.:     0.2523348 α      in ANC's #1, #4, #2, ...

........................................................................
.............................. CYCLE   41 ..............................
........................................................................

 iter      E             dE          RMSdq      gap      omega  full diag
   1   -103.9674527 -0.103967E+03  0.431E-02    1.46       0.0  T
   2   -103.9674545 -0.183108E-05  0.246E-02    1.47       1.0  T
   3   -103.9674531  0.140191E-05  0.617E-03    1.47       2.0  T
   4   -103.9674550 -0.190964E-05  0.194E-03    1.47       6.4  T
   5   -103.9674551 -0.115725E-06  0.775E-04    1.47      15.9  T
   6   -103.9674551 -0.942167E-08  0.263E-04    1.47      46.8  T
     SCC iter.                  ...        0 min,  0.030 sec
     gradient                   ...        0 min,  0.089 sec
 * total energy  :  -102.6741966 Eh     change       -0.7632806E-04 Eh
   gradient norm :     0.0038106 Eh/α   predicted    -0.5416625E-04 ( -29.03%)
   displ. norm   :     0.4341356 α      lambda       -0.1040361E-03
   maximum displ.:     0.2820198 α      in ANC's #1, #4, #2, ...

........................................................................
.............................. CYCLE   42 ..............................
........................................................................

 iter      E             dE          RMSdq      gap      omega  full diag
   1   -103.9669510 -0.103967E+03  0.487E-02    1.45       0.0  T
   2   -103.9669529 -0.189745E-05  0.283E-02    1.46       1.0  T
   3   -103.9669509  0.197632E-05  0.642E-03    1.46       1.9  T
   4   -103.9669535 -0.256806E-05  0.199E-03    1.46       6.2  T
   5   -103.9669536 -0.130479E-06  0.834E-04    1.46      14.8  T
   6   -103.9669536 -0.623992E-08  0.286E-04    1.46      43.0  T
     SCC iter.                  ...        0 min,  0.030 sec
     gradient                   ...        0 min,  0.061 sec
 * total energy  :  -102.6742788 Eh     change       -0.8219214E-04 Eh
   gradient norm :     0.0038397 Eh/α   predicted    -0.6181650E-04 ( -24.79%)
   displ. norm   :     0.4073922 α      lambda       -0.9569178E-04
   maximum displ.:     0.2672228 α      in ANC's #1, #4, #9, ...
 * RMSD in coord.:     0.7624148 α      energy gain  -0.1684530E-02 Eh

generating ANC from exact Hessian ...
Using Lindh-Hessian (1995)
 Shifting diagonal of input Hessian by    9.8725154832971507E-003
 Lowest  eigenvalues of input Hessian
    0.000000    0.000000    0.000000    0.000000    0.000000    0.000000
    0.010000    0.010012    0.010136    0.010427    0.010784    0.011090
    0.011203    0.011435    0.011646    0.012168    0.012378    0.012925
 Highest eigenvalues
    2.096444    2.203875    2.366629    2.434876    2.779500    3.519934


........................................................................
.............................. CYCLE   43 ..............................
........................................................................

 iter      E             dE          RMSdq      gap      omega  full diag
   1   -103.9678602 -0.103968E+03  0.457E-02    1.44       0.0  T
   2   -103.9678618 -0.161613E-05  0.267E-02    1.44       1.0  T
   3   -103.9678599  0.196164E-05  0.602E-03    1.44       2.0  T
   4   -103.9678624 -0.250700E-05  0.173E-03    1.45       7.1  T
   5   -103.9678625 -0.812577E-07  0.751E-04    1.45      16.4  T
   6   -103.9678625 -0.280001E-08  0.265E-04    1.45      46.5  T
     SCC iter.                  ...        0 min,  0.031 sec
     gradient                   ...        0 min,  0.086 sec
 * total energy  :  -102.6743512 Eh     change       -0.7238947E-04 Eh
   gradient norm :     0.0035557 Eh/α   predicted     0.0000000E+00 (-100.00%)
   displ. norm   :     0.0361368 α      lambda       -0.1399269E-04
   maximum displ.:     0.0135088 α      in ANC's #2, #1, #5, ...

........................................................................
.............................. CYCLE   44 ..............................
........................................................................

 iter      E             dE          RMSdq      gap      omega  full diag
   1   -103.9685149 -0.103969E+03  0.632E-03    1.44       0.0  T
   2   -103.9685151 -0.144432E-06  0.359E-03    1.44       3.4  T
   3   -103.9685150  0.507826E-08  0.113E-03    1.44      10.9  T
   4   -103.9685151 -0.148223E-07  0.339E-04    1.44      36.4  T
   5   -103.9685151 -0.401499E-08  0.136E-04    1.44      90.4  T
     SCC iter.                  ...        0 min,  0.061 sec
     gradient                   ...        0 min,  0.057 sec
 * total energy  :  -102.6743778 Eh     change       -0.2654661E-04 Eh
   gradient norm :     0.0020088 Eh/α   predicted    -0.1599174E-04 ( -39.76%)
   displ. norm   :     0.1211379 α      lambda       -0.6573294E-04
   maximum displ.:     0.0469164 α      in ANC's #2, #1, #5, ...

........................................................................
.............................. CYCLE   45 ..............................
........................................................................

 iter      E             dE          RMSdq      gap      omega  full diag
   1   -103.9693483 -0.103969E+03  0.166E-02    1.44       0.0  T
   2   -103.9693490 -0.770051E-06  0.950E-03    1.44       1.3  T
   3   -103.9693490  0.389313E-07  0.280E-03    1.44       4.4  T
   4   -103.9693491 -0.949293E-07  0.872E-04    1.44      14.1  T
   5   -103.9693491 -0.268730E-07  0.336E-04    1.44      36.7  T
     SCC iter.                  ...        0 min,  0.026 sec
     gradient                   ...        0 min,  0.077 sec
 * total energy  :  -102.6744213 Eh     change       -0.4354695E-04 Eh
   gradient norm :     0.0020568 Eh/α   predicted    -0.3334907E-04 ( -23.42%)
   displ. norm   :     0.1074553 α      lambda       -0.3087944E-04
   maximum displ.:     0.0446964 α      in ANC's #2, #1, #5, ...

........................................................................
.............................. CYCLE   46 ..............................
........................................................................

 iter      E             dE          RMSdq      gap      omega  full diag
   1   -103.9693187 -0.103969E+03  0.125E-02    1.44       0.0  T
   2   -103.9693189 -0.199748E-06  0.731E-03    1.44       1.7  T
   3   -103.9693189  0.363161E-08  0.137E-03    1.44       9.0  T
   4   -103.9693189 -0.257582E-07  0.463E-04    1.44      26.6  T
   5   -103.9693189 -0.561083E-08  0.200E-04    1.44      61.7  T
     SCC iter.                  ...        0 min,  0.026 sec
     gradient                   ...        0 min,  0.072 sec
 * total energy  :  -102.6744461 Eh     change       -0.2474262E-04 Eh
   gradient norm :     0.0030143 Eh/α   predicted    -0.1573269E-04 ( -36.41%)
   displ. norm   :     0.1719951 α      lambda       -0.4521630E-04
   maximum displ.:     0.0745282 α      in ANC's #2, #1, #5, ...

........................................................................
.............................. CYCLE   47 ..............................
........................................................................

 iter      E             dE          RMSdq      gap      omega  full diag
   1   -103.9688013 -0.103969E+03  0.190E-02    1.44       0.0  T
   2   -103.9688016 -0.241659E-06  0.112E-02    1.44       1.1  T
   3   -103.9688016 -0.215278E-07  0.128E-03    1.44       9.6  T
   4   -103.9688016 -0.229118E-07  0.507E-04    1.44      24.3  T
   5   -103.9688016 -0.182375E-08  0.252E-04    1.44      48.8  T
     SCC iter.                  ...        0 min,  0.026 sec
     gradient                   ...        0 min,  0.085 sec
 * total energy  :  -102.6744813 Eh     change       -0.3520579E-04 Eh
   gradient norm :     0.0032074 Eh/α   predicted    -0.2334947E-04 ( -33.68%)
   displ. norm   :     0.2010373 α      lambda       -0.4613199E-04
   maximum displ.:     0.0919935 α      in ANC's #2, #1, #5, ...

........................................................................
.............................. CYCLE   48 ..............................
........................................................................

 iter      E             dE          RMSdq      gap      omega  full diag
   1   -103.9681554 -0.103968E+03  0.214E-02    1.44       0.0  T
   2   -103.9681557 -0.316129E-06  0.125E-02    1.44       1.0  T
   3   -103.9681557  0.788844E-07  0.198E-03    1.44       6.2  T
   4   -103.9681558 -0.142790E-06  0.715E-04    1.44      17.2  T
   5   -103.9681558 -0.891832E-08  0.343E-04    1.44      35.9  T
     SCC iter.                  ...        0 min,  0.041 sec
     gradient                   ...        0 min,  0.058 sec
 * total energy  :  -102.6745169 Eh     change       -0.3559938E-04 Eh
   gradient norm :     0.0028108 Eh/α   predicted    -0.2399986E-04 ( -32.58%)
   displ. norm   :     0.2075282 α      lambda       -0.4453806E-04
   maximum displ.:     0.1003145 α      in ANC's #2, #1, #5, ...

........................................................................
.............................. CYCLE   49 ..............................
........................................................................

 iter      E             dE          RMSdq      gap      omega  full diag
   1   -103.9678160 -0.103968E+03  0.215E-02    1.44       0.0  T
   2   -103.9678164 -0.448692E-06  0.125E-02    1.44       1.0  T
   3   -103.9678162  0.245339E-06  0.281E-03    1.44       4.4  T
   4   -103.9678165 -0.338847E-06  0.857E-04    1.44      14.4  T
   5   -103.9678165 -0.183116E-07  0.377E-04    1.44      32.6  T
     SCC iter.                  ...        0 min,  0.026 sec
     gradient                   ...        0 min,  0.093 sec
 * total energy  :  -102.6745521 Eh     change       -0.3528273E-04 Eh
   gradient norm :     0.0025540 Eh/α   predicted    -0.2322968E-04 ( -34.16%)
   displ. norm   :     0.2199386 α      lambda       -0.4825015E-04
   maximum displ.:     0.1118457 α      in ANC's #2, #1, #5, ...

........................................................................
.............................. CYCLE   50 ..............................
........................................................................

 iter      E             dE          RMSdq      gap      omega  full diag
   1   -103.9678982 -0.103968E+03  0.223E-02    1.44       0.0  T
   2   -103.9678988 -0.605191E-06  0.128E-02    1.44       1.0  T
   3   -103.9678985  0.309179E-06  0.337E-03    1.44       3.7  T
   4   -103.9678989 -0.411927E-06  0.109E-03    1.44      11.3  T
   5   -103.9678989 -0.478286E-07  0.414E-04    1.44      29.7  T
   6   -103.9678989 -0.192779E-08  0.161E-04    1.44      76.7  T
     SCC iter.                  ...        0 min,  0.030 sec
     gradient                   ...        0 min,  0.086 sec
 * total energy  :  -102.6745911 Eh     change       -0.3897843E-04 Eh
   gradient norm :     0.0027214 Eh/α   predicted    -0.2531142E-04 ( -35.06%)
   displ. norm   :     0.2459836 α      lambda       -0.5216406E-04
   maximum displ.:     0.1303397 α      in ANC's #2, #1, #5, ...

........................................................................
.............................. CYCLE   51 ..............................
........................................................................

 iter      E             dE          RMSdq      gap      omega  full diag
   1   -103.9681925 -0.103968E+03  0.247E-02    1.44       0.0  T
   2   -103.9681932 -0.695337E-06  0.142E-02    1.44       1.0  T
   3   -103.9681929  0.301467E-06  0.355E-03    1.44       3.5  T
   4   -103.9681933 -0.382447E-06  0.133E-03    1.44       9.3  T
   5   -103.9681934 -0.900709E-07  0.446E-04    1.44      27.6  T
   6   -103.9681934 -0.168885E-08  0.171E-04    1.44      72.1  T
     SCC iter.                  ...        0 min,  0.053 sec
     gradient                   ...        0 min,  0.057 sec
 * total energy  :  -102.6746328 Eh     change       -0.4171045E-04 Eh
   gradient norm :     0.0029541 Eh/α   predicted    -0.2766080E-04 ( -33.68%)
   displ. norm   :     0.2502624 α      lambda       -0.4850071E-04
   maximum displ.:     0.1376667 α      in ANC's #2, #1, #5, ...

........................................................................
.............................. CYCLE   52 ..............................
........................................................................

 iter      E             dE          RMSdq      gap      omega  full diag
   1   -103.9684994 -0.103968E+03  0.250E-02    1.43       0.0  T
   2   -103.9685000 -0.579986E-06  0.144E-02    1.44       1.0  T
   3   -103.9684999  0.169186E-06  0.296E-03    1.44       4.2  T
   4   -103.9685001 -0.220490E-06  0.124E-03    1.44       9.9  T
   5   -103.9685002 -0.831659E-07  0.419E-04    1.44      29.4  T
   6   -103.9685002 -0.151859E-08  0.143E-04    1.44      86.3  T
     SCC iter.                  ...        0 min,  0.030 sec
     gradient                   ...        0 min,  0.060 sec
 * total energy  :  -102.6746722 Eh     change       -0.3939152E-04 Eh
   gradient norm :     0.0028075 Eh/α   predicted    -0.2577064E-04 ( -34.58%)
   displ. norm   :     0.2447735 α      lambda       -0.4545848E-04
   maximum displ.:     0.1395005 α      in ANC's #2, #1, #5, ...

........................................................................
.............................. CYCLE   53 ..............................
........................................................................

 iter      E             dE          RMSdq      gap      omega  full diag
   1   -103.9688086 -0.103969E+03  0.246E-02    1.43       0.0  T
   2   -103.9688091 -0.482148E-06  0.142E-02    1.43       1.0  T
   3   -103.9688090  0.950026E-07  0.250E-03    1.43       4.9  T
   4   -103.9688091 -0.155766E-06  0.105E-03    1.43      11.7  T
   5   -103.9688092 -0.505144E-07  0.398E-04    1.43      30.9  T
   6   -103.9688092 -0.203278E-08  0.127E-04    1.43      96.8  T
     SCC iter.                  ...        0 min,  0.031 sec
     gradient                   ...        0 min,  0.090 sec
 * total energy  :  -102.6747101 Eh     change       -0.3788763E-04 Eh
   gradient norm :     0.0023683 Eh/α   predicted    -0.2409143E-04 ( -36.41%)
   displ. norm   :     0.2474846 α      lambda       -0.4527168E-04
   maximum displ.:     0.1453362 α      in ANC's #2, #1, #5, ...

........................................................................
.............................. CYCLE   54 ..............................
........................................................................

 iter      E             dE          RMSdq      gap      omega  full diag
   1   -103.9690184 -0.103969E+03  0.252E-02    1.43       0.0  T
   2   -103.9690189 -0.452435E-06  0.146E-02    1.43       1.0  T
   3   -103.9690188  0.938629E-07  0.244E-03    1.43       5.0  T
   4   -103.9690189 -0.175383E-06  0.980E-04    1.43      12.6  T
   5   -103.9690190 -0.329124E-07  0.398E-04    1.43      30.9  T
     SCC iter.                  ...        0 min,  0.026 sec
     gradient                   ...        0 min,  0.067 sec
 * total energy  :  -102.6747485 Eh     change       -0.3838558E-04 Eh
   gradient norm :     0.0020991 Eh/α   predicted    -0.2402637E-04 ( -37.41%)
   displ. norm   :     0.2545433 α      lambda       -0.4583623E-04
   maximum displ.:     0.1529556 α      in ANC's #2, #1, #5, ...

........................................................................
.............................. CYCLE   55 ..............................
........................................................................

 iter      E             dE          RMSdq      gap      omega  full diag
   1   -103.9691525 -0.103969E+03  0.261E-02    1.42       0.0  T
   2   -103.9691530 -0.462547E-06  0.151E-02    1.42       1.0  T
   3   -103.9691529  0.768016E-07  0.242E-03    1.42       5.1  T
   4   -103.9691530 -0.173251E-06  0.101E-03    1.43      12.2  T
   5   -103.9691531 -0.275205E-07  0.411E-04    1.42      30.0  T
   6   -103.9691531 -0.290858E-08  0.129E-04    1.42      95.1  T
     SCC iter.                  ...        0 min,  0.031 sec
     gradient                   ...        0 min,  0.075 sec
 * total energy  :  -102.6747880 Eh     change       -0.3950188E-04 Eh
   gradient norm :     0.0021702 Eh/α   predicted    -0.2440361E-04 ( -38.22%)
   displ. norm   :     0.2649411 α      lambda       -0.4733092E-04
   maximum displ.:     0.1623116 α      in ANC's #2, #1, #5, ...

........................................................................
.............................. CYCLE   56 ..............................
........................................................................

 iter      E             dE          RMSdq      gap      omega  full diag
   1   -103.9691809 -0.103969E+03  0.271E-02    1.42       0.0  T
   2   -103.9691814 -0.484578E-06  0.157E-02    1.42       1.0  T
   3   -103.9691814  0.253045E-07  0.233E-03    1.42       5.3  T
   4   -103.9691815 -0.122452E-06  0.110E-03    1.42      11.2  T
   5   -103.9691815 -0.322565E-07  0.456E-04    1.42      27.0  T
   6   -103.9691815 -0.630415E-08  0.128E-04    1.42      96.3  T
     SCC iter.                  ...        0 min,  0.039 sec
     gradient                   ...        0 min,  0.058 sec
 * total energy  :  -102.6748294 Eh     change       -0.4139091E-04 Eh
   gradient norm :     0.0023010 Eh/α   predicted    -0.2533096E-04 ( -38.80%)
   displ. norm   :     0.2839069 α      lambda       -0.5193628E-04
   maximum displ.:     0.1762308 α      in ANC's #2, #1, #6, ...

........................................................................
.............................. CYCLE   57 ..............................
........................................................................

 iter      E             dE          RMSdq      gap      omega  full diag
   1   -103.9692527 -0.103969E+03  0.288E-02    1.41       0.0  T
   2   -103.9692533 -0.561288E-06  0.166E-02    1.41       1.0  T
   3   -103.9692532  0.357285E-07  0.258E-03    1.41       4.8  T
   4   -103.9692534 -0.144002E-06  0.127E-03    1.41       9.7  T
   5   -103.9692534 -0.458733E-07  0.512E-04    1.41      24.1  T
   6   -103.9692534 -0.101519E-07  0.137E-04    1.41      90.0  T
     SCC iter.                  ...        0 min,  0.031 sec
     gradient                   ...        0 min,  0.067 sec
 * total energy  :  -102.6748755 Eh     change       -0.4610513E-04 Eh
   gradient norm :     0.0023916 Eh/α   predicted    -0.2806626E-04 ( -39.13%)
   displ. norm   :     0.3339665 α      lambda       -0.6224887E-04
   maximum displ.:     0.2092283 α      in ANC's #2, #1, #6, ...

........................................................................
.............................. CYCLE   58 ..............................
........................................................................

 iter      E             dE          RMSdq      gap      omega  full diag
   1   -103.9691713 -0.103969E+03  0.334E-02    1.40       0.0  T
   2   -103.9691721 -0.781619E-06  0.192E-02    1.40       1.0  T
   3   -103.9691719  0.149543E-06  0.334E-03    1.40       3.7  T
   4   -103.9691722 -0.310217E-06  0.161E-03    1.40       7.7  T
   5   -103.9691723 -0.739022E-07  0.563E-04    1.40      21.8  T
   6   -103.9691723 -0.113038E-07  0.169E-04    1.40      72.7  T
     SCC iter.                  ...        0 min,  0.031 sec
     gradient                   ...        0 min,  0.073 sec
 * total energy  :  -102.6749313 Eh     change       -0.5577646E-04 Eh
   gradient norm :     0.0025652 Eh/α   predicted    -0.3460088E-04 ( -37.97%)
   displ. norm   :     0.3983895 α      lambda       -0.7644024E-04
   maximum displ.:     0.2513209 α      in ANC's #2, #1, #8, ...

........................................................................
.............................. CYCLE   59 ..............................
........................................................................

 iter      E             dE          RMSdq      gap      omega  full diag
   1   -103.9694050 -0.103969E+03  0.392E-02    1.39       0.0  T
   2   -103.9694061 -0.111491E-05  0.223E-02    1.39       1.0  T
   3   -103.9694058  0.359715E-06  0.426E-03    1.39       2.9  T
   4   -103.9694064 -0.605756E-06  0.197E-03    1.39       6.3  T
   5   -103.9694065 -0.114848E-06  0.635E-04    1.39      19.4  T
   6   -103.9694065 -0.126773E-07  0.210E-04    1.39      58.6  T
     SCC iter.                  ...        0 min,  0.030 sec
     gradient                   ...        0 min,  0.070 sec
 * total energy  :  -102.6749993 Eh     change       -0.6799967E-04 Eh
   gradient norm :     0.0028360 Eh/α   predicted    -0.4428690E-04 ( -34.87%)
   displ. norm   :     0.4770716 α      lambda       -0.8926841E-04
   maximum displ.:     0.3028246 α      in ANC's #2, #1, #6, ...
[...]
          hostname                   : login-c
          coordinate file            : /rds/general/user/hgt20/home/callum/QDESCP/Vardenafil_rdkit_conf_3/Vardenafil_rdkit_conf_3.xyz
          omp threads                :                     1


           -------------------------------------------------
          |                 G F N 2 - x T B                 |
           -------------------------------------------------

        Reference                      10.1021/acs.jctc.8b01176
      * Hamiltonian:
        H0-scaling (s, p, d)           1.850000    2.230000    2.230000
        zeta-weighting                 0.500000
      * Dispersion:
        s8                             2.700000
        a1                             0.520000
        a2                             5.000000
        s9                             5.000000
      * Repulsion:
        kExp                           1.500000    1.000000
        rExp                           1.000000
      * Coulomb:
        alpha                          2.000000
        third order                    shell-resolved
        anisotropic                    true
        a3                             3.000000
        a5                             4.000000
        cn-shift                       1.200000
        cn-exp                         4.000000
        max-rad                        5.000000


          ...................................................
          :                      SETUP                      :
          :.................................................:
          :  # basis functions                 174          :
          :  # atomic orbitals                 173          :
          :  # shells                          101          :
          :  # electrons                       184          :
          :  max. iterations                   250          :
          :  Hamiltonian                  GFN2-xTB          :
          :  restarted?                      false          :
          :  GBSA solvation                  false          :
          :  PC potential                    false          :
          :  electronic temp.          300.0000000     K    :
          :  accuracy                    1.0000000          :
          :  -> integral cutoff          0.2500000E+02      :
          :  -> integral neglect         0.1000000E-07      :
          :  -> SCF convergence          0.1000000E-05 Eh   :
          :  -> wf. convergence          0.1000000E-03 e    :
          :  Broyden damping             0.4000000          :
          :  net charge                          0          :
          :  unpaired electrons                  2          :
          ...................................................

 iter      E             dE          RMSdq      gap      omega  full diag
   1   -103.5204136 -0.103520E+03  0.409E+00    0.76       0.0  T
   2   -103.7525652 -0.232152E+00  0.298E+00    0.72       1.0  T
   3   -103.7180860  0.344792E-01  0.198E+00    0.69       1.0  T
   4   -103.7262526 -0.816660E-02  0.144E+00    0.69       1.0  T
   5   -103.8194390 -0.931865E-01  0.883E-01    0.84       1.0  T
   6   -103.8489822 -0.295431E-01  0.692E-01    0.62       1.0  T
   7   -103.8727520 -0.237698E-01  0.447E-01    0.79       1.0  T
   8   -103.8673087  0.544326E-02  0.387E-01    0.79       1.0  T
   9   -103.8648877  0.242102E-02  0.394E-01    0.73       1.0  T
  10   -103.8815215 -0.166337E-01  0.226E-01    0.71       1.0  T
  11   -103.8837739 -0.225246E-02  0.137E-01    0.74       1.0  T
  12   -103.8810700  0.270392E-02  0.194E-01    0.72       1.0  T
  13   -103.8867585 -0.568849E-02  0.206E-02    0.73       1.0  T
  14   -103.8866480  0.110494E-03  0.291E-02    0.72       1.0  T
  15   -103.8867651 -0.117061E-03  0.104E-02    0.73       1.2  T
  16   -103.8867707 -0.569139E-05  0.786E-03    0.73       1.6  T
  17   -103.8867799 -0.918739E-05  0.115E-03    0.73      10.7  T
  18   -103.8867798  0.156466E-06  0.119E-03    0.73      10.3  T
  19   -103.8867800 -0.206767E-06  0.262E-04    0.73      46.9  T
  20   -103.8867800 -0.486588E-08  0.134E-04    0.73      92.2  T

   *** convergence criteria satisfied after 20 iterations ***

         #    Occupation            Energy/Eh            Energy/eV
      -------------------------------------------------------------
         1        2.0000           -0.7640834             -20.7918
       ...           ...                  ...                  ...
        87        2.0000           -0.3992685             -10.8646
        88        2.0000           -0.3914526             -10.6520
        89        2.0000           -0.3894843             -10.5984
        90        1.9806           -0.3827086             -10.4140
        91        1.9382           -0.3815653             -10.3829
        92        1.0812           -0.3766762             -10.2499
        93        1.0000           -0.2693035              -7.3281 (HOMO)
        94        0.0000           -0.2425493              -6.6001 (LUMO)
        95                         -0.2259623              -6.1487
        96                         -0.2046007              -5.5675
        97                         -0.1772513              -4.8233
        98                         -0.1212459              -3.2993
       ...                                ...                  ...
       173                          1.2376428              33.6780
      -------------------------------------------------------------
                  HL-Gap            0.0267541 Eh            0.7280 eV
             Fermi-level           -0.3174538 Eh           -8.6384 eV

 transition dipole moment (au) for excitation:          92          93
     X       Y       Z   
   0.0204  -0.0318   0.1109  total (au/Debye):    0.117   0.298
 dE (eV)             :    2.922
 oscillator strength :  0.13903E-02

 SCC (total)                   0 d,  0 h,  0 min,  0.190 sec
 SCC setup                      ...        0 min,  0.001 sec (  0.389%)
 Dispersion                     ...        0 min,  0.001 sec (  0.528%)
 classical contributions        ...        0 min,  0.000 sec (  0.179%)
 integral evaluation            ...        0 min,  0.016 sec (  8.438%)
 iterations                     ...        0 min,  0.101 sec ( 53.086%)
 molecular gradient             ...        0 min,  0.057 sec ( 29.975%)
 printout                       ...        0 min,  0.014 sec (  7.401%)

         :::::::::::::::::::::::::::::::::::::::::::::::::::::
         ::                     SUMMARY                     ::
         :::::::::::::::::::::::::::::::::::::::::::::::::::::
         :: total energy            -102.589634795091 Eh    ::
         :: gradient norm              0.134442642521 Eh/a0 ::
         :: HOMO-LUMO gap              0.728017043272 eV    ::
         ::.................................................::
         :: SCC energy              -103.885510183566 Eh    ::
         :: -> isotropic ES            0.137896834262 Eh    ::
         :: -> anisotropic ES         -0.000571254685 Eh    ::
         :: -> anisotropic XC          0.038814572160 Eh    ::
         :: -> dispersion             -0.080147571732 Eh    ::
         :: repulsion energy           1.295875388476 Eh    ::
         :: add. restraining           0.000000000000 Eh    ::
         :: total charge              -0.000000000000 e     ::
         :::::::::::::::::::::::::::::::::::::::::::::::::::::

           -------------------------------------------------
          |                Property Printout                |
           -------------------------------------------------

    * Orbital Energies and Occupations

         #    Occupation            Energy/Eh            Energy/eV
      -------------------------------------------------------------
         1        2.0000           -0.7640834             -20.7918
       ...           ...                  ...                  ...
        81        2.0000           -0.4292910             -11.6816
        82        2.0000           -0.4280354             -11.6474
        83        2.0000           -0.4146281             -11.2826
        84        2.0000           -0.4067948             -11.0695
        85        2.0000           -0.4064276             -11.0595
        86        2.0000           -0.4049171             -11.0184
        87        2.0000           -0.3992685             -10.8646
        88        2.0000           -0.3914526             -10.6520
        89        2.0000           -0.3894843             -10.5984
        90        1.9806           -0.3827086             -10.4140
        91        1.9382           -0.3815653             -10.3829
        92        1.0812           -0.3766762             -10.2499
        93        1.0000           -0.2693035              -7.3281 (HOMO)
        94        0.0000           -0.2425493              -6.6001 (LUMO)
        95                         -0.2259623              -6.1487
        96                         -0.2046007              -5.5675
        97                         -0.1772513              -4.8233
        98                         -0.1212459              -3.2993
        99                         -0.1148347              -3.1248
       100                         -0.0899938              -2.4489
       101                         -0.0736886              -2.0052
       102                         -0.0649879              -1.7684
       103                         -0.0542028              -1.4749
       104                         -0.0264563              -0.7199
       ...                                ...                  ...
       173                          1.2376428              33.6780
      -------------------------------------------------------------
                  HL-Gap            0.0267541 Eh            0.7280 eV
             Fermi-level           -0.3174538 Eh           -8.6384 eV

     #   Z          covCN         q      C6AA      α(0)
     1   6 C        3.751    -0.104    22.539     6.771
     2   6 C        3.801    -0.054    21.547     6.609
     3   6 C        3.804    -0.068    21.798     6.647
     4   6 C        3.126     0.106    25.481     8.266
     5   7 N        1.927    -0.272    27.914     7.834
     6   6 C        3.147     0.075    26.077     8.354
     7   6 C        3.755    -0.114    22.744     6.800
     8   6 C        3.063    -0.018    28.386     8.737
     9   7 N        2.950     0.053    20.307     6.693
    10   7 N        2.769    -0.114    23.494     7.199
    11   6 C        2.858     0.123    25.299     8.244
    12   6 C        2.981    -0.041    29.012     8.835
    13   6 C        2.856     0.125    25.257     8.237
    14   6 C        2.919    -0.067    29.673     8.933
    15   6 C        2.950    -0.047    29.166     8.858
    16   6 C        2.964    -0.097    30.430     9.048
    17  16 S        3.806     1.076   104.508    17.206
    18   8 O        0.860    -0.560    25.164     6.726
    19   7 N        2.738    -0.250    26.493     7.645
    20   6 C        3.803     0.005    20.501     6.446
    21   6 C        3.771    -0.005    20.708     6.485
    22   7 N        2.730    -0.111    23.416     7.187
    23   6 C        3.767    -0.008    20.763     6.494
    24   6 C        3.825     0.005    20.482     6.440
    25   6 C        3.758    -0.008    20.761     6.496
    26   6 C        3.752    -0.114    22.734     6.799
    27   8 O        0.860    -0.564    25.249     6.737
    28   6 C        2.972    -0.053    29.317     8.882
    29   8 O        1.704    -0.294    18.892     5.868
    30   6 C        3.686     0.084    19.371     6.301
    31   6 C        3.751    -0.112    22.712     6.796
    32   7 N        1.845    -0.272    27.920     7.831
    33   6 C        2.777     0.264    22.546     7.777
    34   8 O        0.859    -0.416    21.998     6.288
    35   1 H        0.925     0.041     2.432     2.439
    36   1 H        0.925     0.033     2.541     2.493
    37   1 H        0.925     0.036     2.501     2.473
    38   1 H        0.924     0.048     2.341     2.393
    39   1 H        0.924     0.039     2.462     2.454
    40   1 H        0.924     0.065     2.136     2.286
    41   1 H        0.924     0.040     2.455     2.450
    42   1 H        0.925     0.070     2.087     2.259
    43   1 H        0.925     0.064     2.158     2.297
    44   1 H        0.925     0.064     2.158     2.297
    45   1 H        0.860     0.211     1.052     1.607
    46   1 H        0.926     0.040     2.451     2.448
    47   1 H        0.926     0.047     2.355     2.400
    48   1 H        0.925     0.076     2.025     2.225
    49   1 H        0.923     0.055     2.263     2.353
    50   1 H        0.923     0.060     2.204     2.322
    51   1 H        0.924     0.059     2.217     2.328
    52   1 H        0.922     0.061     2.191     2.315
    53   1 H        0.925     0.064     2.156     2.296
    54   1 H        0.923     0.058     2.220     2.330
    55   1 H        0.925     0.060     2.196     2.317
    56   1 H        0.923     0.073     2.054     2.241
    57   1 H        0.924     0.052     2.296     2.370
    58   1 H        0.925     0.053     2.282     2.363
    59   1 H        0.925     0.052     2.296     2.369
    60   1 H        0.925     0.043     2.404     2.425
    61   1 H        0.926     0.056     2.248     2.344
    62   1 H        0.924     0.037     2.495     2.470
    63   1 H        0.924     0.038     2.481     2.463
    64   1 H        0.925     0.053     2.283     2.363
    65   1 H        0.925     0.052     2.299     2.371
    66   1 H        0.925     0.052     2.291     2.367

 Mol. C6AA /au·bohr⁶  :      48198.030125
 Mol. C8AA /au·bohr⁸  :    1143111.322603
 Mol. α(0) /au        :        335.396445


Wiberg/Mayer (AO) data.
largest (>0.10) Wiberg bond orders for each atom

 ---------------------------------------------------------------------------
     #   Z sym  total        # sym  WBO       # sym  WBO       # sym  WBO
 ---------------------------------------------------------------------------
     1   6 C    3.996 --     2 C    1.021    37 H    0.987    35 H    0.986
                            36 H    0.983
     2   6 C    3.991 --     1 C    1.021     3 C    0.983    38 H    0.978
                            39 H    0.977
     3   6 C    3.993 --     4 C    1.018     2 C    0.983    40 H    0.967
                            41 H    0.966
     4   6 C    3.924 --     5 N    1.428     9 N    1.241     3 C    1.018
     5   7 N    3.023 --     4 C    1.428     6 C    1.297
     6   6 C    3.919 --     8 C    1.407     5 N    1.297     7 C    1.038
     7   6 C    3.987 --     6 C    1.038    42 H    0.977    43 H    0.965
                            44 H    0.964
     8   6 C    3.841 --     6 C    1.407     9 N    1.123    33 C    1.003
     9   7 N    3.632 --     4 C    1.241     8 C    1.123    10 N    1.035
    10   7 N    3.365 --    11 C    1.125     9 N    1.035    45 H    0.894
    11   6 C    3.903 --    32 N    1.386    12 C    1.144    10 N    1.125
    12   6 C    3.950 --    28 C    1.303    13 C    1.235    11 C    1.144
    13   6 C    3.909 --    14 C    1.422    12 C    1.235    29 O    1.042
    14   6 C    3.973 --    13 C    1.422    15 C    1.385    46 H    0.964
    15   6 C    3.918 --    14 C    1.385    16 C    1.372    47 H    0.967
    16   6 C    3.954 --    28 C    1.467    15 C    1.372    17 S    0.736
    17  16 S    5.032 --    18 O    1.632    27 O    1.622    19 N    0.961
                            16 C    0.736
    18   8 O    1.933 --    17 S    1.632    27 O    0.109
    19   7 N    3.266 --    24 C    0.997    20 C    0.995    17 S    0.961
    20   6 C    3.963 --    19 N    0.995    21 C    0.990    48 H    0.966
                            49 H    0.959
    21   6 C    3.977 --    22 N    1.009    20 C    0.990    51 H    0.968
                            50 H    0.943
    22   7 N    3.225 --    23 C    1.010    21 C    1.009    25 C    0.995
    23   6 C    3.976 --    22 N    1.010    24 C    0.990    53 H    0.966
                            52 H    0.943
    24   6 C    3.967 --    19 N    0.997    23 C    0.990    55 H    0.970
                            54 H    0.959
    25   6 C    3.964 --    26 C    1.015    22 N    0.995    57 H    0.970
                            56 H    0.938
    26   6 C    3.991 --    25 C    1.015    59 H    0.985    60 H    0.984
                            58 H    0.984
    27   8 O    1.924 --    17 S    1.622    18 O    0.109
    28   6 C    3.971 --    16 C    1.467    12 C    1.303    61 H    0.951
    29   8 O    2.220 --    13 C    1.042    30 C    0.956
    30   6 C    3.944 --    31 C    1.016    63 H    0.969    62 H    0.969
                            29 O    0.956
    31   6 C    3.993 --    30 C    1.016    64 H    0.986    65 H    0.984
                            66 H    0.984
    32   7 N    3.115 --    11 C    1.386    33 C    1.178    34 O    0.181
    33   6 C    3.910 --    34 O    1.560    32 N    1.178     8 C    1.003
    34   8 O    2.020 --    33 C    1.560    32 N    0.181
    35   1 H    0.998 --     1 C    0.986
    36   1 H    0.999 --     1 C    0.983
    37   1 H    0.999 --     1 C    0.987
    38   1 H    0.998 --     2 C    0.978
    39   1 H    0.997 --     2 C    0.977
    40   1 H    0.994 --     3 C    0.967
    41   1 H    0.998 --     3 C    0.966
    42   1 H    0.994 --     7 C    0.977
    43   1 H    0.990 --     7 C    0.965
    44   1 H    0.990 --     7 C    0.964
    45   1 H    0.954 --    10 N    0.894
    46   1 H    0.997 --    14 C    0.964
    47   1 H    0.997 --    15 C    0.967
    48   1 H    0.994 --    20 C    0.966
    49   1 H    0.987 --    20 C    0.959
    50   1 H    0.989 --    21 C    0.943
    51   1 H    0.995 --    21 C    0.968
    52   1 H    0.990 --    23 C    0.943
    53   1 H    0.995 --    23 C    0.966
    54   1 H    0.988 --    24 C    0.959
    55   1 H    0.996 --    24 C    0.970
    56   1 H    0.986 --    25 C    0.938
    57   1 H    0.996 --    25 C    0.970
    58   1 H    0.997 --    26 C    0.984
    59   1 H    0.996 --    26 C    0.985
    60   1 H    0.998 --    26 C    0.984
    61   1 H    0.996 --    28 C    0.951
    62   1 H    0.998 --    30 C    0.969
    63   1 H    0.998 --    30 C    0.969
    64   1 H    0.997 --    31 C    0.986
    65   1 H    0.997 --    31 C    0.984
    66   1 H    0.997 --    31 C    0.984
 ---------------------------------------------------------------------------

Topologies differ in total number of bonds
Writing topology from bond orders to xtbtopo.mol

molecular dipole:
                 x           y           z       tot (Debye)
 q only:       -1.689       1.104      -0.646
   full:       -1.743       1.262       0.030       5.469
molecular quadrupole (traceless):
                xx          xy          yy          xz          yz          zz
 q only:      -12.656       4.060      -1.247     -48.404      10.336      13.903
  q+dip:      -16.193       4.355       1.703     -50.242      12.853      14.489
   full:      -18.766       4.601       4.823     -50.435      11.371      13.942


           -------------------------------------------------
          | TOTAL ENERGY             -102.589634795091 Eh   |
          | GRADIENT NORM               0.134442642521 Eh/α |
          | HOMO-LUMO GAP               0.728017043272 eV   |
           -------------------------------------------------

------------------------------------------------------------------------
 * finished run on 2025/05/15 at 16:19:10.848     
------------------------------------------------------------------------
 total:
 * wall-time:     0 d,  0 h,  0 min,  0.212 sec
 *  cpu-time:     0 d,  0 h,  0 min,  0.210 sec
 * ratio c/w:     0.987 speedup
 SCF:
 * wall-time:     0 d,  0 h,  0 min,  0.191 sec
 *  cpu-time:     0 d,  0 h,  0 min,  0.190 sec
 * ratio c/w:     0.994 speedup


