66
 energy: -102.677005430977 gnorm: 0.000707763068 xtb: 6.7.1 (edcfbbe)
C           -4.20369113646268       -1.52132429491759        2.17349715755196
C           -5.37850121030003       -0.70396734835847        1.64901194648613
C           -4.94704314289917        0.56930346458294        0.90535185118639
C           -4.17711788253640        0.26849616374807       -0.32945602911944
N           -4.68277017037195        0.07557748431893       -1.52917306758892
C           -3.65883378756880       -0.18165108960611       -2.37487588171022
C           -3.85415810681463       -0.45439057911595       -3.81882251628401
C           -2.46614979441925       -0.14646652444066       -1.67323215582496
N           -2.83343116824241        0.14053181309961       -0.36769852879756
N           -1.89590571724875        0.24141607761429        0.61813502431153
C           -0.59700925257321        0.03103616419561        0.29329499770391
C            0.41268976055091        0.10581968279715        1.35982128439424
C            0.20425416041841        0.62006999925210        2.65598643482385
C            1.28154044850135        0.68659594572673        3.53891021695537
C            2.54307593086978        0.26119171906284        3.15976068607830
C            2.73890296270022       -0.25853862599437        1.89520676160485
S            4.37081559900397       -0.81965731284678        1.37482162709798
O            4.49758086283434       -2.20240083681984        1.73279006946984
N            4.28362466006294       -0.70415509121744       -0.25494353668542
C            4.35473570236996       -1.83976069689551       -1.13762189446247
C            3.34970508127017       -1.66303054089047       -2.27624735878879
N            3.60539201631212       -0.41200772192505       -2.97125244584650
C            3.46208107439812        0.70228643449445       -2.04872588911604
C            4.47659575130223        0.56122217307997       -0.91236748745449
C            2.74415955848357       -0.28022350412113       -4.14200138094694
C            3.18651465113245        0.85888231968205       -5.05337279703689
O            5.31305247031205        0.12312090857351        1.91072571239269
C            1.68597285573378       -0.34467480071579        1.01864620530793
O           -1.05005338842969        1.03984850807249        2.98454453281468
C           -1.28842612802976        1.65104210781350        4.24680395388323
C           -2.74329759500196        2.09355128120759        4.27415281613214
N           -0.19065014503648       -0.23225561544571       -0.90075576497325
C           -1.05624500956904       -0.32308382210424       -1.98701094470331
O           -0.62616478500828       -0.53445092962937       -3.10185159463442
H           -4.56787319250436       -2.38762193360555        2.72039401552944
H           -3.58596467014818       -0.93342961068765        2.85163042803907
H           -3.58271673822569       -1.88207880008148        1.35661367652189
H           -5.96948935271820       -1.31686710294969        0.96752493139588
H           -6.01975348317193       -0.41468541421477        2.48412830809614
H           -5.84020370730435        1.12030766265926        0.60919626164656
H           -4.35287580730322        1.20478435912675        1.56878484016626
H           -2.88742714872569       -0.59556079525462       -4.29331079703584
H           -4.37820410426060        0.37596125484022       -4.28762686212155
H           -4.46096794581687       -1.34839320680359       -3.95084857374342
H           -2.19009919757765        0.48725461254269        1.55463611976213
H            1.14362523991404        1.07903318025479        4.53320048298643
H            3.37971627770975        0.33462710384743        3.83556232394713
H            4.14136957875945       -2.72981404960839       -0.54652408604180
H            5.36496526124812       -1.92152449288909       -1.56165794565706
H            2.31826308054561       -1.69849503945767       -1.88332555839672
H            3.47154109888553       -2.48466552282463       -2.98574510664696
H            2.43872193166824        0.75076349971701       -1.63557466755499
H            3.66640168087969        1.62981069967333       -2.58396780564639
H            5.49215829620617        0.61937324257470       -1.32628871168713
H            4.35273173955312        1.34780329514694       -0.16777217938762
H            1.68880339496983       -0.15170373428082       -3.85614286362704
H            2.82722817938302       -1.21744693422802       -4.69812219176062
H            2.68591895442085        0.76840655986008       -6.01388379529193
H            4.26112332378632        0.81023462694055       -5.21091666598228
H            2.93631070737830        1.83063481570384       -4.63601675887397
H            1.82746345649338       -0.74768114887598        0.03026645335205
H           -1.09437894664984        0.93130987085251        5.05118784883983
H           -0.62791408777157        2.51692388585543        4.37061642954696
H           -2.93954448805616        2.79032656504420        3.46285832783918
H           -3.40555738867708        1.23684204128620        4.17516314062369
H           -2.95481706875244        2.58771759748104        5.21750897692408
