----- Optimization -----
      -----------------------------------------------------------      
     |                   =====================                   |     
     |                           x T B                           |     
     |                   =====================                   |     
     |                         S. Grimme                         |     
     |          Mulliken Center for Theoretical Chemistry        |     
     |                    University of Bonn                     |     
      -----------------------------------------------------------      

   * xtb version 6.7.1 (edcfbbe) compiled by 'conda@3ef47c1a292c' on 2024-11-25

   xtb is free software: you can redistribute it and/or modify it under
   the terms of the GNU Lesser General Public License as published by
   the Free Software Foundation, either version 3 of the License, or
   (at your option) any later version.
   
   xtb is distributed in the hope that it will be useful,
   but WITHOUT ANY WARRANTY; without even the implied warranty of
   MERCHANTABILITY or FITNESS FOR A PARTICULAR PURPOSE.  See the
   GNU Lesser General Public License for more details.
   
   Cite this work as:
   * C. Bannwarth, E. Caldeweyher, S. Ehlert, A. Hansen, P. Pracht,
     J. Seibert, S. Spicher, S. Grimme, WIREs Comput. Mol. Sci., 2020, 11,
     e01493. DOI: 10.1002/wcms.1493
   
   for GFN2-xTB:
   * C. Bannwarth, S. Ehlert and S. Grimme., J. Chem. Theory Comput., 2019,
     15, 1652-1671. DOI: 10.1021/acs.jctc.8b01176
   for GFN1-xTB:
   * S. Grimme, C. Bannwarth, P. Shushkov, J. Chem. Theory Comput., 2017,
     13, 1989-2009. DOI: 10.1021/acs.jctc.7b00118
   for GFN0-xTB:
   * P. Pracht, E. Caldeweyher, S. Ehlert, S. Grimme, ChemRxiv, 2019, preprint.
     DOI: 10.26434/chemrxiv.8326202.v1
   for GFN-FF:
   * S. Spicher and S. Grimme, Angew. Chem. Int. Ed., 2020, 59, 15665-15673.
     DOI: 10.1002/anie.202004239
   
   for ALPB and GBSA implicit solvation:
   * S. Ehlert, M. Stahn, S. Spicher, S. Grimme, J. Chem. Theory Comput.,
     2021, 17, 4250-4261. DOI: 10.1021/acs.jctc.1c00471
   
   for ddCOSMO and CPCM-X implicit solvation:
   * M. Stahn, S. Ehlert, S. Grimme, J. Phys. Chem. A,
     2023, XX, XXXX-XXXX. DOI: 10.1021/acs.jpca.3c04382
   
   for DFT-D4:
   * E. Caldeweyher, C. Bannwarth and S. Grimme, J. Chem. Phys., 2017,
     147, 034112. DOI: 10.1063/1.4993215
   * E. Caldeweyher, S. Ehlert, A. Hansen, H. Neugebauer, S. Spicher,
     C. Bannwarth and S. Grimme, J. Chem. Phys., 2019, 150, 154122.
     DOI: 10.1063/1.5090222
   * E. Caldeweyher, J.-M. Mewes, S. Ehlert and S. Grimme, Phys. Chem. Chem. Phys.
     2020, 22, 8499-8512. DOI: 10.1039/D0CP00502A
   
   for sTDA-xTB:
   * S. Grimme and C. Bannwarth, J. Chem. Phys., 2016, 145, 054103.
     DOI: 10.1063/1.4959605
   
   in the mass-spec context:
   * V. Asgeirsson, C. Bauer and S. Grimme, Chem. Sci., 2017, 8, 4879.
     DOI: 10.1039/c7sc00601b
   * J. Koopman and S. Grimme, ACS Omega 2019, 4, 12, 15120-15133.
     DOI: 10.1021/acsomega.9b02011
   
   for metadynamics refer to:
   * S. Grimme, J. Chem. Theory Comput., 2019, 155, 2847-2862
     DOI: 10.1021/acs.jctc.9b00143
   
   for SPH calculations refer to:
   * S. Spicher and S. Grimme, J. Chem. Theory Comput., 2021, 17, 1701-1714
     DOI: 10.1021/acs.jctc.0c01306
   
   for ONIOM refer to:
   * C. Plett, A. Katbashev, S. Ehlert, S. Grimme, M. Bursch,
     Phys. Chem. Chem. Phys., 2023, 25, 17860-17868. DOI: 10.1039/D3CP02178E
   
   for DIPRO refer to:
   * J. Kohn, N. Gildemeister, S. Grimme, D. Fazzi, A. Hansen,
     J. Chem. Phys., 2023, just accepted.
   
   for PTB refer to:
   * S. Grimme, M. Mueller, A. Hansen, J. Chem. Phys., 2023, 158, 124111.
     DOI: 10.1063/5.0137838
   
   with help from (in alphabetical order)
   P. Atkinson, C. Bannwarth, F. Bohle, G. Brandenburg, E. Caldeweyher
   M. Checinski, S. Dohm, S. Ehlert, S. Ehrlich, I. Gerasimov, C. Hölzer
   A. Katbashev, J. Kohn, J. Koopman, C. Lavigne, S. Lehtola, F. März, M. Müller,
   F. Musil, H. Neugebauer, J. Pisarek, C. Plett, P. Pracht, F. Pultar,
   J. Seibert, P. Shushkov, S. Spicher, M. Stahn, M. Steiner, T. Strunk,
   J. Stückrath, T. Rose, and J. Unsleber
   
 * started run on 2025/05/15 at 16:33:21.676     
   ID    Z sym.   atoms
    1    6 C      1-4, 6-8, 11-16, 20, 21, 23-26, 28, 30, 31, 33
    2    7 N      5, 9, 10, 19, 22, 32
    3   16 S      17
    4    8 O      18, 27, 29, 34
    5    1 H      35-66

           -------------------------------------------------
          |                Calculation Setup                |
           -------------------------------------------------

          program call               : xtb /rds/general/user/hgt20/home/callum/QDESCP/Vardenafil_rdkit_conf_23/Vardenafil_rdkit_conf_23.xyz --opt normal --acc 1 --gfn 2 --chrg 0 --uhf 0 -P 1
          hostname                   : login-c
          coordinate file            : /rds/general/user/hgt20/home/callum/QDESCP/Vardenafil_rdkit_conf_23/Vardenafil_rdkit_conf_23.xyz
          omp threads                :                     1


           -------------------------------------------------
          |                 G F N 2 - x T B                 |
           -------------------------------------------------

        Reference                      10.1021/acs.jctc.8b01176
      * Hamiltonian:
        H0-scaling (s, p, d)           1.850000    2.230000    2.230000
        zeta-weighting                 0.500000
      * Dispersion:
        s8                             2.700000
        a1                             0.520000
        a2                             5.000000
        s9                             5.000000
      * Repulsion:
        kExp                           1.500000    1.000000
        rExp                           1.000000
      * Coulomb:
        alpha                          2.000000
        third order                    shell-resolved
        anisotropic                    true
        a3                             3.000000
        a5                             4.000000
        cn-shift                       1.200000
        cn-exp                         4.000000
        max-rad                        5.000000


          ...................................................
          :                      SETUP                      :
          :.................................................:
          :  # basis functions                 174          :
          :  # atomic orbitals                 173          :
          :  # shells                          101          :
          :  # electrons                       184          :
          :  max. iterations                   250          :
          :  Hamiltonian                  GFN2-xTB          :
          :  restarted?                      false          :
          :  GBSA solvation                  false          :
          :  PC potential                    false          :
          :  electronic temp.          300.0000000     K    :
          :  accuracy                    1.0000000          :
          :  -> integral cutoff          0.2500000E+02      :
          :  -> integral neglect         0.1000000E-07      :
          :  -> SCF convergence          0.1000000E-05 Eh   :
          :  -> wf. convergence          0.1000000E-03 e    :
          :  Broyden damping             0.4000000          :
          :  net charge                          0          :
          :  unpaired electrons                  0          :
          ...................................................

 iter      E             dE          RMSdq      gap      omega  full diag
   1   -103.5997087 -0.103600E+03  0.427E+00    2.30       0.0  T
   2   -103.8277757 -0.228067E+00  0.272E+00    1.52       1.0  T
   3   -103.8483914 -0.206157E-01  0.141E+00    1.71       1.0  T
   4   -103.8632094 -0.148180E-01  0.499E-01    1.13       1.0  T
   5   -103.8734700 -0.102606E-01  0.185E-01    1.21       1.0  T
   6   -103.8738712 -0.401251E-03  0.962E-02    1.21       1.0  T
   7   -103.8739962 -0.124935E-03  0.585E-02    1.24       1.0  T
   8   -103.8740797 -0.834863E-04  0.282E-02    1.25       1.0  T
   9   -103.8740887 -0.898651E-05  0.103E-02    1.25       1.2  T
  10   -103.8740910 -0.236468E-05  0.506E-03    1.25       2.4  T
  11   -103.8740914 -0.356717E-06  0.228E-03    1.25       5.4  T
  12   -103.8740915 -0.860128E-07  0.670E-04    1.25      18.4  T
  13   -103.8740915 -0.101522E-07  0.314E-04    1.25      39.3  T

   *** convergence criteria satisfied after 13 iterations ***

         #    Occupation            Energy/Eh            Energy/eV
      -------------------------------------------------------------
         1        2.0000           -0.7755153             -21.1028
       ...           ...                  ...                  ...
        86        2.0000           -0.4138484             -11.2614
        87        2.0000           -0.4111468             -11.1879
        88        2.0000           -0.3950143             -10.7489
        89        2.0000           -0.3849070             -10.4739
        90        2.0000           -0.3810686             -10.3694
        91        2.0000           -0.3744200             -10.1885
        92        2.0000           -0.3539401              -9.6312 (HOMO)
        93                         -0.3081201              -8.3844 (LUMO)
        94                         -0.2800198              -7.6197
        95                         -0.2546159              -6.9285
        96                         -0.2313281              -6.2948
        97                         -0.1941471              -5.2830
       ...                                ...                  ...
       173                          1.1534724              31.3876
      -------------------------------------------------------------
                  HL-Gap            0.0458200 Eh            1.2468 eV
             Fermi-level           -0.3310301 Eh           -9.0078 eV

 SCC (total)                   0 d,  0 h,  0 min,  0.155 sec
 SCC setup                      ...        0 min,  0.001 sec (  0.492%)
 Dispersion                     ...        0 min,  0.001 sec (  0.685%)
 classical contributions        ...        0 min,  0.000 sec (  0.221%)
 integral evaluation            ...        0 min,  0.015 sec (  9.954%)
 iterations                     ...        0 min,  0.082 sec ( 52.813%)
 molecular gradient             ...        0 min,  0.055 sec ( 35.557%)
 printout                       ...        0 min,  0.000 sec (  0.272%)

         :::::::::::::::::::::::::::::::::::::::::::::::::::::
         ::                     SUMMARY                     ::
         :::::::::::::::::::::::::::::::::::::::::::::::::::::
         :: total energy            -102.644989114374 Eh    ::
         :: gradient norm              0.106863701271 Eh/a0 ::
         :: HOMO-LUMO gap              1.246824798732 eV    ::
         ::.................................................::
         :: SCC energy              -103.873525574829 Eh    ::
         :: -> isotropic ES            0.147614230773 Eh    ::
         :: -> anisotropic ES          0.006234777366 Eh    ::
         :: -> anisotropic XC          0.050627973639 Eh    ::
         :: -> dispersion             -0.076803428538 Eh    ::
         :: repulsion energy           1.228536460455 Eh    ::
         :: add. restraining           0.000000000000 Eh    ::
         :: total charge              -0.000000000000 e     ::
         :::::::::::::::::::::::::::::::::::::::::::::::::::::

      ----------------------------------------------------------- 
     |                   =====================                   |
     |                        A N C O P T                        |
     |                   =====================                   |
     |               Approximate Normal Coordinate               |
     |                Rational Function Optimizer                |
      ----------------------------------------------------------- 
      ----------------------------------------------------------- 
     |                   =====================                   |
     |                        A N C O P T                        |
     |                   =====================                   |
     |               Approximate Normal Coordinate               |
     |                Rational Function Optimizer                |
      ----------------------------------------------------------- 

          ...................................................
          :                      SETUP                      :
          :.................................................:
          :   optimization level            normal          :
          :   max. optcycles                   200          :
          :   ANC micro-cycles                  20          :
          :   degrees of freedom               192          :
          :.................................................:
          :   RF solver                   davidson          :
          :   write xtbopt.log                true          :
          :   linear?                        false          :
          :   energy convergence         0.5000000E-05 Eh   :
          :   grad. convergence          0.1000000E-02 Eh/α :
          :   maxmium RF displ.          1.0000000          :
          :   Hlow (freq-cutoff)         0.1000000E-01      :
          :   Hmax (freq-cutoff)         5.0000000          :
          :   S6 in model hess.         20.0000000          :
          ...................................................

generating ANC from exact Hessian ...
Using Lindh-Hessian (1995)
 Shifting diagonal of input Hessian by    9.9067928581369272E-003
 Lowest  eigenvalues of input Hessian
    0.000000    0.000000    0.000000    0.000000    0.000000    0.000000
    0.010000    0.010083    0.010189    0.010456    0.010733    0.010778
    0.011118    0.011330    0.011486    0.011905    0.012328    0.012593
 Highest eigenvalues
    2.086230    2.105997    2.318410    2.434765    2.536646    3.436329


........................................................................
.............................. CYCLE    1 ..............................
........................................................................

 iter      E             dE          RMSdq      gap      omega  full diag
   1   -103.8740915 -0.103874E+03  0.134E-04    1.25       0.0  T
   2   -103.8740915 -0.130882E-09  0.857E-05    1.25     143.6  T
   3   -103.8740915 -0.373461E-10  0.576E-05    1.25     213.7  T
     SCC iter.                  ...        0 min,  0.016 sec
     gradient                   ...        0 min,  0.070 sec
 * total energy  :  -102.6449891 Eh     change       -0.1627001E-08 Eh
   gradient norm :     0.1068616 Eh/α   predicted     0.0000000E+00 (-100.00%)
   displ. norm   :     0.3487112 α      lambda       -0.2087645E-01
   maximum displ.:     0.1428099 α      in ANC's #64, #68, #63, ...

........................................................................
.............................. CYCLE    2 ..............................
........................................................................

 iter      E             dE          RMSdq      gap      omega  full diag
   1   -103.9233351 -0.103923E+03  0.195E-01    1.30       0.0  T
   2   -103.9235833 -0.248127E-03  0.124E-01    1.35       1.0  T
   3   -103.9235660  0.173076E-04  0.640E-02    1.35       1.0  T
   4   -103.9236632 -0.972276E-04  0.206E-02    1.36       1.0  T
   5   -103.9236811 -0.178835E-04  0.593E-03    1.36       2.1  T
   6   -103.9236811 -0.236635E-07  0.229E-03    1.36       5.4  T
   7   -103.9236813 -0.204567E-06  0.878E-04    1.36      14.0  T
   8   -103.9236813 -0.177516E-07  0.419E-04    1.36      29.4  T
     SCC iter.                  ...        0 min,  0.039 sec
     gradient                   ...        0 min,  0.074 sec
 * total energy  :  -102.6597116 Eh     change       -0.1472250E-01 Eh
   gradient norm :     0.0468937 Eh/α   predicted    -0.1171383E-01 ( -20.44%)
   displ. norm   :     0.3194236 α      lambda       -0.7432795E-02
   maximum displ.:     0.0928017 α      in ANC's #16, #64, #27, ...

........................................................................
.............................. CYCLE    3 ..............................
........................................................................

 iter      E             dE          RMSdq      gap      omega  full diag
   1   -103.9514305 -0.103951E+03  0.146E-01    1.36       0.0  T
   2   -103.9515706 -0.140126E-03  0.895E-02    1.40       1.0  T
   3   -103.9515675  0.311711E-05  0.456E-02    1.40       1.0  T
   4   -103.9516180 -0.504314E-04  0.170E-02    1.41       1.0  T
   5   -103.9516281 -0.101559E-04  0.569E-03    1.41       2.2  T
   6   -103.9516282 -0.419390E-07  0.184E-03    1.41       6.7  T
   7   -103.9516283 -0.152038E-06  0.625E-04    1.41      19.7  T
   8   -103.9516283 -0.569099E-08  0.316E-04    1.41      38.9  T
     SCC iter.                  ...        0 min,  0.059 sec
     gradient                   ...        0 min,  0.055 sec
 * total energy  :  -102.6641711 Eh     change       -0.4459522E-02 Eh
   gradient norm :     0.0179583 Eh/α   predicted    -0.4097564E-02 (  -8.12%)
   displ. norm   :     0.2380819 α      lambda       -0.1454517E-02
   maximum displ.:     0.0964966 α      in ANC's #16, #13, #9, ...

........................................................................
.............................. CYCLE    4 ..............................
........................................................................

 iter      E             dE          RMSdq      gap      omega  full diag
   1   -103.9548924 -0.103955E+03  0.672E-02    1.41       0.0  T
   2   -103.9549174 -0.250594E-04  0.369E-02    1.42       1.0  T
   3   -103.9549150  0.245547E-05  0.183E-02    1.42       1.0  T
   4   -103.9549257 -0.107329E-04  0.638E-03    1.42       1.9  T
   5   -103.9549268 -0.108452E-05  0.276E-03    1.42       4.5  T
   6   -103.9549269 -0.117382E-06  0.885E-04    1.42      13.9  T
   7   -103.9549269 -0.240158E-07  0.304E-04    1.42      40.5  T
     SCC iter.                  ...        0 min,  0.050 sec
     gradient                   ...        0 min,  0.071 sec
 * total energy  :  -102.6652941 Eh     change       -0.1122978E-02 Eh
   gradient norm :     0.0161882 Eh/α   predicted    -0.7684945E-03 ( -31.57%)
   displ. norm   :     0.3673175 α      lambda       -0.1520383E-02
   maximum displ.:     0.1509223 α      in ANC's #13, #16, #9, ...

........................................................................
.............................. CYCLE    5 ..............................
........................................................................

 iter      E             dE          RMSdq      gap      omega  full diag
   1   -103.9547706 -0.103955E+03  0.903E-02    1.43       0.0  T
   2   -103.9548368 -0.662434E-04  0.495E-02    1.44       1.0  T
   3   -103.9548412 -0.444290E-05  0.255E-02    1.45       1.0  T
   4   -103.9548568 -0.155479E-04  0.838E-03    1.44       1.5  T
   5   -103.9548589 -0.212743E-05  0.400E-03    1.45       3.1  T
   6   -103.9548592 -0.288093E-06  0.124E-03    1.45       9.9  T
   7   -103.9548593 -0.617186E-07  0.419E-04    1.45      29.4  T
   8   -103.9548593 -0.214990E-08  0.203E-04    1.45      60.6  T
     SCC iter.                  ...        0 min,  0.041 sec
     gradient                   ...        0 min,  0.065 sec
 * total energy  :  -102.6663460 Eh     change       -0.1051919E-02 Eh
   gradient norm :     0.0123583 Eh/α   predicted    -0.8627610E-03 ( -17.98%)
   displ. norm   :     0.2965116 α      lambda       -0.6927476E-03
   maximum displ.:     0.1294580 α      in ANC's #13, #9, #16, ...

........................................................................
.............................. CYCLE    6 ..............................
........................................................................

 iter      E             dE          RMSdq      gap      omega  full diag
   1   -103.9548008 -0.103955E+03  0.640E-02    1.46       0.0  T
   2   -103.9548382 -0.373590E-04  0.367E-02    1.45       1.0  T
   3   -103.9548425 -0.429574E-05  0.198E-02    1.46       1.0  T
   4   -103.9548503 -0.787903E-05  0.602E-03    1.46       2.0  T
   5   -103.9548517 -0.133761E-05  0.268E-03    1.46       4.6  T
   6   -103.9548518 -0.109404E-06  0.905E-04    1.46      13.6  T
   7   -103.9548518 -0.349679E-07  0.283E-04    1.46      43.5  T
     SCC iter.                  ...        0 min,  0.035 sec
     gradient                   ...        0 min,  0.071 sec
 * total energy  :  -102.6668462 Eh     change       -0.5001794E-03 Eh
   gradient norm :     0.0093451 Eh/α   predicted    -0.3768380E-03 ( -24.66%)
   displ. norm   :     0.2947304 α      lambda       -0.4802633E-03
   maximum displ.:     0.1281333 α      in ANC's #13, #12, #9, ...

........................................................................
.............................. CYCLE    7 ..............................
........................................................................

 iter      E             dE          RMSdq      gap      omega  full diag
   1   -103.9557930 -0.103956E+03  0.591E-02    1.47       0.0  T
   2   -103.9558149 -0.219333E-04  0.348E-02    1.47       1.0  T
   3   -103.9558136  0.138742E-05  0.191E-02    1.47       1.0  T
   4   -103.9558236 -0.100160E-04  0.469E-03    1.47       2.6  T
   5   -103.9558245 -0.913326E-06  0.195E-03    1.47       6.3  T
   6   -103.9558245 -0.612606E-07  0.736E-04    1.47      16.7  T
   7   -103.9558246 -0.201357E-07  0.235E-04    1.47      52.5  T
     SCC iter.                  ...        0 min,  0.056 sec
     gradient                   ...        0 min,  0.078 sec
 * total energy  :  -102.6672030 Eh     change       -0.3568106E-03 Eh
   gradient norm :     0.0078430 Eh/α   predicted    -0.2609949E-03 ( -26.85%)
   displ. norm   :     0.3278470 α      lambda       -0.4095651E-03
   maximum displ.:     0.1376738 α      in ANC's #12, #13, #2, ...

........................................................................
.............................. CYCLE    8 ..............................
........................................................................

 iter      E             dE          RMSdq      gap      omega  full diag
   1   -103.9570022 -0.103957E+03  0.633E-02    1.48       0.0  T
   2   -103.9570140 -0.118466E-04  0.373E-02    1.47       1.0  T
   3   -103.9570035  0.105113E-04  0.194E-02    1.48       1.0  T
   4   -103.9570201 -0.165664E-04  0.350E-03    1.47       3.5  T
   5   -103.9570206 -0.485178E-06  0.157E-03    1.47       7.8  T
   6   -103.9570206 -0.456608E-07  0.631E-04    1.47      19.5  T
   7   -103.9570206 -0.111529E-07  0.214E-04    1.47      57.5  T
     SCC iter.                  ...        0 min,  0.035 sec
     gradient                   ...        0 min,  0.079 sec
 * total energy  :  -102.6675154 Eh     change       -0.3123284E-03 Eh
   gradient norm :     0.0075648 Eh/α   predicted    -0.2268261E-03 ( -27.38%)
   displ. norm   :     0.3806066 α      lambda       -0.3964288E-03
   maximum displ.:     0.1688052 α      in ANC's #12, #13, #2, ...

........................................................................
.............................. CYCLE    9 ..............................
........................................................................

 iter      E             dE          RMSdq      gap      omega  full diag
   1   -103.9579123 -0.103958E+03  0.730E-02    1.49       0.0  T
   2   -103.9579200 -0.772025E-05  0.429E-02    1.48       1.0  T
   3   -103.9579025  0.174654E-04  0.196E-02    1.48       1.0  T
   4   -103.9579248 -0.223007E-04  0.297E-03    1.48       4.1  T
   5   -103.9579250 -0.220979E-06  0.155E-03    1.48       7.9  T
   6   -103.9579251 -0.497343E-07  0.619E-04    1.48      19.9  T
   7   -103.9579251 -0.913344E-08  0.204E-04    1.48      60.2  T
     SCC iter.                  ...        0 min,  0.062 sec
     gradient                   ...        0 min,  0.056 sec
 * total energy  :  -102.6678235 Eh     change       -0.3081784E-03 Eh
   gradient norm :     0.0075889 Eh/α   predicted    -0.2269318E-03 ( -26.36%)
   displ. norm   :     0.4346440 α      lambda       -0.4010469E-03
   maximum displ.:     0.1942421 α      in ANC's #12, #2, #13, ...

........................................................................
.............................. CYCLE   10 ..............................
........................................................................

 iter      E             dE          RMSdq      gap      omega  full diag
   1   -103.9583622 -0.103958E+03  0.845E-02    1.49       0.0  T
   2   -103.9583698 -0.760909E-05  0.497E-02    1.48       1.0  T
   3   -103.9583488  0.210203E-04  0.205E-02    1.49       1.0  T
   4   -103.9583746 -0.258253E-04  0.322E-03    1.48       3.8  T
   5   -103.9583747 -0.116455E-06  0.174E-03    1.48       7.1  T
   6   -103.9583748 -0.714171E-07  0.665E-04    1.48      18.5  T
   7   -103.9583748 -0.114211E-07  0.236E-04    1.48      52.1  T
     SCC iter.                  ...        0 min,  0.035 sec
     gradient                   ...        0 min,  0.061 sec
 * total energy  :  -102.6681400 Eh     change       -0.3164453E-03 Eh
   gradient norm :     0.0078874 Eh/α   predicted    -0.2384191E-03 ( -24.66%)
   displ. norm   :     0.4721706 α      lambda       -0.4079859E-03
   maximum displ.:     0.2031554 α      in ANC's #12, #2, #5, ...

........................................................................
.............................. CYCLE   11 ..............................
........................................................................

 iter      E             dE          RMSdq      gap      omega  full diag
   1   -103.9584865 -0.103958E+03  0.940E-02    1.49       0.0  T
   2   -103.9584961 -0.953226E-05  0.551E-02    1.49       1.0  T
   3   -103.9584714  0.246875E-04  0.230E-02    1.49       1.0  T
   4   -103.9585019 -0.304976E-04  0.368E-03    1.49       3.3  T
   5   -103.9585020 -0.136425E-06  0.194E-03    1.49       6.3  T
   6   -103.9585021 -0.101152E-06  0.751E-04    1.49      16.4  T
   7   -103.9585021 -0.134250E-07  0.276E-04    1.49      44.7  T
     SCC iter.                  ...        0 min,  0.035 sec
     gradient                   ...        0 min,  0.059 sec
 * total energy  :  -102.6684625 Eh     change       -0.3224882E-03 Eh
   gradient norm :     0.0081912 Eh/α   predicted    -0.2494747E-03 ( -22.64%)
   displ. norm   :     0.4732667 α      lambda       -0.3916498E-03
   maximum displ.:     0.1927706 α      in ANC's #2, #12, #5, ...

........................................................................
.............................. CYCLE   12 ..............................
........................................................................

 iter      E             dE          RMSdq      gap      omega  full diag
   1   -103.9586836 -0.103959E+03  0.963E-02    1.50       0.0  T
   2   -103.9586952 -0.115759E-04  0.561E-02    1.50       1.0  T
   3   -103.9586713  0.239448E-04  0.243E-02    1.50       1.0  T
   4   -103.9587015 -0.302603E-04  0.416E-03    1.50       3.0  T
   5   -103.9587019 -0.365576E-06  0.202E-03    1.50       6.1  T
   6   -103.9587020 -0.964304E-07  0.858E-04    1.50      14.3  T
   7   -103.9587020 -0.171320E-07  0.290E-04    1.50      42.4  T
     SCC iter.                  ...        0 min,  0.035 sec
     gradient                   ...        0 min,  0.065 sec
 * total energy  :  -102.6687665 Eh     change       -0.3040240E-03 Eh
   gradient norm :     0.0076083 Eh/α   predicted    -0.2396879E-03 ( -21.16%)
   displ. norm   :     0.4463871 α      lambda       -0.3282374E-03
   maximum displ.:     0.1920395 α      in ANC's #2, #5, #12, ...

........................................................................
.............................. CYCLE   13 ..............................
........................................................................

 iter      E             dE          RMSdq      gap      omega  full diag
   1   -103.9586775 -0.103959E+03  0.910E-02    1.52       0.0  T
   2   -103.9586897 -0.121852E-04  0.527E-02    1.52       1.0  T
   3   -103.9586700  0.197745E-04  0.234E-02    1.52       1.0  T
   4   -103.9586955 -0.255404E-04  0.448E-03    1.52       2.7  T
   5   -103.9586961 -0.638899E-06  0.189E-03    1.52       6.5  T
   6   -103.9586962 -0.801771E-07  0.849E-04    1.52      14.5  T
   7   -103.9586962 -0.160970E-07  0.277E-04    1.52      44.5  T
     SCC iter.                  ...        0 min,  0.058 sec
     gradient                   ...        0 min,  0.056 sec
 * total energy  :  -102.6690153 Eh     change       -0.2487844E-03 Eh
   gradient norm :     0.0063052 Eh/α   predicted    -0.1968256E-03 ( -20.89%)
   displ. norm   :     0.3737700 α      lambda       -0.2501011E-03
   maximum displ.:     0.1721667 α      in ANC's #2, #5, #10, ...

........................................................................
.............................. CYCLE   14 ..............................
........................................................................

 iter      E             dE          RMSdq      gap      omega  full diag
   1   -103.9606428 -0.103961E+03  0.754E-02    1.53       0.0  T
   2   -103.9606524 -0.951462E-05  0.434E-02    1.54       1.0  T
   3   -103.9606396  0.127457E-04  0.196E-02    1.54       1.0  T
   4   -103.9606563 -0.167217E-04  0.406E-03    1.54       3.0  T
   5   -103.9606569 -0.574821E-06  0.157E-03    1.54       7.8  T
   6   -103.9606570 -0.574503E-07  0.707E-04    1.54      17.4  T
   7   -103.9606570 -0.111451E-07  0.240E-04    1.54      51.3  T
     SCC iter.                  ...        0 min,  0.035 sec
     gradient                   ...        0 min,  0.076 sec
 * total energy  :  -102.6691930 Eh     change       -0.1777110E-03 Eh
   gradient norm :     0.0059363 Eh/α   predicted    -0.1425311E-03 ( -19.80%)
   displ. norm   :     0.4709622 α      lambda       -0.2287265E-03
   maximum displ.:     0.2127759 α      in ANC's #2, #10, #5, ...

........................................................................
.............................. CYCLE   15 ..............................
........................................................................

 iter      E             dE          RMSdq      gap      omega  full diag
   1   -103.9567945 -0.103957E+03  0.930E-02    1.55       0.0  T
   2   -103.9568044 -0.981522E-05  0.537E-02    1.55       1.0  T
   3   -103.9567863  0.180284E-04  0.213E-02    1.56       1.0  T
   4   -103.9568088 -0.225089E-04  0.439E-03    1.55       2.8  T
   5   -103.9568093 -0.478855E-06  0.185E-03    1.55       6.7  T
   6   -103.9568094 -0.729001E-07  0.771E-04    1.55      16.0  T
   7   -103.9568094 -0.168266E-07  0.278E-04    1.55      44.2  T
     SCC iter.                  ...        0 min,  0.035 sec
     gradient                   ...        0 min,  0.076 sec
 * total energy  :  -102.6692827 Eh     change       -0.8968307E-04 Eh
   gradient norm :     0.0100253 Eh/α   predicted    -0.1397376E-03 (  55.81%)
   displ. norm   :     0.1838390 α      lambda       -0.2499339E-03
   maximum displ.:     0.0848401 α      in ANC's #2, #5, #10, ...

........................................................................
.............................. CYCLE   16 ..............................
........................................................................

 iter      E             dE          RMSdq      gap      omega  full diag
   1   -103.9635500 -0.103964E+03  0.344E-02    1.57       0.0  T
   2   -103.9635528 -0.281913E-05  0.197E-02    1.57       1.0  T
   3   -103.9635506  0.225616E-05  0.867E-03    1.57       1.4  T
   4   -103.9635536 -0.306178E-05  0.227E-03    1.57       5.4  T
   5   -103.9635538 -0.181591E-06  0.912E-04    1.57      13.5  T
   6   -103.9635538 -0.188247E-07  0.396E-04    1.57      31.1  T
     SCC iter.                  ...        0 min,  0.045 sec
     gradient                   ...        0 min,  0.056 sec
 * total energy  :  -102.6694229 Eh     change       -0.1401865E-03 Eh
   gradient norm :     0.0068284 Eh/α   predicted    -0.1291914E-03 (  -7.84%)
   displ. norm   :     0.2581554 α      lambda       -0.1505391E-03
   maximum displ.:     0.1297398 α      in ANC's #2, #5, #10, ...

........................................................................
.............................. CYCLE   17 ..............................
........................................................................

 iter      E             dE          RMSdq      gap      omega  full diag
   1   -103.9624861 -0.103962E+03  0.493E-02    1.57       0.0  T
   2   -103.9624882 -0.211837E-05  0.286E-02    1.56       1.0  T
   3   -103.9624855  0.274491E-05  0.844E-03    1.56       1.5  T
   4   -103.9624889 -0.342525E-05  0.172E-03    1.56       7.1  T
   5   -103.9624890 -0.855502E-07  0.833E-04    1.56      14.8  T
   6   -103.9624890 -0.128652E-07  0.320E-04    1.56      38.4  T
     SCC iter.                  ...        0 min,  0.045 sec
     gradient                   ...        0 min,  0.076 sec
 * total energy  :  -102.6695093 Eh     change       -0.8646080E-04 Eh
   gradient norm :     0.0088753 Eh/α   predicted    -0.8029135E-04 (  -7.14%)
   displ. norm   :     0.2438891 α      lambda       -0.1774282E-03
   maximum displ.:     0.1267945 α      in ANC's #2, #5, #10, ...

........................................................................
.............................. CYCLE   18 ..............................
........................................................................

 iter      E             dE          RMSdq      gap      omega  full diag
   1   -103.9634313 -0.103963E+03  0.426E-02    1.57       0.0  T
   2   -103.9634336 -0.228117E-05  0.242E-02    1.56       1.0  T
   3   -103.9634326  0.982029E-06  0.660E-03    1.56       1.9  T
   4   -103.9634338 -0.120752E-05  0.216E-03    1.56       5.7  T
   5   -103.9634341 -0.238221E-06  0.925E-04    1.56      13.3  T
   6   -103.9634341 -0.225102E-07  0.316E-04    1.56      38.9  T
     SCC iter.                  ...        0 min,  0.034 sec
     gradient                   ...        0 min,  0.095 sec
 * total energy  :  -102.6696375 Eh     change       -0.1281406E-03 Eh
   gradient norm :     0.0054216 Eh/α   predicted    -0.9399151E-04 ( -26.65%)
   displ. norm   :     0.3472144 α      lambda       -0.1332541E-03
   maximum displ.:     0.1847993 α      in ANC's #2, #5, #7, ...

........................................................................
.............................. CYCLE   19 ..............................
........................................................................

 iter      E             dE          RMSdq      gap      omega  full diag
   1   -103.9620600 -0.103962E+03  0.554E-02    1.56       0.0  T
   2   -103.9620625 -0.250345E-05  0.323E-02    1.56       1.0  T
   3   -103.9620581  0.433641E-05  0.990E-03    1.56       1.2  T
   4   -103.9620634 -0.523195E-05  0.197E-03    1.56       6.2  T
   5   -103.9620635 -0.124904E-06  0.101E-03    1.56      12.2  T
   6   -103.9620635 -0.224412E-07  0.398E-04    1.56      30.9  T
   7   -103.9620635 -0.369384E-08  0.175E-04    1.56      70.2  T
     SCC iter.                  ...        0 min,  0.042 sec
     gradient                   ...        0 min,  0.056 sec
 * total energy  :  -102.6697324 Eh     change       -0.9497798E-04 Eh
   gradient norm :     0.0046786 Eh/α   predicted    -0.7466264E-04 ( -21.39%)
   displ. norm   :     0.2711093 α      lambda       -0.1163019E-03
   maximum displ.:     0.1482758 α      in ANC's #2, #7, #5, ...

........................................................................
.............................. CYCLE   20 ..............................
........................................................................

 iter      E             dE          RMSdq      gap      omega  full diag
   1   -103.9626531 -0.103963E+03  0.384E-02    1.56       0.0  T
   2   -103.9626546 -0.155310E-05  0.222E-02    1.56       1.0  T
   3   -103.9626525  0.217675E-05  0.741E-03    1.55       1.7  T
   4   -103.9626551 -0.265064E-05  0.177E-03    1.55       6.9  T
   5   -103.9626552 -0.115703E-06  0.797E-04    1.55      15.5  T
   6   -103.9626552 -0.122145E-07  0.303E-04    1.55      40.7  T
     SCC iter.                  ...        0 min,  0.032 sec
     gradient                   ...        0 min,  0.056 sec
 * total energy  :  -102.6698213 Eh     change       -0.8882528E-04 Eh
   gradient norm :     0.0051669 Eh/α   predicted    -0.6242816E-04 ( -29.72%)
   displ. norm   :     0.4213038 α      lambda       -0.1564356E-03
   maximum displ.:     0.2297686 α      in ANC's #2, #5, #7, ...
 * RMSD in coord.:     0.6781308 α      energy gain  -0.2483215E-01 Eh

generating ANC from exact Hessian ...
Using Lindh-Hessian (1995)
 Shifting diagonal of input Hessian by    9.9039027173483864E-003
 Lowest  eigenvalues of input Hessian
    0.000000    0.000000    0.000000    0.000000    0.000000    0.000000
    0.010000    0.010097    0.010198    0.010500    0.010799    0.010928
    0.011221    0.011460    0.011546    0.011928    0.012250    0.012651
 Highest eigenvalues
    2.093313    2.197926    2.349474    2.433048    2.759386    3.512604


........................................................................
.............................. CYCLE   21 ..............................
........................................................................

 iter      E             dE          RMSdq      gap      omega  full diag
   1   -103.9614506 -0.103961E+03  0.564E-02    1.55       0.0  T
   2   -103.9614533 -0.275976E-05  0.332E-02    1.55       1.0  T
   3   -103.9614462  0.708331E-05  0.122E-02    1.55       1.0  T
   4   -103.9614548 -0.852887E-05  0.175E-03    1.55       7.0  T
   5   -103.9614548 -0.647102E-07  0.100E-03    1.55      12.3  T
   6   -103.9614549 -0.209265E-07  0.408E-04    1.55      30.2  T
   7   -103.9614549 -0.398761E-08  0.156E-04    1.55      78.7  T
     SCC iter.                  ...        0 min,  0.036 sec
     gradient                   ...        0 min,  0.073 sec
 * total energy  :  -102.6699494 Eh     change       -0.1281064E-03 Eh
   gradient norm :     0.0057518 Eh/α   predicted     0.0000000E+00 (-100.00%)
   displ. norm   :     0.0564134 α      lambda       -0.5793635E-04
   maximum displ.:     0.0262442 α      in ANC's #11, #7, #3, ...

........................................................................
.............................. CYCLE   22 ..............................
........................................................................

 iter      E             dE          RMSdq      gap      omega  full diag
   1   -103.9627513 -0.103963E+03  0.129E-02    1.56       0.0  T
   2   -103.9627519 -0.548137E-06  0.742E-03    1.56       1.7  T
   3   -103.9627517  0.179927E-06  0.306E-03    1.56       4.0  T
   4   -103.9627520 -0.269609E-06  0.110E-03    1.56      11.1  T
   5   -103.9627520 -0.439537E-07  0.350E-04    1.56      35.2  T
   6   -103.9627520 -0.156884E-08  0.126E-04    1.56      97.8  T
     SCC iter.                  ...        0 min,  0.039 sec
     gradient                   ...        0 min,  0.056 sec
 * total energy  :  -102.6700200 Eh     change       -0.7066776E-04 Eh
   gradient norm :     0.0031582 Eh/α   predicted    -0.4293565E-04 ( -39.24%)
   displ. norm   :     0.1809690 α      lambda       -0.1654332E-03
   maximum displ.:     0.0845887 α      in ANC's #11, #7, #3, ...

........................................................................
.............................. CYCLE   23 ..............................
........................................................................

 iter      E             dE          RMSdq      gap      omega  full diag
   1   -103.9644053 -0.103964E+03  0.331E-02    1.56       0.0  T
   2   -103.9644087 -0.337919E-05  0.190E-02    1.57       1.0  T
   3   -103.9644075  0.112495E-05  0.774E-03    1.57       1.6  T
   4   -103.9644091 -0.161625E-05  0.278E-03    1.57       4.4  T
   5   -103.9644095 -0.317199E-06  0.802E-04    1.57      15.3  T
   6   -103.9644095 -0.679330E-08  0.319E-04    1.57      38.6  T
     SCC iter.                  ...        0 min,  0.047 sec
     gradient                   ...        0 min,  0.071 sec
 * total energy  :  -102.6701316 Eh     change       -0.1115409E-03 Eh
   gradient norm :     0.0031743 Eh/α   predicted    -0.8542696E-04 ( -23.41%)
   displ. norm   :     0.1821427 α      lambda       -0.9115705E-04
   maximum displ.:     0.0848255 α      in ANC's #11, #7, #2, ...

........................................................................
.............................. CYCLE   24 ..............................
........................................................................

 iter      E             dE          RMSdq      gap      omega  full diag
   1   -103.9645589 -0.103965E+03  0.291E-02    1.57       0.0  T
   2   -103.9645605 -0.159283E-05  0.169E-02    1.58       1.0  T
   3   -103.9645595  0.919032E-06  0.576E-03    1.58       2.1  T
   4   -103.9645607 -0.115617E-05  0.190E-03    1.58       6.5  T
   5   -103.9645609 -0.168279E-06  0.540E-04    1.58      22.8  T
   6   -103.9645609 -0.275151E-08  0.236E-04    1.58      52.3  T
     SCC iter.                  ...        0 min,  0.032 sec
     gradient                   ...        0 min,  0.066 sec
 * total energy  :  -102.6702061 Eh     change       -0.7452369E-04 Eh
   gradient norm :     0.0049713 Eh/α   predicted    -0.4733669E-04 ( -36.48%)
   displ. norm   :     0.3434230 α      lambda       -0.1581456E-03
   maximum displ.:     0.1573324 α      in ANC's #11, #7, #2, ...

........................................................................
.............................. CYCLE   25 ..............................
........................................................................

 iter      E             dE          RMSdq      gap      omega  full diag
   1   -103.9635636 -0.103964E+03  0.529E-02    1.58       0.0  T
   2   -103.9635667 -0.303084E-05  0.309E-02    1.59       1.0  T
   3   -103.9635640  0.263179E-05  0.830E-03    1.59       1.5  T
   4   -103.9635673 -0.323055E-05  0.249E-03    1.59       4.9  T
   5   -103.9635675 -0.282417E-06  0.850E-04    1.59      14.5  T
   6   -103.9635676 -0.839930E-08  0.349E-04    1.59      35.3  T
     SCC iter.                  ...        0 min,  0.031 sec
     gradient                   ...        0 min,  0.065 sec
 * total energy  :  -102.6703288 Eh     change       -0.1226479E-03 Eh
   gradient norm :     0.0060624 Eh/α   predicted    -0.8840008E-04 ( -27.92%)
   displ. norm   :     0.3732849 α      lambda       -0.1578767E-03
   maximum displ.:     0.1655983 α      in ANC's #7, #11, #2, ...

........................................................................
.............................. CYCLE   26 ..............................
........................................................................

 iter      E             dE          RMSdq      gap      omega  full diag
   1   -103.9621060 -0.103962E+03  0.564E-02    1.59       0.0  T
   2   -103.9621081 -0.207315E-05  0.330E-02    1.59       1.0  T
   3   -103.9621056  0.246387E-05  0.727E-03    1.59       1.7  T
   4   -103.9621087 -0.308516E-05  0.200E-03    1.59       6.1  T
   5   -103.9621088 -0.118707E-06  0.900E-04    1.59      13.7  T
   6   -103.9621088 -0.213514E-07  0.287E-04    1.59      42.9  T
     SCC iter.                  ...        0 min,  0.030 sec
     gradient                   ...        0 min,  0.074 sec
 * total energy  :  -102.6704483 Eh     change       -0.1195525E-03 Eh
   gradient norm :     0.0062478 Eh/α   predicted    -0.8994138E-04 ( -24.77%)
   displ. norm   :     0.3300910 α      lambda       -0.1714986E-03
   maximum displ.:     0.1541142 α      in ANC's #7, #2, #11, ...

........................................................................
.............................. CYCLE   27 ..............................
........................................................................

 iter      E             dE          RMSdq      gap      omega  full diag
   1   -103.9617333 -0.103962E+03  0.499E-02    1.59       0.0  T
   2   -103.9617350 -0.172807E-05  0.289E-02    1.59       1.0  T
   3   -103.9617333  0.174644E-05  0.654E-03    1.59       1.9  T
   4   -103.9617354 -0.215654E-05  0.209E-03    1.58       5.9  T
   5   -103.9617356 -0.158472E-06  0.890E-04    1.58      13.8  T
   6   -103.9617356 -0.212883E-07  0.295E-04    1.58      41.7  T
     SCC iter.                  ...        0 min,  0.047 sec
     gradient                   ...        0 min,  0.057 sec
 * total energy  :  -102.6705855 Eh     change       -0.1371853E-03 Eh
   gradient norm :     0.0057352 Eh/α   predicted    -0.9509296E-04 ( -30.68%)
   displ. norm   :     0.3640128 α      lambda       -0.2486094E-03
   maximum displ.:     0.1762984 α      in ANC's #7, #2, #6, ...

........................................................................
.............................. CYCLE   28 ..............................
........................................................................

 iter      E             dE          RMSdq      gap      omega  full diag
   1   -103.9627835 -0.103963E+03  0.568E-02    1.58       0.0  T
   2   -103.9627872 -0.369875E-05  0.321E-02    1.57       1.0  T
   3   -103.9627855  0.169202E-05  0.883E-03    1.57       1.4  T
   4   -103.9627874 -0.192745E-05  0.344E-03    1.57       3.6  T
   5   -103.9627880 -0.606319E-06  0.124E-03    1.57       9.9  T
   6   -103.9627880 -0.279247E-07  0.408E-04    1.57      30.2  T
   7   -103.9627880 -0.474196E-08  0.172E-04    1.57      71.7  T
     SCC iter.                  ...        0 min,  0.036 sec
     gradient                   ...        0 min,  0.072 sec
 * total energy  :  -102.6707767 Eh     change       -0.1912308E-03 Eh
   gradient norm :     0.0064773 Eh/α   predicted    -0.1407773E-03 ( -26.38%)
   displ. norm   :     0.4813468 α      lambda       -0.2642453E-03
   maximum displ.:     0.2333487 α      in ANC's #7, #2, #6, ...

........................................................................
.............................. CYCLE   29 ..............................
........................................................................

 iter      E             dE          RMSdq      gap      omega  full diag
   1   -103.9620255 -0.103962E+03  0.728E-02    1.57       0.0  T
   2   -103.9620291 -0.357876E-05  0.415E-02    1.56       1.0  T
   3   -103.9620270  0.205289E-05  0.925E-03    1.56       1.3  T
   4   -103.9620293 -0.225345E-05  0.382E-03    1.56       3.2  T
   5   -103.9620301 -0.790476E-06  0.133E-03    1.56       9.2  T
   6   -103.9620301 -0.305088E-07  0.474E-04    1.56      26.0  T
   7   -103.9620301 -0.701016E-08  0.195E-04    1.56      63.0  T
     SCC iter.                  ...        0 min,  0.036 sec
     gradient                   ...        0 min,  0.079 sec
 * total energy  :  -102.6709984 Eh     change       -0.2216625E-03 Eh
   gradient norm :     0.0088503 Eh/α   predicted    -0.1627453E-03 ( -26.58%)
   displ. norm   :     0.5205486 α      lambda       -0.4496646E-03
   maximum displ.:     0.2467269 α      in ANC's #7, #2, #6, ...

........................................................................
.............................. CYCLE   30 ..............................
........................................................................

 iter      E             dE          RMSdq      gap      omega  full diag
   1   -103.9646333 -0.103965E+03  0.786E-02    1.55       0.0  T
   2   -103.9646403 -0.708920E-05  0.437E-02    1.55       1.0  T
   3   -103.9646388  0.152607E-05  0.121E-02    1.55       1.0  T
   4   -103.9646405 -0.171800E-05  0.503E-03    1.55       2.4  T
   5   -103.9646418 -0.121919E-05  0.177E-03    1.55       7.0  T
   6   -103.9646418 -0.481324E-07  0.604E-04    1.55      20.4  T
   7   -103.9646418 -0.118299E-07  0.259E-04    1.55      47.5  T
     SCC iter.                  ...        0 min,  0.057 sec
     gradient                   ...        0 min,  0.057 sec
 * total energy  :  -102.6713150 Eh     change       -0.3166539E-03 Eh
   gradient norm :     0.0098583 Eh/α   predicted    -0.2858227E-03 (  -9.74%)
   displ. norm   :     0.7104738 α      lambda       -0.4765390E-03
   maximum displ.:     0.3417116 α      in ANC's #7, #2, #6, ...

........................................................................
.............................. CYCLE   31 ..............................
........................................................................

 iter      E             dE          RMSdq      gap      omega  full diag
   1   -103.9589302 -0.103959E+03  0.102E-01    1.55       0.0  T
   2   -103.9589350 -0.477674E-05  0.595E-02    1.55       1.0  T
   3   -103.9589314  0.355008E-05  0.105E-02    1.55       1.2  T
   4   -103.9589359 -0.449769E-05  0.449E-03    1.55       2.7  T
   5   -103.9589367 -0.744148E-06  0.149E-03    1.55       8.3  T
   6   -103.9589367 -0.389970E-07  0.606E-04    1.55      20.3  T
   7   -103.9589367 -0.860595E-08  0.273E-04    1.55      45.2  T
     SCC iter.                  ...        0 min,  0.037 sec
     gradient                   ...        0 min,  0.079 sec
 * total energy  :  -102.6716234 Eh     change       -0.3083771E-03 Eh
   gradient norm :     0.0122235 Eh/α   predicted    -0.3585432E-03 (  16.27%)
   displ. norm   :     0.2887502 α      lambda       -0.5278787E-03
   maximum displ.:     0.1243965 α      in ANC's #6, #2, #7, ...

........................................................................
.............................. CYCLE   32 ..............................
........................................................................

 iter      E             dE          RMSdq      gap      omega  full diag
   1   -103.9622153 -0.103962E+03  0.463E-02    1.55       0.0  T
   2   -103.9622223 -0.699212E-05  0.270E-02    1.56       1.0  T
   3   -103.9622204  0.192511E-05  0.105E-02    1.56       1.2  T
   4   -103.9622232 -0.278197E-05  0.386E-03    1.56       3.2  T
   5   -103.9622237 -0.560685E-06  0.124E-03    1.56       9.9  T
   6   -103.9622237 -0.129795E-07  0.454E-04    1.56      27.1  T
   7   -103.9622237 -0.424549E-08  0.203E-04    1.56      60.6  T
     SCC iter.                  ...        0 min,  0.057 sec
     gradient                   ...        0 min,  0.057 sec
 * total energy  :  -102.6719736 Eh     change       -0.3502344E-03 Eh
   gradient norm :     0.0086471 Eh/α   predicted    -0.2859555E-03 ( -18.35%)
   displ. norm   :     0.4754554 α      lambda       -0.3644887E-03
   maximum displ.:     0.2278253 α      in ANC's #7, #2, #6, ...

........................................................................
.............................. CYCLE   33 ..............................
........................................................................

 iter      E             dE          RMSdq      gap      omega  full diag
   1   -103.9612094 -0.103961E+03  0.574E-02    1.57       0.0  T
   2   -103.9612120 -0.262408E-05  0.342E-02    1.57       1.0  T
   3   -103.9612104  0.160671E-05  0.724E-03    1.57       1.7  T
   4   -103.9612126 -0.220089E-05  0.202E-03    1.57       6.1  T
   5   -103.9612127 -0.951476E-07  0.991E-04    1.57      12.4  T
   6   -103.9612127 -0.238975E-08  0.409E-04    1.57      30.1  T
     SCC iter.                  ...        0 min,  0.041 sec
     gradient                   ...        0 min,  0.056 sec
 * total energy  :  -102.6722580 Eh     change       -0.2843272E-03 Eh
   gradient norm :     0.0088571 Eh/α   predicted    -0.2234431E-03 ( -21.41%)
   displ. norm   :     0.3892714 α      lambda       -0.4630462E-03
   maximum displ.:     0.1954045 α      in ANC's #2, #6, #7, ...

........................................................................
.............................. CYCLE   34 ..............................
........................................................................

 iter      E             dE          RMSdq      gap      omega  full diag
   1   -103.9655487 -0.103966E+03  0.522E-02    1.58       0.0  T
   2   -103.9655565 -0.787355E-05  0.303E-02    1.58       1.0  T
   3   -103.9655537  0.284775E-05  0.119E-02    1.58       1.0  T
   4   -103.9655577 -0.399239E-05  0.362E-03    1.59       3.4  T
   5   -103.9655582 -0.496627E-06  0.116E-03    1.58      10.6  T
   6   -103.9655582 -0.144067E-07  0.551E-04    1.58      22.3  T
   7   -103.9655582 -0.821113E-08  0.192E-04    1.58      64.2  T
     SCC iter.                  ...        0 min,  0.039 sec
     gradient                   ...        0 min,  0.057 sec
 * total energy  :  -102.6725390 Eh     change       -0.2810413E-03 Eh
   gradient norm :     0.0064035 Eh/α   predicted    -0.2666083E-03 (  -5.14%)
   displ. norm   :     0.6706569 α      lambda       -0.4387957E-03
   maximum displ.:     0.3255603 α      in ANC's #2, #7, #6, ...

........................................................................
.............................. CYCLE   35 ..............................
........................................................................

 iter      E             dE          RMSdq      gap      omega  full diag
   1   -103.9601783 -0.103960E+03  0.836E-02    1.58       0.0  T
   2   -103.9601827 -0.441922E-05  0.494E-02    1.59       1.0  T
   3   -103.9601798  0.295091E-05  0.907E-03    1.59       1.4  T
   4   -103.9601839 -0.412031E-05  0.280E-03    1.59       4.4  T
   5   -103.9601840 -0.133255E-06  0.135E-03    1.59       9.1  T
   6   -103.9601840 -0.244895E-07  0.503E-04    1.59      24.5  T
   7   -103.9601840 -0.626213E-08  0.221E-04    1.59      55.7  T
     SCC iter.                  ...        0 min,  0.035 sec
     gradient                   ...        0 min,  0.072 sec
 * total energy  :  -102.6727498 Eh     change       -0.2108032E-03 Eh
   gradient norm :     0.0112093 Eh/α   predicted    -0.3180839E-03 (  50.89%)
   displ. norm   :     0.1198394 α      lambda       -0.3150580E-03
   maximum displ.:     0.0636757 α      in ANC's #2, #10, #12, ...

........................................................................
.............................. CYCLE   36 ..............................
........................................................................

 iter      E             dE          RMSdq      gap      omega  full diag
   1   -103.9643595 -0.103964E+03  0.257E-02    1.59       0.0  T
   2   -103.9643610 -0.155324E-05  0.143E-02    1.58       1.0  T
   3   -103.9643609  0.173439E-06  0.416E-03    1.58       3.0  T
   4   -103.9643612 -0.343936E-06  0.173E-03    1.58       7.1  T
   5   -103.9643613 -0.670334E-07  0.753E-04    1.58      16.4  T
   6   -103.9643613 -0.143767E-07  0.227E-04    1.58      54.3  T
     SCC iter.                  ...        0 min,  0.034 sec
     gradient                   ...        0 min,  0.072 sec
 * total energy  :  -102.6729926 Eh     change       -0.2427531E-03 Eh
   gradient norm :     0.0079774 Eh/α   predicted    -0.1597922E-03 ( -34.17%)
   displ. norm   :     0.4143098 α      lambda       -0.4306774E-03
   maximum displ.:     0.2445233 α      in ANC's #2, #6, #10, ...

........................................................................
.............................. CYCLE   37 ..............................
........................................................................

 iter      E             dE          RMSdq      gap      omega  full diag
   1   -103.9667975 -0.103967E+03  0.564E-02    1.58       0.0  T
   2   -103.9668004 -0.286443E-05  0.323E-02    1.58       1.0  T
   3   -103.9668001  0.315255E-06  0.616E-03    1.57       2.0  T
   4   -103.9668009 -0.775239E-06  0.266E-03    1.57       4.6  T
   5   -103.9668010 -0.133338E-06  0.110E-03    1.57      11.2  T
   6   -103.9668010 -0.438713E-07  0.306E-04    1.57      40.2  T
   7   -103.9668010 -0.144652E-08  0.159E-04    1.57      77.3  T
     SCC iter.                  ...        0 min,  0.057 sec
     gradient                   ...        0 min,  0.055 sec
 * total energy  :  -102.6733069 Eh     change       -0.3143111E-03 Eh
   gradient norm :     0.0069482 Eh/α   predicted    -0.2523038E-03 ( -19.73%)
   displ. norm   :     0.5287469 α      lambda       -0.3542932E-03
   maximum displ.:     0.3121870 α      in ANC's #2, #6, #10, ...

........................................................................
.............................. CYCLE   38 ..............................
........................................................................

 iter      E             dE          RMSdq      gap      omega  full diag
   1   -103.9662999 -0.103966E+03  0.648E-02    1.57       0.0  T
   2   -103.9663028 -0.291843E-05  0.374E-02    1.57       1.0  T
   3   -103.9663027  0.114057E-06  0.563E-03    1.57       2.2  T
   4   -103.9663033 -0.592832E-06  0.236E-03    1.57       5.2  T
   5   -103.9663034 -0.606938E-07  0.933E-04    1.57      13.2  T
   6   -103.9663034 -0.466109E-07  0.304E-04    1.57      40.5  T
     SCC iter.                  ...        0 min,  0.030 sec
     gradient                   ...        0 min,  0.056 sec
 * total energy  :  -102.6735461 Eh     change       -0.2391754E-03 Eh
   gradient norm :     0.0081507 Eh/α   predicted    -0.2266757E-03 (  -5.23%)
   displ. norm   :     0.4242942 α      lambda       -0.3401337E-03
   maximum displ.:     0.2533247 α      in ANC's #2, #10, #6, ...

........................................................................
.............................. CYCLE   39 ..............................
........................................................................

 iter      E             dE          RMSdq      gap      omega  full diag
   1   -103.9674011 -0.103967E+03  0.604E-02    1.57       0.0  T
   2   -103.9674042 -0.311602E-05  0.351E-02    1.57       1.0  T
   3   -103.9674028  0.139781E-05  0.672E-03    1.57       1.8  T
   4   -103.9674046 -0.179191E-05  0.251E-03    1.57       4.9  T
   5   -103.9674048 -0.208201E-06  0.952E-04    1.57      12.9  T
   6   -103.9674048 -0.232821E-07  0.315E-04    1.57      39.0  T
     SCC iter.                  ...        0 min,  0.030 sec
     gradient                   ...        0 min,  0.055 sec
 * total energy  :  -102.6737599 Eh     change       -0.2138656E-03 Eh
   gradient norm :     0.0062010 Eh/α   predicted    -0.2006869E-03 (  -6.16%)
   displ. norm   :     0.4140497 α      lambda       -0.1914961E-03
   maximum displ.:     0.2535079 α      in ANC's #2, #6, #10, ...

........................................................................
.............................. CYCLE   40 ..............................
........................................................................

 iter      E             dE          RMSdq      gap      omega  full diag
   1   -103.9653696 -0.103965E+03  0.516E-02    1.57       0.0  T
   2   -103.9653704 -0.838910E-06  0.304E-02    1.57       1.0  T
   3   -103.9653701  0.339198E-06  0.353E-03    1.57       3.5  T
   4   -103.9653706 -0.540521E-06  0.130E-03    1.57       9.5  T
   5   -103.9653706 -0.424138E-07  0.572E-04    1.57      21.5  T
   6   -103.9653706 -0.531398E-08  0.208E-04    1.57      59.2  T
     SCC iter.                  ...        0 min,  0.030 sec
     gradient                   ...        0 min,  0.062 sec
 * total energy  :  -102.6738994 Eh     change       -0.1394478E-03 Eh
   gradient norm :     0.0068331 Eh/α   predicted    -0.1121651E-03 ( -19.56%)
   displ. norm   :     0.4180089 α      lambda       -0.3596114E-03
   maximum displ.:     0.2313215 α      in ANC's #2, #10, #13, ...

........................................................................
.............................. CYCLE   41 ..............................
........................................................................

 iter      E             dE          RMSdq      gap      omega  full diag
   1   -103.9696251 -0.103970E+03  0.796E-02    1.58       0.0  T
   2   -103.9696286 -0.345166E-05  0.459E-02    1.58       1.0  T
   3   -103.9696265  0.207930E-05  0.786E-03    1.59       1.6  T
   4   -103.9696289 -0.240234E-05  0.326E-03    1.59       3.8  T
   5   -103.9696295 -0.532172E-06  0.118E-03    1.59      10.4  T
   6   -103.9696295 -0.218315E-07  0.374E-04    1.59      32.9  T
   7   -103.9696295 -0.345956E-08  0.185E-04    1.59      66.7  T
     SCC iter.                  ...        0 min,  0.035 sec
     gradient                   ...        0 min,  0.083 sec
 * total energy  :  -102.6740011 Eh     change       -0.1017617E-03 Eh
   gradient norm :     0.0112622 Eh/α   predicted    -0.2112247E-03 ( 107.57%)
   displ. norm   :     0.3544468 α      lambda       -0.3527582E-03
   maximum displ.:     0.2159848 α      in ANC's #2, #10, #6, ...

........................................................................
.............................. CYCLE   42 ..............................
........................................................................

 iter      E             dE          RMSdq      gap      omega  full diag
   1   -103.9671267 -0.103967E+03  0.495E-02    1.59       0.0  T
   2   -103.9671295 -0.276666E-05  0.288E-02    1.59       1.0  T
   3   -103.9671284  0.103537E-05  0.610E-03    1.59       2.0  T
   4   -103.9671297 -0.132505E-05  0.216E-03    1.59       5.7  T
   5   -103.9671299 -0.196114E-06  0.831E-04    1.59      14.8  T
   6   -103.9671299 -0.597419E-08  0.343E-04    1.59      35.9  T
     SCC iter.                  ...        0 min,  0.057 sec
     gradient                   ...        0 min,  0.056 sec
 * total energy  :  -102.6741626 Eh     change       -0.1614772E-03 Eh
   gradient norm :     0.0071478 Eh/α   predicted    -0.1985429E-03 (  22.95%)
   displ. norm   :     0.0806393 α      lambda       -0.1226416E-03
   maximum displ.:     0.0357938 α      in ANC's #2, #10, #7, ...
 * RMSD in coord.:     0.8667091 α      energy gain  -0.4341347E-02 Eh

generating ANC from exact Hessian ...
Using Lindh-Hessian (1995)
 Shifting diagonal of input Hessian by    9.9186011186982760E-003
 Lowest  eigenvalues of input Hessian
    0.000000    0.000000    0.000000    0.000000    0.000000    0.000000
    0.010000    0.010108    0.010146    0.010511    0.010831    0.010884
    0.011146    0.011373    0.011555    0.011967    0.012552    0.012985
 Highest eigenvalues
    2.095526    2.199652    2.349808    2.434528    2.766389    3.526924


........................................................................
.............................. CYCLE   43 ..............................
........................................................................

 iter      E             dE          RMSdq      gap      omega  full diag
   1   -103.9667410 -0.103967E+03  0.202E-02    1.59       0.0  T
   2   -103.9667417 -0.719340E-06  0.118E-02    1.58       1.0  T
   3   -103.9667415  0.238244E-06  0.330E-03    1.58       3.7  T
   4   -103.9667418 -0.353456E-06  0.102E-03    1.58      12.1  T
   5   -103.9667419 -0.277958E-07  0.460E-04    1.58      26.8  T
   6   -103.9667419 -0.402818E-08  0.184E-04    1.58      66.7  T
     SCC iter.                  ...        0 min,  0.030 sec
     gradient                   ...        0 min,  0.076 sec
 * total energy  :  -102.6742355 Eh     change       -0.7292207E-04 Eh
   gradient norm :     0.0045517 Eh/α   predicted     0.0000000E+00 (-100.00%)
   displ. norm   :     0.0409484 α      lambda       -0.5851089E-04
   maximum displ.:     0.0173515 α      in ANC's #7, #3, #2, ...

........................................................................
.............................. CYCLE   44 ..............................
........................................................................

 iter      E             dE          RMSdq      gap      omega  full diag
   1   -103.9681260 -0.103968E+03  0.105E-02    1.58       0.0  T
   2   -103.9681262 -0.206167E-06  0.602E-03    1.58       2.0  T
   3   -103.9681262  0.327319E-07  0.135E-03    1.58       9.1  T
   4   -103.9681262 -0.486723E-07  0.518E-04    1.58      23.8  T
   5   -103.9681262 -0.978130E-08  0.219E-04    1.58      56.2  T
     SCC iter.                  ...        0 min,  0.025 sec
     gradient                   ...        0 min,  0.101 sec
 * total energy  :  -102.6742787 Eh     change       -0.4321191E-04 Eh
   gradient norm :     0.0018396 Eh/α   predicted    -0.2933682E-04 ( -32.11%)
   displ. norm   :     0.1311067 α      lambda       -0.5453015E-04
   maximum displ.:     0.0597777 α      in ANC's #7, #3, #2, ...

........................................................................
.............................. CYCLE   45 ..............................
........................................................................

 iter      E             dE          RMSdq      gap      omega  full diag
   1   -103.9698267 -0.103970E+03  0.225E-02    1.57       0.0  T
   2   -103.9698274 -0.659652E-06  0.129E-02    1.57       1.0  T
   3   -103.9698273  0.147226E-06  0.276E-03    1.57       4.5  T
   4   -103.9698275 -0.225139E-06  0.110E-03    1.57      11.1  T
   5   -103.9698275 -0.322526E-07  0.457E-04    1.57      26.9  T
   6   -103.9698275 -0.742743E-08  0.137E-04    1.57      89.9  T
     SCC iter.                  ...        0 min,  0.063 sec
     gradient                   ...        0 min,  0.055 sec
 * total energy  :  -102.6743266 Eh     change       -0.4786961E-04 Eh
   gradient norm :     0.0032541 Eh/α   predicted    -0.2747384E-04 ( -42.61%)
   displ. norm   :     0.0888705 α      lambda       -0.3609392E-04
   maximum displ.:     0.0407475 α      in ANC's #7, #3, #2, ...

........................................................................
.............................. CYCLE   46 ..............................
........................................................................

 iter      E             dE          RMSdq      gap      omega  full diag
   1   -103.9696464 -0.103970E+03  0.120E-02    1.57       0.0  T
   2   -103.9696465 -0.867977E-07  0.691E-03    1.57       1.8  T
   3   -103.9696464  0.682167E-07  0.137E-03    1.57       9.0  T
   4   -103.9696465 -0.912692E-07  0.543E-04    1.57      22.7  T
   5   -103.9696465 -0.683886E-08  0.184E-04    1.57      66.8  T
     SCC iter.                  ...        0 min,  0.025 sec
     gradient                   ...        0 min,  0.084 sec
 * total energy  :  -102.6743604 Eh     change       -0.3379713E-04 Eh
   gradient norm :     0.0032632 Eh/α   predicted    -0.1836188E-04 ( -45.67%)
   displ. norm   :     0.3686493 α      lambda       -0.1452018E-03
   maximum displ.:     0.1620490 α      in ANC's #7, #3, #2, ...

........................................................................
.............................. CYCLE   47 ..............................
........................................................................

 iter      E             dE          RMSdq      gap      omega  full diag
   1   -103.9676511 -0.103968E+03  0.478E-02    1.57       0.0  T
   2   -103.9676525 -0.146622E-05  0.277E-02    1.57       1.0  T
   3   -103.9676513  0.122464E-05  0.563E-03    1.57       2.2  T
   4   -103.9676530 -0.164347E-05  0.204E-03    1.57       6.0  T
   5   -103.9676530 -0.804912E-07  0.757E-04    1.57      16.3  T
   6   -103.9676531 -0.221782E-07  0.261E-04    1.57      47.2  T
     SCC iter.                  ...        0 min,  0.030 sec
     gradient                   ...        0 min,  0.089 sec
 * total energy  :  -102.6744598 Eh     change       -0.9937647E-04 Eh
   gradient norm :     0.0036053 Eh/α   predicted    -0.8247888E-04 ( -17.00%)
   displ. norm   :     0.2145670 α      lambda       -0.5404093E-04
   maximum displ.:     0.0932727 α      in ANC's #7, #3, #2, ...

........................................................................
.............................. CYCLE   48 ..............................
........................................................................

 iter      E             dE          RMSdq      gap      omega  full diag
   1   -103.9669384 -0.103967E+03  0.265E-02    1.57       0.0  T
   2   -103.9669388 -0.419043E-06  0.155E-02    1.57       1.0  T
   3   -103.9669383  0.472258E-06  0.325E-03    1.57       3.8  T
   4   -103.9669389 -0.615115E-06  0.101E-03    1.57      12.2  T
   5   -103.9669390 -0.156851E-07  0.422E-04    1.57      29.2  T
   6   -103.9669390 -0.719110E-08  0.129E-04    1.57      95.5  T
     SCC iter.                  ...        0 min,  0.064 sec
     gradient                   ...        0 min,  0.089 sec
 * total energy  :  -102.6744998 Eh     change       -0.4004837E-04 Eh
   gradient norm :     0.0039899 Eh/α   predicted    -0.2826683E-04 ( -29.42%)
   displ. norm   :     0.2089763 α      lambda       -0.7483207E-04
   maximum displ.:     0.0933593 α      in ANC's #3, #7, #2, ...

........................................................................
.............................. CYCLE   49 ..............................
........................................................................

 iter      E             dE          RMSdq      gap      omega  full diag
   1   -103.9676913 -0.103968E+03  0.257E-02    1.57       0.0  T
   2   -103.9676918 -0.508034E-06  0.151E-02    1.57       1.0  T
   3   -103.9676913  0.467923E-06  0.319E-03    1.57       3.9  T
   4   -103.9676919 -0.603086E-06  0.878E-04    1.57      14.0  T
   5   -103.9676919 -0.199889E-07  0.393E-04    1.57      31.3  T
     SCC iter.                  ...        0 min,  0.025 sec
     gradient                   ...        0 min,  0.089 sec
 * total energy  :  -102.6745564 Eh     change       -0.5660839E-04 Eh
   gradient norm :     0.0030399 Eh/α   predicted    -0.3906123E-04 ( -31.00%)
   displ. norm   :     0.2635938 α      lambda       -0.7053986E-04
   maximum displ.:     0.1210998 α      in ANC's #3, #2, #7, ...

........................................................................
.............................. CYCLE   50 ..............................
........................................................................

 iter      E             dE          RMSdq      gap      omega  full diag
   1   -103.9680756 -0.103968E+03  0.317E-02    1.58       0.0  T
   2   -103.9680762 -0.578446E-06  0.186E-02    1.58       1.0  T
   3   -103.9680757  0.518721E-06  0.348E-03    1.58       3.5  T
   4   -103.9680764 -0.704424E-06  0.972E-04    1.58      12.7  T
   5   -103.9680764 -0.128231E-07  0.426E-04    1.58      28.9  T
     SCC iter.                  ...        0 min,  0.025 sec
     gradient                   ...        0 min,  0.089 sec
 * total energy  :  -102.6746108 Eh     change       -0.5436999E-04 Eh
   gradient norm :     0.0031666 Eh/α   predicted    -0.3772161E-04 ( -30.62%)
   displ. norm   :     0.2898543 α      lambda       -0.6798898E-04
   maximum displ.:     0.1380275 α      in ANC's #3, #2, #7, ...

........................................................................
.............................. CYCLE   51 ..............................
........................................................................

 iter      E             dE          RMSdq      gap      omega  full diag
   1   -103.9683521 -0.103968E+03  0.345E-02    1.58       0.0  T
   2   -103.9683526 -0.578247E-06  0.202E-02    1.58       1.0  T
   3   -103.9683523  0.289051E-06  0.305E-03    1.58       4.0  T
   4   -103.9683528 -0.465031E-06  0.106E-03    1.58      11.6  T
   5   -103.9683528 -0.160272E-07  0.378E-04    1.58      32.6  T
   6   -103.9683528 -0.288634E-08  0.139E-04    1.58      88.6  T
     SCC iter.                  ...        0 min,  0.030 sec
     gradient                   ...        0 min,  0.077 sec
 * total energy  :  -102.6746647 Eh     change       -0.5389985E-04 Eh
   gradient norm :     0.0032020 Eh/α   predicted    -0.3685200E-04 ( -31.63%)
   displ. norm   :     0.3477385 α      lambda       -0.7575978E-04
   maximum displ.:     0.1698177 α      in ANC's #3, #2, #7, ...

........................................................................
.............................. CYCLE   52 ..............................
........................................................................

 iter      E             dE          RMSdq      gap      omega  full diag
   1   -103.9681304 -0.103968E+03  0.415E-02    1.58       0.0  T
   2   -103.9681312 -0.801736E-06  0.242E-02    1.58       1.0  T
   3   -103.9681310  0.141800E-06  0.318E-03    1.58       3.9  T
   4   -103.9681314 -0.342665E-06  0.138E-03    1.58       8.9  T
   5   -103.9681314 -0.413163E-07  0.476E-04    1.58      25.8  T
   6   -103.9681314 -0.530083E-08  0.159E-04    1.58      77.6  T
     SCC iter.                  ...        0 min,  0.051 sec
     gradient                   ...        0 min,  0.055 sec
 * total energy  :  -102.6747254 Eh     change       -0.6066019E-04 Eh
   gradient norm :     0.0031118 Eh/α   predicted    -0.4246862E-04 ( -29.99%)
   displ. norm   :     0.3572677 α      lambda       -0.9028226E-04
   maximum displ.:     0.1822489 α      in ANC's #3, #2, #6, ...

........................................................................
.............................. CYCLE   53 ..............................
........................................................................

 iter      E             dE          RMSdq      gap      omega  full diag
   1   -103.9690933 -0.103969E+03  0.438E-02    1.58       0.0  T
   2   -103.9690947 -0.147949E-05  0.254E-02    1.58       1.0  T
   3   -103.9690942  0.562709E-06  0.480E-03    1.58       2.6  T
   4   -103.9690950 -0.854733E-06  0.184E-03    1.58       6.7  T
   5   -103.9690951 -0.917027E-07  0.787E-04    1.58      15.6  T
   6   -103.9690951 -0.186575E-07  0.243E-04    1.58      50.8  T
     SCC iter.                  ...        0 min,  0.045 sec
     gradient                   ...        0 min,  0.083 sec
 * total energy  :  -102.6747904 Eh     change       -0.6502086E-04 Eh
   gradient norm :     0.0031426 Eh/α   predicted    -0.5090354E-04 ( -21.71%)
   displ. norm   :     0.5175743 α      lambda       -0.9528510E-04
   maximum displ.:     0.2578802 α      in ANC's #3, #2, #4, ...

........................................................................
.............................. CYCLE   54 ..............................
........................................................................

 iter      E             dE          RMSdq      gap      omega  full diag
   1   -103.9642661 -0.103964E+03  0.643E-02    1.57       0.0  T
   2   -103.9642692 -0.315497E-05  0.372E-02    1.57       1.0  T
   3   -103.9642684  0.767925E-06  0.655E-03    1.57       1.9  T
   4   -103.9642697 -0.123915E-05  0.284E-03    1.57       4.3  T
   5   -103.9642699 -0.237631E-06  0.114E-03    1.57      10.8  T
   6   -103.9642700 -0.430414E-07  0.364E-04    1.57      33.8  T
   7   -103.9642700 -0.526103E-08  0.154E-04    1.57      80.2  T
     SCC iter.                  ...        0 min,  0.035 sec
     gradient                   ...        0 min,  0.070 sec
 * total energy  :  -102.6748036 Eh     change       -0.1318785E-04 Eh
   gradient norm :     0.0065130 Eh/α   predicted    -0.6040656E-04 ( 358.05%)
   displ. norm   :     0.1027761 α      lambda       -0.1338927E-03
   maximum displ.:     0.0547092 α      in ANC's #7, #11, #18, ...

........................................................................
.............................. CYCLE   55 ..............................
........................................................................

 iter      E             dE          RMSdq      gap      omega  full diag
   1   -103.9685932 -0.103969E+03  0.202E-02    1.57       0.0  T
   2   -103.9685949 -0.168457E-05  0.112E-02    1.57       1.1  T
   3   -103.9685948  0.103922E-06  0.390E-03    1.57       3.2  T
   4   -103.9685950 -0.257633E-06  0.123E-03    1.57      10.0  T
   5   -103.9685951 -0.540718E-07  0.525E-04    1.57      23.4  T
   6   -103.9685951 -0.278634E-08  0.237E-04    1.57      51.9  T
     SCC iter.                  ...        0 min,  0.030 sec
     gradient                   ...        0 min,  0.076 sec
 * total energy  :  -102.6748742 Eh     change       -0.7062131E-04 Eh
   gradient norm :     0.0024565 Eh/α   predicted    -0.6765601E-04 (  -4.20%)
   displ. norm   :     0.1729686 α      lambda       -0.3618309E-04
   maximum displ.:     0.0930300 α      in ANC's #3, #2, #11, ...

........................................................................
.............................. CYCLE   56 ..............................
........................................................................

 iter      E             dE          RMSdq      gap      omega  full diag
   1   -103.9688275 -0.103969E+03  0.223E-02    1.57       0.0  T
   2   -103.9688281 -0.605263E-06  0.126E-02    1.57       1.0  T
   3   -103.9688276  0.486923E-06  0.399E-03    1.57       3.1  T
   4   -103.9688283 -0.637255E-06  0.133E-03    1.57       9.3  T
   5   -103.9688283 -0.415237E-07  0.548E-04    1.57      22.5  T
   6   -103.9688283 -0.116894E-07  0.154E-04    1.57      79.9  T
     SCC iter.                  ...        0 min,  0.045 sec
     gradient                   ...        0 min,  0.055 sec
 * total energy  :  -102.6749027 Eh     change       -0.2853204E-04 Eh
   gradient norm :     0.0024673 Eh/α   predicted    -0.1863442E-04 ( -34.69%)
   displ. norm   :     0.3025258 α      lambda       -0.6181051E-04
   maximum displ.:     0.1678194 α      in ANC's #3, #2, #4, ...

........................................................................
.............................. CYCLE   57 ..............................
........................................................................

 iter      E             dE          RMSdq      gap      omega  full diag
   1   -103.9678942 -0.103968E+03  0.390E-02    1.56       0.0  T
   2   -103.9678957 -0.148686E-05  0.220E-02    1.56       1.0  T
   3   -103.9678943  0.139866E-05  0.676E-03    1.56       1.8  T
   4   -103.9678961 -0.180940E-05  0.239E-03    1.56       5.2  T
   5   -103.9678962 -0.113099E-06  0.908E-04    1.56      13.6  T
   6   -103.9678962 -0.382659E-07  0.238E-04    1.56      51.6  T
     SCC iter.                  ...        0 min,  0.039 sec
     gradient                   ...        0 min,  0.055 sec
 * total energy  :  -102.6749467 Eh     change       -0.4395898E-04 Eh
   gradient norm :     0.0024084 Eh/α   predicted    -0.3373594E-04 ( -23.26%)
   displ. norm   :     0.1711354 α      lambda       -0.4099434E-04
   maximum displ.:     0.0959692 α      in ANC's #3, #2, #20, ...

........................................................................
.............................. CYCLE   58 ..............................
........................................................................

 iter      E             dE          RMSdq      gap      omega  full diag
   1   -103.9681619 -0.103968E+03  0.232E-02    1.56       0.0  T
   2   -103.9681624 -0.497184E-06  0.130E-02    1.56       1.0  T
   3   -103.9681621  0.285023E-06  0.350E-03    1.56       3.5  T
   4   -103.9681625 -0.374687E-06  0.149E-03    1.56       8.3  T
   5   -103.9681625 -0.573162E-07  0.483E-04    1.56      25.5  T
   6   -103.9681625 -0.951489E-08  0.152E-04    1.56      80.8  T
     SCC iter.                  ...        0 min,  0.030 sec
[...]
          coordinate file            : /rds/general/user/hgt20/home/callum/QDESCP/Vardenafil_rdkit_conf_23/Vardenafil_rdkit_conf_23.xyz
          omp threads                :                     1


           -------------------------------------------------
          |                 G F N 2 - x T B                 |
           -------------------------------------------------

        Reference                      10.1021/acs.jctc.8b01176
      * Hamiltonian:
        H0-scaling (s, p, d)           1.850000    2.230000    2.230000
        zeta-weighting                 0.500000
      * Dispersion:
        s8                             2.700000
        a1                             0.520000
        a2                             5.000000
        s9                             5.000000
      * Repulsion:
        kExp                           1.500000    1.000000
        rExp                           1.000000
      * Coulomb:
        alpha                          2.000000
        third order                    shell-resolved
        anisotropic                    true
        a3                             3.000000
        a5                             4.000000
        cn-shift                       1.200000
        cn-exp                         4.000000
        max-rad                        5.000000


          ...................................................
          :                      SETUP                      :
          :.................................................:
          :  # basis functions                 174          :
          :  # atomic orbitals                 173          :
          :  # shells                          101          :
          :  # electrons                       184          :
          :  max. iterations                   250          :
          :  Hamiltonian                  GFN2-xTB          :
          :  restarted?                      false          :
          :  GBSA solvation                  false          :
          :  PC potential                    false          :
          :  electronic temp.          300.0000000     K    :
          :  accuracy                    1.0000000          :
          :  -> integral cutoff          0.2500000E+02      :
          :  -> integral neglect         0.1000000E-07      :
          :  -> SCF convergence          0.1000000E-05 Eh   :
          :  -> wf. convergence          0.1000000E-03 e    :
          :  Broyden damping             0.4000000          :
          :  net charge                          0          :
          :  unpaired electrons                  2          :
          ...................................................

 iter      E             dE          RMSdq      gap      omega  full diag
   1   -103.5468827 -0.103547E+03  0.410E+00    0.77       0.0  T
   2   -103.7540253 -0.207143E+00  0.281E+00    0.53       1.0  T
   3   -103.6499696  0.104056E+00  0.193E+00    0.68       1.0  T
   4   -103.7098946 -0.599251E-01  0.143E+00    0.51       1.0  T
   5   -103.8060888 -0.961942E-01  0.885E-01    0.94       1.0  T
   6   -103.8274202 -0.213313E-01  0.712E-01    0.67       1.0  T
   7   -103.8543391 -0.269189E-01  0.452E-01    0.83       1.0  T
   8   -103.8668555 -0.125165E-01  0.311E-01    0.72       1.0  T
   9   -103.7478865  0.118969E+00  0.837E-01    0.69       1.0  T
  10   -103.8652494 -0.117363E+00  0.298E-01    0.72       1.0  T
  11   -103.8767415 -0.114921E-01  0.971E-02    0.72       1.0  T
  12   -103.8529795  0.237620E-01  0.368E-01    0.72       1.0  T
  13   -103.8749479 -0.219684E-01  0.134E-01    0.72       1.0  T
  14   -103.8778044 -0.285653E-02  0.133E-02    0.72       1.0  T
  15   -103.8777883  0.161017E-04  0.123E-02    0.72       1.0  T
  16   -103.8772435  0.544796E-03  0.545E-02    0.72       1.0  T
  17   -103.8778079 -0.564419E-03  0.584E-03    0.72       2.1  T
  18   -103.8778016  0.632636E-05  0.795E-03    0.72       1.5  T
  19   -103.8778127 -0.110662E-04  0.185E-03    0.72       6.7  T
  20   -103.8778132 -0.557716E-06  0.173E-04    0.72      71.1  T
  21   -103.8778132 -0.885493E-09  0.963E-05    0.72     127.8  T

   *** convergence criteria satisfied after 21 iterations ***

         #    Occupation            Energy/Eh            Energy/eV
      -------------------------------------------------------------
         1        2.0000           -0.7656458             -20.8343
       ...           ...                  ...                  ...
        87        2.0000           -0.3993904             -10.8680
        88        2.0000           -0.3960119             -10.7760
        89        2.0000           -0.3891921             -10.5905
        90        1.9491           -0.3806040             -10.3568
        91        1.7715           -0.3789812             -10.3126
        92        1.2795           -0.3769258             -10.2567
        93        1.0000           -0.2676707              -7.2837 (HOMO)
        94        0.0000           -0.2410818              -6.5602 (LUMO)
        95                         -0.2278396              -6.1998
        96                         -0.2042135              -5.5569
        97                         -0.1771184              -4.8196
        98                         -0.1209486              -3.2912
       ...                                ...                  ...
       173                          1.2444784              33.8640
      -------------------------------------------------------------
                  HL-Gap            0.0265889 Eh            0.7235 eV
             Fermi-level           -0.3161008 Eh           -8.6015 eV

 transition dipole moment (au) for excitation:          92          93
     X       Y       Z   
  -0.0854   0.0896   0.0282  total (au/Debye):    0.127   0.323
 dE (eV)             :    2.973
 oscillator strength :  0.16614E-02

 SCC (total)                   0 d,  0 h,  0 min,  0.363 sec
 SCC setup                      ...        0 min,  0.001 sec (  0.213%)
 Dispersion                     ...        0 min,  0.001 sec (  0.292%)
 classical contributions        ...        0 min,  0.000 sec (  0.095%)
 integral evaluation            ...        0 min,  0.015 sec (  4.253%)
 iterations                     ...        0 min,  0.186 sec ( 51.307%)
 molecular gradient             ...        0 min,  0.106 sec ( 29.167%)
 printout                       ...        0 min,  0.053 sec ( 14.671%)

         :::::::::::::::::::::::::::::::::::::::::::::::::::::
         ::                     SUMMARY                     ::
         :::::::::::::::::::::::::::::::::::::::::::::::::::::
         :: total energy            -102.584365022692 Eh    ::
         :: gradient norm              0.133861166131 Eh/a0 ::
         :: HOMO-LUMO gap              0.723522055376 eV    ::
         ::.................................................::
         :: SCC energy              -103.877402615391 Eh    ::
         :: -> isotropic ES            0.134594794286 Eh    ::
         :: -> anisotropic ES          0.001002143021 Eh    ::
         :: -> anisotropic XC          0.040348296213 Eh    ::
         :: -> dispersion             -0.077733068346 Eh    ::
         :: repulsion energy           1.293037592699 Eh    ::
         :: add. restraining           0.000000000000 Eh    ::
         :: total charge              -0.000000000001 e     ::
         :::::::::::::::::::::::::::::::::::::::::::::::::::::

           -------------------------------------------------
          |                Property Printout                |
           -------------------------------------------------

    * Orbital Energies and Occupations

         #    Occupation            Energy/Eh            Energy/eV
      -------------------------------------------------------------
         1        2.0000           -0.7656458             -20.8343
       ...           ...                  ...                  ...
        81        2.0000           -0.4311260             -11.7315
        82        2.0000           -0.4272900             -11.6272
        83        2.0000           -0.4118605             -11.2073
        84        2.0000           -0.4055305             -11.0350
        85        2.0000           -0.4048050             -11.0153
        86        2.0000           -0.4038727             -10.9899
        87        2.0000           -0.3993904             -10.8680
        88        2.0000           -0.3960119             -10.7760
        89        2.0000           -0.3891921             -10.5905
        90        1.9491           -0.3806040             -10.3568
        91        1.7715           -0.3789812             -10.3126
        92        1.2795           -0.3769258             -10.2567
        93        1.0000           -0.2676707              -7.2837 (HOMO)
        94        0.0000           -0.2410818              -6.5602 (LUMO)
        95                         -0.2278396              -6.1998
        96                         -0.2042135              -5.5569
        97                         -0.1771184              -4.8196
        98                         -0.1209486              -3.2912
        99                         -0.1170532              -3.1852
       100                         -0.0933299              -2.5396
       101                         -0.0706118              -1.9214
       102                         -0.0655570              -1.7839
       103                         -0.0558055              -1.5185
       104                         -0.0247163              -0.6726
       ...                                ...                  ...
       173                          1.2444784              33.8640
      -------------------------------------------------------------
                  HL-Gap            0.0265889 Eh            0.7235 eV
             Fermi-level           -0.3161008 Eh           -8.6015 eV

     #   Z          covCN         q      C6AA      α(0)
     1   6 C        3.751    -0.104    22.541     6.771
     2   6 C        3.802    -0.054    21.549     6.609
     3   6 C        3.804    -0.067    21.773     6.643
     4   6 C        3.128     0.106    25.468     8.263
     5   7 N        1.927    -0.267    27.776     7.815
     6   6 C        3.149     0.076    26.050     8.349
     7   6 C        3.755    -0.115    22.764     6.803
     8   6 C        3.063    -0.014    28.287     8.721
     9   7 N        2.949     0.054    20.289     6.690
    10   7 N        2.769    -0.114    23.487     7.198
    11   6 C        2.856     0.123    25.302     8.245
    12   6 C        2.980    -0.038    28.932     8.823
    13   6 C        2.853     0.127    25.203     8.228
    14   6 C        2.919    -0.068    29.684     8.934
    15   6 C        2.953    -0.053    29.309     8.880
    16   6 C        2.965    -0.101    30.542     9.065
    17  16 S        3.889     1.095   103.965    17.161
    18   8 O        0.860    -0.576    25.528     6.774
    19   7 N        2.733    -0.269    26.943     7.709
    20   6 C        3.868     0.004    20.470     6.434
    21   6 C        3.767    -0.005    20.707     6.485
    22   7 N        2.730    -0.134    23.903     7.261
    23   6 C        3.769    -0.001    20.630     6.473
    24   6 C        3.842     0.001    20.530     6.446
    25   6 C        3.757     0.005    20.537     6.461
    26   6 C        3.752    -0.114    22.740     6.800
    27   8 O        0.860    -0.562    25.209     6.732
    28   6 C        2.970    -0.045    29.110     8.850
    29   8 O        1.703    -0.295    18.912     5.871
    30   6 C        3.684     0.081    19.432     6.312
    31   6 C        3.750    -0.118    22.816     6.812
    32   7 N        1.844    -0.238    27.069     7.711
    33   6 C        2.777     0.266    22.515     7.772
    34   8 O        0.859    -0.382    21.326     6.192
    35   1 H        0.925     0.036     2.509     2.477
    36   1 H        0.925     0.040     2.443     2.444
    37   1 H        0.925     0.034     2.529     2.487
    38   1 H        0.924     0.039     2.457     2.451
    39   1 H        0.924     0.050     2.322     2.383
    40   1 H        0.924     0.038     2.474     2.460
    41   1 H        0.924     0.066     2.133     2.284
    42   1 H        0.925     0.065     2.143     2.289
    43   1 H        0.925     0.066     2.134     2.284
    44   1 H        0.925     0.073     2.055     2.242
    45   1 H        0.860     0.210     1.056     1.610
    46   1 H        0.926     0.044     2.400     2.423
    47   1 H        0.926     0.048     2.343     2.393
    48   1 H        0.924     0.052     2.294     2.369
    49   1 H        0.924     0.067     2.121     2.278
    50   1 H        0.923     0.052     2.301     2.372
    51   1 H        0.924     0.056     2.245     2.343
    52   1 H        0.922     0.036     2.507     2.476
    53   1 H        0.924     0.052     2.296     2.370
    54   1 H        0.925     0.076     2.025     2.225
    55   1 H        0.924     0.069     2.097     2.265
    56   1 H        0.923     0.028     2.618     2.530
    57   1 H        0.924     0.046     2.374     2.410
    58   1 H        0.925     0.043     2.405     2.425
    59   1 H        0.925     0.055     2.256     2.349
    60   1 H        0.925     0.049     2.330     2.387
    61   1 H        0.926     0.066     2.131     2.283
    62   1 H        0.924     0.047     2.358     2.401
    63   1 H        0.924     0.038     2.470     2.458
    64   1 H        0.925     0.049     2.330     2.387
    65   1 H        0.925     0.048     2.342     2.393
    66   1 H        0.925     0.056     2.247     2.344

 Mol. C6AA /au·bohr⁶  :      48251.311834
 Mol. C8AA /au·bohr⁸  :    1143549.232141
 Mol. α(0) /au        :        335.583452


Wiberg/Mayer (AO) data.
largest (>0.10) Wiberg bond orders for each atom

 ---------------------------------------------------------------------------
     #   Z sym  total        # sym  WBO       # sym  WBO       # sym  WBO
 ---------------------------------------------------------------------------
     1   6 C    3.996 --     2 C    1.021    35 H    0.987    36 H    0.986
                            37 H    0.983
     2   6 C    3.991 --     1 C    1.021     3 C    0.983    39 H    0.978
                            38 H    0.977
     3   6 C    3.994 --     4 C    1.017     2 C    0.983    40 H    0.969
                            41 H    0.965
     4   6 C    3.926 --     5 N    1.425     9 N    1.243     3 C    1.017
     5   7 N    3.040 --     4 C    1.425     6 C    1.298
     6   6 C    3.924 --     8 C    1.406     5 N    1.298     7 C    1.038
     7   6 C    3.987 --     6 C    1.038    44 H    0.975    43 H    0.969
                            42 H    0.960
     8   6 C    3.838 --     6 C    1.406     9 N    1.124    33 C    0.993
     9   7 N    3.635 --     4 C    1.243     8 C    1.124    10 N    1.034
    10   7 N    3.362 --    11 C    1.121     9 N    1.034    45 H    0.894
    11   6 C    3.904 --    32 N    1.395    12 C    1.140    10 N    1.121
    12   6 C    3.947 --    28 C    1.308    13 C    1.233    11 C    1.140
    13   6 C    3.909 --    14 C    1.424    12 C    1.233    29 O    1.040
    14   6 C    3.973 --    13 C    1.424    15 C    1.384    46 H    0.961
    15   6 C    3.917 --    14 C    1.384    16 C    1.370    47 H    0.966
    16   6 C    3.952 --    28 C    1.461    15 C    1.370    17 S    0.747
    17  16 S    4.977 --    27 O    1.635    18 O    1.602    19 N    0.908
                            16 C    0.747
    18   8 O    1.909 --    17 S    1.602    27 O    0.109
    19   7 N    3.195 --    20 C    0.999    24 C    0.994    17 S    0.908
    20   6 C    3.967 --    19 N    0.999    21 C    0.988    48 H    0.971
                            49 H    0.964
    21   6 C    3.970 --    22 N    1.007    20 C    0.988    51 H    0.967
                            50 H    0.949
    22   7 N    3.100 --    23 C    1.008    21 C    1.007    25 C    0.994
    23   6 C    3.973 --    22 N    1.008    24 C    0.988    53 H    0.969
                            52 H    0.954
    24   6 C    3.961 --    19 N    0.994    23 C    0.988    54 H    0.966
                            55 H    0.963
    25   6 C    3.972 --    26 C    1.015    22 N    0.994    57 H    0.972
                            56 H    0.959
    26   6 C    3.992 --    25 C    1.015    59 H    0.986    60 H    0.985
                            58 H    0.984
    27   8 O    1.933 --    17 S    1.635    18 O    0.109
    28   6 C    3.969 --    16 C    1.461    12 C    1.308    61 H    0.956
    29   8 O    2.223 --    13 C    1.040    30 C    0.957
    30   6 C    3.942 --    31 C    1.011    62 H    0.969    63 H    0.966
                            29 O    0.957
    31   6 C    3.991 --    30 C    1.011    64 H    0.987    65 H    0.984
                            66 H    0.983
    32   7 N    3.040 --    11 C    1.395    33 C    1.170    34 O    0.203
    33   6 C    3.902 --    34 O    1.584    32 N    1.170     8 C    0.993
    34   8 O    2.002 --    33 C    1.584    32 N    0.203
    35   1 H    0.999 --     1 C    0.987
    36   1 H    0.998 --     1 C    0.986
    37   1 H    0.999 --     1 C    0.983
    38   1 H    0.997 --     2 C    0.977
    39   1 H    0.997 --     2 C    0.978
    40   1 H    0.998 --     3 C    0.969
    41   1 H    0.994 --     3 C    0.965
    42   1 H    0.991 --     7 C    0.960
    43   1 H    0.991 --     7 C    0.969
    44   1 H    0.993 --     7 C    0.975
    45   1 H    0.955 --    10 N    0.894
    46   1 H    0.997 --    14 C    0.961
    47   1 H    0.997 --    15 C    0.966
    48   1 H    0.997 --    20 C    0.971
    49   1 H    0.991 --    20 C    0.964
    50   1 H    0.979 --    21 C    0.949
    51   1 H    0.996 --    21 C    0.967
    52   1 H    0.981 --    23 C    0.954
    53   1 H    0.997 --    23 C    0.969
    54   1 H    0.994 --    24 C    0.966
    55   1 H    0.990 --    24 C    0.963
    56   1 H    0.985 --    25 C    0.959
    57   1 H    0.997 --    25 C    0.972
    58   1 H    0.998 --    26 C    0.984
    59   1 H    0.996 --    26 C    0.986
    60   1 H    0.997 --    26 C    0.985
    61   1 H    0.994 --    28 C    0.956
    62   1 H    0.997 --    30 C    0.969
    63   1 H    0.998 --    30 C    0.966
    64   1 H    0.998 --    31 C    0.987
    65   1 H    0.997 --    31 C    0.984
    66   1 H    0.997 --    31 C    0.983
 ---------------------------------------------------------------------------

Topologies differ in total number of bonds
Writing topology from bond orders to xtbtopo.mol

molecular dipole:
                 x           y           z       tot (Debye)
 q only:       -0.386      -0.147       1.889
   full:       -0.062      -0.899       2.142       5.905
molecular quadrupole (traceless):
                xx          xy          yy          xz          yz          zz
 q only:       30.457      43.572     -13.085       1.700      -5.071     -17.371
  q+dip:       30.728      42.947     -13.688      -2.162      -5.532     -17.041
   full:       29.222      44.740     -15.012      -2.006      -3.472     -14.209


           -------------------------------------------------
          | TOTAL ENERGY             -102.584365022692 Eh   |
          | GRADIENT NORM               0.133861166131 Eh/α |
          | HOMO-LUMO GAP               0.723522055376 eV   |
           -------------------------------------------------

------------------------------------------------------------------------
 * finished run on 2025/05/15 at 16:33:40.096     
------------------------------------------------------------------------
 total:
 * wall-time:     0 d,  0 h,  0 min,  0.384 sec
 *  cpu-time:     0 d,  0 h,  0 min,  0.217 sec
 * ratio c/w:     0.566 speedup
 SCF:
 * wall-time:     0 d,  0 h,  0 min,  0.363 sec
 *  cpu-time:     0 d,  0 h,  0 min,  0.198 sec
 * ratio c/w:     0.544 speedup


