66
 energy: -102.675610046467 gnorm: 0.000420168909 xtb: 6.7.1 (edcfbbe)
C           -5.25557472516999       -0.28713113439347        2.16266012581581
C           -6.45963017425405       -0.44329878182464        1.24153445331208
C           -6.06241466010873       -0.66351030313193       -0.22580282217059
C           -5.29322000201857        0.48793523879179       -0.76528594609718
N           -5.80466073247774        1.60097807154311       -1.24718375560140
C           -4.77887782094904        2.41064995683029       -1.59627507542688
C           -4.97868142357675        3.75366157727171       -2.19140536999851
C           -3.57994877350134        1.77618263854437       -1.31974147799744
N           -3.94430882183347        0.55028528490180       -0.78708869701008
N           -2.99901914177126       -0.35907082754708       -0.41014691609943
C           -1.69025371354065       -0.01988523544054       -0.54510278886121
C           -0.67044941680849       -1.01043510199163       -0.15491297693196
C           -0.91229766955334       -2.17130735259034        0.61186217517646
C            0.15572290587202       -3.00970203910600        0.92686500368351
C            1.43659229160722       -2.72594478805760        0.48930682016085
C            1.66622131757994       -1.59619149537705       -0.26992212505415
S            3.30987189267995       -1.25053684089767       -0.90287725265821
O            4.23931988884642       -2.02542518028646       -0.12309875287701
N            3.39988478437858        0.38624395153172       -0.59627931696775
C            3.86118434064500        0.72160146376999        0.73181272766062
C            5.38741748331819        0.70833537842996        0.82110501050650
N            5.95093002098898        1.59699643225368       -0.18291195743691
C            5.54123953928557        1.15702379034559       -1.50627779723226
C            4.01923867496019        1.20459916954840       -1.61616113938053
C            7.39665485650980        1.71045856642148       -0.07343480774978
C            7.81586302215579        2.52605555513525        1.14469964755049
O            3.29468284594401       -1.45274969361421       -2.32132563329712
C            0.62939877816393       -0.74889463108079       -0.58504757080189
O           -2.19024146541501       -2.40304831453200        1.03219111234841
C           -2.51743272510139       -3.58023641314419        1.76022002024205
C           -2.63652814630585       -4.80742456007629        0.86460452869633
N           -1.28867015032214        1.10567770438504       -1.01783076246865
C           -2.16607962942801        2.10856506595737       -1.42869894768546
O           -1.74859422014074        3.17123734977514       -1.83401861710157
H           -4.67477365090128        0.59288692198727        1.89514410753898
H           -5.58476149305082       -0.16884751357520        3.19216457830335
H           -4.60733945354724       -1.16090231283037        2.11385004100084
H           -7.06364681135143       -1.29159789057399        1.56997824819722
H           -7.07639701431776        0.45407095965632        1.29882532612662
H           -5.47556758295167       -1.58188313336820       -0.32064337462856
H           -6.96886268409694       -0.77094555897303       -0.82248707191804
H           -5.32901348821434        3.65724345319867       -3.21854774228975
H           -5.73217846067515        4.30163933879959       -1.63033743026099
H           -4.03642226050016        4.29423772801522       -2.18683679109885
H           -3.29654458582731       -1.20668439033714        0.05451106119770
H            0.00037802478026       -3.89651038081362        1.51892263516009
H            2.26505150456175       -3.37239277649546        0.73152786341453
H            3.43680284003833       -0.00740419024555        1.42392490458267
H            3.48074204572964        1.71829275617094        0.97286235728260
H            5.73806166977758       -0.32895761355532        0.68484835813882
H            5.68626878559665        1.05623772498757        1.81053681625732
H            5.87453404873697        0.12361200350968       -1.71523161870696
H            5.98089284740788        1.82502560670999       -2.25040749324152
H            3.69378287922066        0.81962150799309       -2.58193518761117
H            3.66198844611051        2.22924382359617       -1.48323138063485
H            7.87991587420067        0.71794745943305       -0.04531077711760
H            7.74591048691677        2.22660452552165       -0.97154107483418
H            7.65387726504607        1.97966114346427        2.06972111264194
H            7.24538101875503        3.44996217140938        1.17938516687582
H            8.87351915242786        2.76751141470843        1.07568353286798
H            0.80418474782877        0.14127815796461       -1.16642480005214
H           -3.48895130404337       -3.35357106339662        2.20996405870870
H           -1.80017095996002       -3.74322905038306        2.57035596259969
H           -3.39302310279328       -4.64225894356442        0.10112925880607
H           -2.92733796752373       -5.66524680229851        1.46396666502612
H           -1.69384004808866       -5.02563957900760        0.36970156933350
