----- Optimization -----
      -----------------------------------------------------------      
     |                   =====================                   |     
     |                           x T B                           |     
     |                   =====================                   |     
     |                         S. Grimme                         |     
     |          Mulliken Center for Theoretical Chemistry        |     
     |                    University of Bonn                     |     
      -----------------------------------------------------------      

   * xtb version 6.7.1 (edcfbbe) compiled by 'conda@3ef47c1a292c' on 2024-11-25

   xtb is free software: you can redistribute it and/or modify it under
   the terms of the GNU Lesser General Public License as published by
   the Free Software Foundation, either version 3 of the License, or
   (at your option) any later version.
   
   xtb is distributed in the hope that it will be useful,
   but WITHOUT ANY WARRANTY; without even the implied warranty of
   MERCHANTABILITY or FITNESS FOR A PARTICULAR PURPOSE.  See the
   GNU Lesser General Public License for more details.
   
   Cite this work as:
   * C. Bannwarth, E. Caldeweyher, S. Ehlert, A. Hansen, P. Pracht,
     J. Seibert, S. Spicher, S. Grimme, WIREs Comput. Mol. Sci., 2020, 11,
     e01493. DOI: 10.1002/wcms.1493
   
   for GFN2-xTB:
   * C. Bannwarth, S. Ehlert and S. Grimme., J. Chem. Theory Comput., 2019,
     15, 1652-1671. DOI: 10.1021/acs.jctc.8b01176
   for GFN1-xTB:
   * S. Grimme, C. Bannwarth, P. Shushkov, J. Chem. Theory Comput., 2017,
     13, 1989-2009. DOI: 10.1021/acs.jctc.7b00118
   for GFN0-xTB:
   * P. Pracht, E. Caldeweyher, S. Ehlert, S. Grimme, ChemRxiv, 2019, preprint.
     DOI: 10.26434/chemrxiv.8326202.v1
   for GFN-FF:
   * S. Spicher and S. Grimme, Angew. Chem. Int. Ed., 2020, 59, 15665-15673.
     DOI: 10.1002/anie.202004239
   
   for ALPB and GBSA implicit solvation:
   * S. Ehlert, M. Stahn, S. Spicher, S. Grimme, J. Chem. Theory Comput.,
     2021, 17, 4250-4261. DOI: 10.1021/acs.jctc.1c00471
   
   for ddCOSMO and CPCM-X implicit solvation:
   * M. Stahn, S. Ehlert, S. Grimme, J. Phys. Chem. A,
     2023, XX, XXXX-XXXX. DOI: 10.1021/acs.jpca.3c04382
   
   for DFT-D4:
   * E. Caldeweyher, C. Bannwarth and S. Grimme, J. Chem. Phys., 2017,
     147, 034112. DOI: 10.1063/1.4993215
   * E. Caldeweyher, S. Ehlert, A. Hansen, H. Neugebauer, S. Spicher,
     C. Bannwarth and S. Grimme, J. Chem. Phys., 2019, 150, 154122.
     DOI: 10.1063/1.5090222
   * E. Caldeweyher, J.-M. Mewes, S. Ehlert and S. Grimme, Phys. Chem. Chem. Phys.
     2020, 22, 8499-8512. DOI: 10.1039/D0CP00502A
   
   for sTDA-xTB:
   * S. Grimme and C. Bannwarth, J. Chem. Phys., 2016, 145, 054103.
     DOI: 10.1063/1.4959605
   
   in the mass-spec context:
   * V. Asgeirsson, C. Bauer and S. Grimme, Chem. Sci., 2017, 8, 4879.
     DOI: 10.1039/c7sc00601b
   * J. Koopman and S. Grimme, ACS Omega 2019, 4, 12, 15120-15133.
     DOI: 10.1021/acsomega.9b02011
   
   for metadynamics refer to:
   * S. Grimme, J. Chem. Theory Comput., 2019, 155, 2847-2862
     DOI: 10.1021/acs.jctc.9b00143
   
   for SPH calculations refer to:
   * S. Spicher and S. Grimme, J. Chem. Theory Comput., 2021, 17, 1701-1714
     DOI: 10.1021/acs.jctc.0c01306
   
   for ONIOM refer to:
   * C. Plett, A. Katbashev, S. Ehlert, S. Grimme, M. Bursch,
     Phys. Chem. Chem. Phys., 2023, 25, 17860-17868. DOI: 10.1039/D3CP02178E
   
   for DIPRO refer to:
   * J. Kohn, N. Gildemeister, S. Grimme, D. Fazzi, A. Hansen,
     J. Chem. Phys., 2023, just accepted.
   
   for PTB refer to:
   * S. Grimme, M. Mueller, A. Hansen, J. Chem. Phys., 2023, 158, 124111.
     DOI: 10.1063/5.0137838
   
   with help from (in alphabetical order)
   P. Atkinson, C. Bannwarth, F. Bohle, G. Brandenburg, E. Caldeweyher
   M. Checinski, S. Dohm, S. Ehlert, S. Ehrlich, I. Gerasimov, C. Hölzer
   A. Katbashev, J. Kohn, J. Koopman, C. Lavigne, S. Lehtola, F. März, M. Müller,
   F. Musil, H. Neugebauer, J. Pisarek, C. Plett, P. Pracht, F. Pultar,
   J. Seibert, P. Shushkov, S. Spicher, M. Stahn, M. Steiner, T. Strunk,
   J. Stückrath, T. Rose, and J. Unsleber
   
 * started run on 2025/05/15 at 16:14:24.739     
   ID    Z sym.   atoms
    1    8 O      1, 3, 21
    2    6 C      2, 4, 5, 7-9, 11, 12, 14-16, 18-20, 22-24
    3    7 N      6, 10, 13
    4    9 F      17
    5    1 H      25-42

           -------------------------------------------------
          |                Calculation Setup                |
           -------------------------------------------------

          program call               : xtb /rds/general/user/hgt20/home/callum/QDESCP/Ciprofloxacin_rdkit_conf_19/Ciprofloxacin_rdkit_conf_19.xyz --opt normal --acc 1 --gfn 2 --chrg 0 --uhf 0 -P 1
          hostname                   : login-c
          coordinate file            : /rds/general/user/hgt20/home/callum/QDESCP/Ciprofloxacin_rdkit_conf_19/Ciprofloxacin_rdkit_conf_19.xyz
          omp threads                :                     1


           -------------------------------------------------
          |                 G F N 2 - x T B                 |
           -------------------------------------------------

        Reference                      10.1021/acs.jctc.8b01176
      * Hamiltonian:
        H0-scaling (s, p, d)           1.850000    2.230000    2.230000
        zeta-weighting                 0.500000
      * Dispersion:
        s8                             2.700000
        a1                             0.520000
        a2                             5.000000
        s9                             5.000000
      * Repulsion:
        kExp                           1.500000    1.000000
        rExp                           1.000000
      * Coulomb:
        alpha                          2.000000
        third order                    shell-resolved
        anisotropic                    true
        a3                             3.000000
        a5                             4.000000
        cn-shift                       1.200000
        cn-exp                         4.000000
        max-rad                        5.000000


          ...................................................
          :                      SETUP                      :
          :.................................................:
          :  # basis functions                 114          :
          :  # atomic orbitals                 114          :
          :  # shells                           66          :
          :  # electrons                       126          :
          :  max. iterations                   250          :
          :  Hamiltonian                  GFN2-xTB          :
          :  restarted?                      false          :
          :  GBSA solvation                  false          :
          :  PC potential                    false          :
          :  electronic temp.          300.0000000     K    :
          :  accuracy                    1.0000000          :
          :  -> integral cutoff          0.2500000E+02      :
          :  -> integral neglect         0.1000000E-07      :
          :  -> SCF convergence          0.1000000E-05 Eh   :
          :  -> wf. convergence          0.1000000E-03 e    :
          :  Broyden damping             0.4000000          :
          :  net charge                          0          :
          :  unpaired electrons                  0          :
          ...................................................

 iter      E             dE          RMSdq      gap      omega  full diag
   1    -71.9762568 -0.719763E+02  0.418E+00    2.21       0.0  T
   2    -72.0968274 -0.120571E+00  0.255E+00    2.31       1.0  T
   3    -72.1076811 -0.108537E-01  0.146E+00    2.29       1.0  T
   4    -72.1244627 -0.167815E-01  0.466E-01    2.20       1.0  T
   5    -72.1312789 -0.681620E-02  0.113E-01    2.18       1.0  T
   6    -72.1315060 -0.227168E-03  0.530E-02    2.18       1.0  T
   7    -72.1315369 -0.308695E-04  0.231E-02    2.19       1.0  T
   8    -72.1315394 -0.250613E-05  0.920E-03    2.19       1.7  T
   9    -72.1315410 -0.161215E-05  0.406E-03    2.19       3.8  T
  10    -72.1315411 -0.108361E-06  0.155E-03    2.19      10.0  T
  11    -72.1315412 -0.433177E-07  0.696E-04    2.19      22.2  T
  12    -72.1315412 -0.532879E-08  0.262E-04    2.19      58.9  T

   *** convergence criteria satisfied after 12 iterations ***

         #    Occupation            Energy/Eh            Energy/eV
      -------------------------------------------------------------
         1        2.0000           -0.8240051             -22.4223
       ...           ...                  ...                  ...
        57        2.0000           -0.4362590             -11.8712
        58        2.0000           -0.4249288             -11.5629
        59        2.0000           -0.4172285             -11.3534
        60        2.0000           -0.3961764             -10.7805
        61        2.0000           -0.3870711             -10.5327
        62        2.0000           -0.3778068             -10.2806
        63        2.0000           -0.3580117              -9.7420 (HOMO)
        64                         -0.2774115              -7.5488 (LUMO)
        65                         -0.2644200              -7.1952
        66                         -0.2327804              -6.3343
        67                         -0.2110793              -5.7438
        68                         -0.1481023              -4.0301
       ...                                ...                  ...
       114                          0.6945085              18.8985
      -------------------------------------------------------------
                  HL-Gap            0.0806002 Eh            2.1932 eV
             Fermi-level           -0.3177116 Eh           -8.6454 eV

 SCC (total)                   0 d,  0 h,  0 min,  0.091 sec
 SCC setup                      ...        0 min,  0.000 sec (  0.410%)
 Dispersion                     ...        0 min,  0.000 sec (  0.505%)
 classical contributions        ...        0 min,  0.000 sec (  0.169%)
 integral evaluation            ...        0 min,  0.039 sec ( 42.953%)
 iterations                     ...        0 min,  0.027 sec ( 29.769%)
 molecular gradient             ...        0 min,  0.024 sec ( 25.969%)
 printout                       ...        0 min,  0.000 sec (  0.216%)

         :::::::::::::::::::::::::::::::::::::::::::::::::::::
         ::                     SUMMARY                     ::
         :::::::::::::::::::::::::::::::::::::::::::::::::::::
         :: total energy             -71.290762060996 Eh    ::
         :: gradient norm              0.083032290223 Eh/a0 ::
         :: HOMO-LUMO gap              2.193242966602 eV    ::
         ::.................................................::
         :: SCC energy               -72.131366940021 Eh    ::
         :: -> isotropic ES            0.107104748474 Eh    ::
         :: -> anisotropic ES          0.008651649003 Eh    ::
         :: -> anisotropic XC          0.020251509272 Eh    ::
         :: -> dispersion             -0.045938477734 Eh    ::
         :: repulsion energy           0.840604879025 Eh    ::
         :: add. restraining           0.000000000000 Eh    ::
         :: total charge              -0.000000000000 e     ::
         :::::::::::::::::::::::::::::::::::::::::::::::::::::

      ----------------------------------------------------------- 
     |                   =====================                   |
     |                        A N C O P T                        |
     |                   =====================                   |
     |               Approximate Normal Coordinate               |
     |                Rational Function Optimizer                |
      ----------------------------------------------------------- 
      ----------------------------------------------------------- 
     |                   =====================                   |
     |                        A N C O P T                        |
     |                   =====================                   |
     |               Approximate Normal Coordinate               |
     |                Rational Function Optimizer                |
      ----------------------------------------------------------- 

          ...................................................
          :                      SETUP                      :
          :.................................................:
          :   optimization level            normal          :
          :   max. optcycles                   200          :
          :   ANC micro-cycles                  20          :
          :   degrees of freedom               120          :
          :.................................................:
          :   RF solver                   davidson          :
          :   write xtbopt.log                true          :
          :   linear?                        false          :
          :   energy convergence         0.5000000E-05 Eh   :
          :   grad. convergence          0.1000000E-02 Eh/α :
          :   maxmium RF displ.          1.0000000          :
          :   Hlow (freq-cutoff)         0.1000000E-01      :
          :   Hmax (freq-cutoff)         5.0000000          :
          :   S6 in model hess.         20.0000000          :
          ...................................................

generating ANC from exact Hessian ...
Using Lindh-Hessian (1995)
 Shifting diagonal of input Hessian by    9.5893817598992747E-003
 Lowest  eigenvalues of input Hessian
    0.000000    0.000000    0.000000    0.000000    0.000000    0.000000
    0.010000    0.010060    0.011006    0.011465    0.011918    0.012144
    0.012933    0.014450    0.015758    0.017186    0.018825    0.020057
 Highest eigenvalues
    1.871588    1.997363    2.024791    2.090257    2.211256    2.338677


........................................................................
.............................. CYCLE    1 ..............................
........................................................................

 iter      E             dE          RMSdq      gap      omega  full diag
   1    -72.1315412 -0.721315E+02  0.120E-04    2.19       0.0  T
   2    -72.1315412 -0.120650E-09  0.783E-05    2.19     197.0  T
   3    -72.1315412 -0.118007E-09  0.457E-05    2.19     337.6  T
     SCC iter.                  ...        0 min,  0.007 sec
     gradient                   ...        0 min,  0.024 sec
 * total energy  :   -71.2907621 Eh     change       -0.1005546E-08 Eh
   gradient norm :     0.0830334 Eh/α   predicted     0.0000000E+00 (-100.00%)
   displ. norm   :     0.3690558 α      lambda       -0.1623932E-01
   maximum displ.:     0.1774307 α      in ANC's #24, #12, #38, ...

........................................................................
.............................. CYCLE    2 ..............................
........................................................................

 iter      E             dE          RMSdq      gap      omega  full diag
   1    -72.1705995 -0.721706E+02  0.253E-01    2.15       0.0  T
   2    -72.1709897 -0.390214E-03  0.173E-01    2.18       1.0  T
   3    -72.1711280 -0.138306E-03  0.966E-02    2.17       1.0  T
   4    -72.1712212 -0.931718E-04  0.274E-02    2.17       1.0  T
   5    -72.1712442 -0.230379E-04  0.563E-03    2.17       2.7  T
   6    -72.1712448 -0.520255E-06  0.272E-03    2.17       5.7  T
   7    -72.1712448 -0.527701E-07  0.983E-04    2.17      15.7  T
   8    -72.1712448 -0.579905E-08  0.410E-04    2.17      37.7  T
     SCC iter.                  ...        0 min,  0.017 sec
     gradient                   ...        0 min,  0.024 sec
 * total energy  :   -71.3020658 Eh     change       -0.1130378E-01 Eh
   gradient norm :     0.0355719 Eh/α   predicted    -0.9230508E-02 ( -18.34%)
   displ. norm   :     0.3474906 α      lambda       -0.5695715E-02
   maximum displ.:     0.1666338 α      in ANC's #12, #24, #15, ...

........................................................................
.............................. CYCLE    3 ..............................
........................................................................

 iter      E             dE          RMSdq      gap      omega  full diag
   1    -72.1963850 -0.721964E+02  0.179E-01    2.15       0.0  T
   2    -72.1966768 -0.291758E-03  0.123E-01    2.20       1.0  T
   3    -72.1968010 -0.124224E-03  0.687E-02    2.19       1.0  T
   4    -72.1968228 -0.217450E-04  0.232E-02    2.19       1.0  T
   5    -72.1968380 -0.152709E-04  0.482E-03    2.19       3.2  T
   6    -72.1968385 -0.493394E-06  0.204E-03    2.19       7.6  T
   7    -72.1968386 -0.357851E-07  0.740E-04    2.19      20.8  T
   8    -72.1968386 -0.333937E-08  0.327E-04    2.19      47.1  T
     SCC iter.                  ...        0 min,  0.054 sec
     gradient                   ...        0 min,  0.024 sec
 * total energy  :   -71.3053952 Eh     change       -0.3329331E-02 Eh
   gradient norm :     0.0113652 Eh/α   predicted    -0.3191735E-02 (  -4.13%)
   displ. norm   :     0.2026415 α      lambda       -0.8555094E-03
   maximum displ.:     0.1265085 α      in ANC's #12, #3, #2, ...

........................................................................
.............................. CYCLE    4 ..............................
........................................................................

 iter      E             dE          RMSdq      gap      omega  full diag
   1    -72.2007377 -0.722007E+02  0.660E-02    2.18       0.0  T
   2    -72.2007649 -0.272436E-04  0.396E-02    2.20       1.0  T
   3    -72.2007684 -0.352818E-05  0.229E-02    2.19       1.0  T
   4    -72.2007748 -0.639605E-05  0.558E-03    2.20       2.8  T
   5    -72.2007758 -0.961141E-06  0.167E-03    2.20       9.2  T
   6    -72.2007759 -0.555854E-07  0.796E-04    2.20      19.4  T
   7    -72.2007759 -0.616052E-08  0.263E-04    2.20      58.6  T
     SCC iter.                  ...        0 min,  0.015 sec
     gradient                   ...        0 min,  0.063 sec
 * total energy  :   -71.3060138 Eh     change       -0.6186062E-03 Eh
   gradient norm :     0.0074810 Eh/α   predicted    -0.4453506E-03 ( -28.01%)
   displ. norm   :     0.2478863 α      lambda       -0.5790190E-03
   maximum displ.:     0.1380137 α      in ANC's #12, #4, #2, ...

........................................................................
.............................. CYCLE    5 ..............................
........................................................................

 iter      E             dE          RMSdq      gap      omega  full diag
   1    -72.2015510 -0.722016E+02  0.728E-02    2.19       0.0  T
   2    -72.2015711 -0.200995E-04  0.423E-02    2.21       1.0  T
   3    -72.2015674  0.377758E-05  0.234E-02    2.20       1.0  T
   4    -72.2015779 -0.105307E-04  0.419E-03    2.21       3.7  T
   5    -72.2015784 -0.527404E-06  0.156E-03    2.21       9.9  T
   6    -72.2015785 -0.292138E-07  0.799E-04    2.21      19.3  T
   7    -72.2015785 -0.100029E-07  0.302E-04    2.21      51.0  T
     SCC iter.                  ...        0 min,  0.015 sec
     gradient                   ...        0 min,  0.075 sec
 * total energy  :   -71.3063840 Eh     change       -0.3702178E-03 Eh
   gradient norm :     0.0038779 Eh/α   predicted    -0.3073009E-03 ( -16.99%)
   displ. norm   :     0.1759575 α      lambda       -0.1949422E-03
   maximum displ.:     0.0856949 α      in ANC's #2, #4, #12, ...

........................................................................
.............................. CYCLE    6 ..............................
........................................................................

 iter      E             dE          RMSdq      gap      omega  full diag
   1    -72.2012326 -0.722012E+02  0.462E-02    2.21       0.0  T
   2    -72.2012355 -0.289530E-05  0.268E-02    2.22       1.0  T
   3    -72.2012323  0.323035E-05  0.112E-02    2.21       1.4  T
   4    -72.2012366 -0.433473E-05  0.178E-03    2.22       8.7  T
   5    -72.2012367 -0.733944E-07  0.880E-04    2.21      17.5  T
   6    -72.2012367 -0.407741E-08  0.429E-04    2.21      35.9  T
     SCC iter.                  ...        0 min,  0.013 sec
     gradient                   ...        0 min,  0.069 sec
 * total energy  :   -71.3065289 Eh     change       -0.1448666E-03 Eh
   gradient norm :     0.0035897 Eh/α   predicted    -0.1004892E-03 ( -30.63%)
   displ. norm   :     0.2341684 α      lambda       -0.2052364E-03
   maximum displ.:     0.1242435 α      in ANC's #2, #4, #3, ...

........................................................................
.............................. CYCLE    7 ..............................
........................................................................

 iter      E             dE          RMSdq      gap      omega  full diag
   1    -72.2005432 -0.722005E+02  0.622E-02    2.21       0.0  T
   2    -72.2005458 -0.260468E-05  0.362E-02    2.22       1.0  T
   3    -72.2005421  0.368727E-05  0.109E-02    2.22       1.4  T
   4    -72.2005468 -0.466837E-05  0.218E-03    2.22       7.1  T
   5    -72.2005469 -0.871374E-07  0.116E-03    2.22      13.3  T
   6    -72.2005469 -0.637259E-08  0.570E-04    2.22      27.0  T
   7    -72.2005469 -0.556410E-08  0.191E-04    2.22      81.0  T
     SCC iter.                  ...        0 min,  0.015 sec
     gradient                   ...        0 min,  0.069 sec
 * total energy  :   -71.3066832 Eh     change       -0.1543330E-03 Eh
   gradient norm :     0.0044743 Eh/α   predicted    -0.1082614E-03 ( -29.85%)
   displ. norm   :     0.2570744 α      lambda       -0.1952369E-03
   maximum displ.:     0.1471161 α      in ANC's #2, #4, #10, ...

........................................................................
.............................. CYCLE    8 ..............................
........................................................................

 iter      E             dE          RMSdq      gap      omega  full diag
   1    -72.1999643 -0.722000E+02  0.659E-02    2.22       0.0  T
   2    -72.1999662 -0.186414E-05  0.387E-02    2.22       1.0  T
   3    -72.1999614  0.481513E-05  0.120E-02    2.22       1.3  T
   4    -72.1999674 -0.598900E-05  0.223E-03    2.22       6.9  T
   5    -72.1999674 -0.411032E-07  0.125E-03    2.22      12.4  T
   6    -72.1999674 -0.919755E-08  0.491E-04    2.22      31.4  T
   7    -72.1999674 -0.475190E-08  0.180E-04    2.22      85.6  T
     SCC iter.                  ...        0 min,  0.015 sec
     gradient                   ...        0 min,  0.024 sec
 * total energy  :   -71.3068298 Eh     change       -0.1466449E-03 Eh
   gradient norm :     0.0042773 Eh/α   predicted    -0.1040708E-03 ( -29.03%)
   displ. norm   :     0.2581823 α      lambda       -0.1681886E-03
   maximum displ.:     0.1601205 α      in ANC's #2, #4, #10, ...

........................................................................
.............................. CYCLE    9 ..............................
........................................................................

 iter      E             dE          RMSdq      gap      omega  full diag
   1    -72.1999544 -0.722000E+02  0.668E-02    2.23       0.0  T
   2    -72.1999575 -0.312822E-05  0.391E-02    2.23       1.0  T
   3    -72.1999526  0.494312E-05  0.130E-02    2.23       1.2  T
   4    -72.1999587 -0.612221E-05  0.274E-03    2.23       5.6  T
   5    -72.1999588 -0.149160E-06  0.130E-03    2.23      11.9  T
   6    -72.1999588 -0.249869E-09  0.620E-04    2.23      24.9  T
   7    -72.1999589 -0.847935E-08  0.174E-04    2.23      88.5  T
     SCC iter.                  ...        0 min,  0.015 sec
     gradient                   ...        0 min,  0.024 sec
 * total energy  :   -71.3069530 Eh     change       -0.1231255E-03 Eh
   gradient norm :     0.0038447 Eh/α   predicted    -0.8970046E-04 ( -27.15%)
   displ. norm   :     0.2153131 α      lambda       -0.1200744E-03
   maximum displ.:     0.1452429 α      in ANC's #2, #4, #10, ...

........................................................................
.............................. CYCLE   10 ..............................
........................................................................

 iter      E             dE          RMSdq      gap      omega  full diag
   1    -72.2010751 -0.722011E+02  0.513E-02    2.23       0.0  T
   2    -72.2010766 -0.148257E-05  0.300E-02    2.23       1.0  T
   3    -72.2010727  0.383329E-05  0.112E-02    2.23       1.4  T
   4    -72.2010775 -0.476889E-05  0.195E-03    2.23       7.9  T
   5    -72.2010775 -0.447643E-07  0.108E-03    2.23      14.3  T
   6    -72.2010775 -0.374651E-08  0.468E-04    2.23      33.0  T
   7    -72.2010775 -0.345139E-08  0.149E-04    2.23     103.8  T
     SCC iter.                  ...        0 min,  0.054 sec
     gradient                   ...        0 min,  0.024 sec
 * total energy  :   -71.3070385 Eh     change       -0.8551119E-04 Eh
   gradient norm :     0.0025373 Eh/α   predicted    -0.6282413E-04 ( -26.53%)
   displ. norm   :     0.2102552 α      lambda       -0.8091280E-04
   maximum displ.:     0.1436796 α      in ANC's #2, #4, #10, ...

........................................................................
.............................. CYCLE   11 ..............................
........................................................................

 iter      E             dE          RMSdq      gap      omega  full diag
   1    -72.2012056 -0.722012E+02  0.539E-02    2.23       0.0  T
   2    -72.2012092 -0.356313E-05  0.315E-02    2.23       1.0  T
   3    -72.2012057  0.354651E-05  0.116E-02    2.23       1.3  T
   4    -72.2012101 -0.448156E-05  0.267E-03    2.23       5.8  T
   5    -72.2012103 -0.179207E-06  0.116E-03    2.23      13.3  T
   6    -72.2012103 -0.681477E-08  0.649E-04    2.23      23.8  T
   7    -72.2012103 -0.398295E-08  0.176E-04    2.23      87.5  T
     SCC iter.                  ...        0 min,  0.015 sec
     gradient                   ...        0 min,  0.063 sec
 * total energy  :   -71.3070934 Eh     change       -0.5489883E-04 Eh
   gradient norm :     0.0043706 Eh/α   predicted    -0.4225470E-04 ( -23.03%)
   displ. norm   :     0.1654395 α      lambda       -0.8044337E-04
   maximum displ.:     0.1204465 α      in ANC's #2, #1, #8, ...

........................................................................
.............................. CYCLE   12 ..............................
........................................................................

 iter      E             dE          RMSdq      gap      omega  full diag
   1    -72.2033285 -0.722033E+02  0.344E-02    2.23       0.0  T
   2    -72.2033302 -0.165885E-05  0.200E-02    2.24       1.0  T
   3    -72.2033295  0.703993E-06  0.677E-03    2.23       2.3  T
   4    -72.2033306 -0.112047E-05  0.139E-03    2.24      11.1  T
   5    -72.2033307 -0.377947E-07  0.737E-04    2.24      20.9  T
   6    -72.2033307 -0.292648E-08  0.295E-04    2.24      52.2  T
     SCC iter.                  ...        0 min,  0.013 sec
     gradient                   ...        0 min,  0.069 sec
 * total energy  :   -71.3071394 Eh     change       -0.4603155E-04 Eh
   gradient norm :     0.0032620 Eh/α   predicted    -0.4132302E-04 ( -10.23%)
   displ. norm   :     0.1572655 α      lambda       -0.5235119E-04
   maximum displ.:     0.1116189 α      in ANC's #2, #1, #8, ...

........................................................................
.............................. CYCLE   13 ..............................
........................................................................

 iter      E             dE          RMSdq      gap      omega  full diag
   1    -72.2026301 -0.722026E+02  0.370E-02    2.23       0.0  T
   2    -72.2026310 -0.972013E-06  0.217E-02    2.24       1.0  T
   3    -72.2026298  0.119723E-05  0.632E-03    2.24       2.4  T
   4    -72.2026314 -0.157560E-05  0.150E-03    2.24      10.3  T
   5    -72.2026315 -0.351171E-07  0.811E-04    2.24      19.0  T
   6    -72.2026315 -0.335005E-08  0.325E-04    2.24      47.4  T
     SCC iter.                  ...        0 min,  0.013 sec
     gradient                   ...        0 min,  0.024 sec
 * total energy  :   -71.3071800 Eh     change       -0.4058190E-04 Eh
   gradient norm :     0.0029909 Eh/α   predicted    -0.2682588E-04 ( -33.90%)
   displ. norm   :     0.1878402 α      lambda       -0.6862471E-04
   maximum displ.:     0.1314407 α      in ANC's #2, #1, #8, ...

........................................................................
.............................. CYCLE   14 ..............................
........................................................................

 iter      E             dE          RMSdq      gap      omega  full diag
   1    -72.2020446 -0.722020E+02  0.399E-02    2.24       0.0  T
   2    -72.2020456 -0.979451E-06  0.231E-02    2.24       1.0  T
   3    -72.2020454  0.223721E-06  0.366E-03    2.24       4.2  T
   4    -72.2020458 -0.409890E-06  0.151E-03    2.24      10.2  T
   5    -72.2020459 -0.669979E-07  0.698E-04    2.24      22.1  T
   6    -72.2020459 -0.153396E-08  0.259E-04    2.24      59.5  T
     SCC iter.                  ...        0 min,  0.013 sec
     gradient                   ...        0 min,  0.024 sec
 * total energy  :   -71.3072338 Eh     change       -0.5383665E-04 Eh
   gradient norm :     0.0030405 Eh/α   predicted    -0.3552418E-04 ( -34.01%)
   displ. norm   :     0.2284340 α      lambda       -0.7639696E-04
   maximum displ.:     0.1515794 α      in ANC's #2, #1, #3, ...

........................................................................
.............................. CYCLE   15 ..............................
........................................................................

 iter      E             dE          RMSdq      gap      omega  full diag
   1    -72.2015898 -0.722016E+02  0.426E-02    2.24       0.0  T
   2    -72.2015904 -0.656684E-06  0.248E-02    2.24       1.0  T
   3    -72.2015898  0.560826E-06  0.439E-03    2.24       3.5  T
   4    -72.2015907 -0.841039E-06  0.128E-03    2.24      12.1  T
   5    -72.2015907 -0.144969E-07  0.680E-04    2.24      22.7  T
   6    -72.2015907 -0.327776E-08  0.241E-04    2.24      64.0  T
     SCC iter.                  ...        0 min,  0.013 sec
     gradient                   ...        0 min,  0.057 sec
 * total energy  :   -71.3072919 Eh     change       -0.5808188E-04 Eh
   gradient norm :     0.0026368 Eh/α   predicted    -0.4019376E-04 ( -30.80%)
   displ. norm   :     0.2159558 α      lambda       -0.5970490E-04
   maximum displ.:     0.1416196 α      in ANC's #2, #1, #3, ...

........................................................................
.............................. CYCLE   16 ..............................
........................................................................

 iter      E             dE          RMSdq      gap      omega  full diag
   1    -72.2014434 -0.722014E+02  0.390E-02    2.25       0.0  T
   2    -72.2014440 -0.578745E-06  0.226E-02    2.25       1.0  T
   3    -72.2014437  0.291195E-06  0.371E-03    2.25       4.2  T
   4    -72.2014442 -0.488532E-06  0.122E-03    2.25      12.7  T
   5    -72.2014442 -0.231109E-07  0.659E-04    2.25      23.4  T
   6    -72.2014442 -0.304097E-08  0.220E-04    2.25      70.2  T
     SCC iter.                  ...        0 min,  0.013 sec
     gradient                   ...        0 min,  0.063 sec
 * total energy  :   -71.3073392 Eh     change       -0.4725794E-04 Eh
   gradient norm :     0.0025284 Eh/α   predicted    -0.3124832E-04 ( -33.88%)
   displ. norm   :     0.2336406 α      lambda       -0.5676426E-04
   maximum displ.:     0.1570438 α      in ANC's #2, #1, #4, ...

........................................................................
.............................. CYCLE   17 ..............................
........................................................................

 iter      E             dE          RMSdq      gap      omega  full diag
   1    -72.2014534 -0.722015E+02  0.414E-02    2.25       0.0  T
   2    -72.2014540 -0.662469E-06  0.241E-02    2.25       1.0  T
   3    -72.2014536  0.472682E-06  0.454E-03    2.25       3.4  T
   4    -72.2014543 -0.733343E-06  0.127E-03    2.25      12.2  T
   5    -72.2014543 -0.180201E-07  0.691E-04    2.25      22.3  T
   6    -72.2014543 -0.215002E-08  0.266E-04    2.25      58.1  T
     SCC iter.                  ...        0 min,  0.013 sec
     gradient                   ...        0 min,  0.024 sec
 * total energy  :   -71.3073832 Eh     change       -0.4404282E-04 Eh
   gradient norm :     0.0020008 Eh/α   predicted    -0.2993224E-04 ( -32.04%)
   displ. norm   :     0.2543918 α      lambda       -0.5258096E-04
   maximum displ.:     0.1737659 α      in ANC's #2, #1, #4, ...

........................................................................
.............................. CYCLE   18 ..............................
........................................................................

 iter      E             dE          RMSdq      gap      omega  full diag
   1    -72.2018351 -0.722018E+02  0.448E-02    2.24       0.0  T
   2    -72.2018360 -0.930644E-06  0.260E-02    2.25       1.0  T
   3    -72.2018354  0.660608E-06  0.555E-03    2.25       2.8  T
   4    -72.2018364 -0.983235E-06  0.135E-03    2.25      11.5  T
   5    -72.2018364 -0.218433E-07  0.723E-04    2.25      21.3  T
   6    -72.2018364 -0.148977E-08  0.263E-04    2.25      58.8  T
     SCC iter.                  ...        0 min,  0.052 sec
     gradient                   ...        0 min,  0.024 sec
 * total energy  :   -71.3074210 Eh     change       -0.3782637E-04 Eh
   gradient norm :     0.0015785 Eh/α   predicted    -0.2799405E-04 ( -25.99%)
   displ. norm   :     0.3771505 α      lambda       -0.3685711E-04
   maximum displ.:     0.2690727 α      in ANC's #2, #1, #4, ...

........................................................................
.............................. CYCLE   19 ..............................
........................................................................

 iter      E             dE          RMSdq      gap      omega  full diag
   1    -72.2013996 -0.722014E+02  0.679E-02    2.24       0.0  T
   2    -72.2014035 -0.396527E-05  0.398E-02    2.25       1.0  T
   3    -72.2014002  0.335748E-05  0.119E-02    2.24       1.3  T
   4    -72.2014047 -0.454647E-05  0.279E-03    2.25       5.5  T
   5    -72.2014049 -0.162988E-06  0.135E-03    2.25      11.4  T
   6    -72.2014049 -0.117148E-07  0.634E-04    2.25      24.3  T
   7    -72.2014049 -0.394098E-08  0.248E-04    2.25      62.3  T
     SCC iter.                  ...        0 min,  0.015 sec
     gradient                   ...        0 min,  0.057 sec
 * total energy  :   -71.3074469 Eh     change       -0.2585170E-04 Eh
   gradient norm :     0.0041156 Eh/α   predicted    -0.1960049E-04 ( -24.18%)
   displ. norm   :     0.1384459 α      lambda       -0.5100030E-04
   maximum displ.:     0.0788515 α      in ANC's #2, #1, #4, ...

........................................................................
.............................. CYCLE   20 ..............................
........................................................................

 iter      E             dE          RMSdq      gap      omega  full diag
   1    -72.2036579 -0.722037E+02  0.302E-02    2.25       0.0  T
   2    -72.2036600 -0.205987E-05  0.182E-02    2.25       1.0  T
   3    -72.2036590  0.933837E-06  0.767E-03    2.25       2.0  T
   4    -72.2036604 -0.141603E-05  0.187E-03    2.25       8.3  T
   5    -72.2036605 -0.113869E-06  0.585E-04    2.25      26.4  T
   6    -72.2036606 -0.194063E-08  0.313E-04    2.25      49.3  T
     SCC iter.                  ...        0 min,  0.013 sec
     gradient                   ...        0 min,  0.024 sec
 * total energy  :   -71.3074650 Eh     change       -0.1807030E-04 Eh
   gradient norm :     0.0046234 Eh/α   predicted    -0.2598967E-04 (  43.83%)
   displ. norm   :     0.0712935 α      lambda       -0.2969015E-04
   maximum displ.:     0.0525351 α      in ANC's #2, #1, #10, ...
 * RMSD in coord.:     0.4996011 α      energy gain  -0.1670290E-01 Eh

generating ANC from exact Hessian ...
Using Lindh-Hessian (1995)
 Shifting diagonal of input Hessian by    9.5244959518635368E-003
 Lowest  eigenvalues of input Hessian
    0.000000    0.000000    0.000000    0.000000    0.000000    0.000000
    0.010000    0.010044    0.011080    0.011613    0.012218    0.012359
    0.013453    0.014996    0.016337    0.016704    0.020083    0.020715
 Highest eigenvalues
    1.971953    2.080974    2.115534    2.200342    2.298916    2.399039


........................................................................
.............................. CYCLE   21 ..............................
........................................................................

 iter      E             dE          RMSdq      gap      omega  full diag
   1    -72.2029985 -0.722030E+02  0.170E-02    2.25       0.0  T
   2    -72.2029993 -0.766582E-06  0.986E-03    2.25       1.6  T
   3    -72.2029993  0.333681E-08  0.241E-03    2.25       6.4  T
   4    -72.2029993 -0.363486E-07  0.725E-04    2.25      21.3  T
   5    -72.2029993 -0.155650E-07  0.311E-04    2.25      49.6  T
     SCC iter.                  ...        0 min,  0.011 sec
     gradient                   ...        0 min,  0.024 sec
 * total energy  :   -71.3074876 Eh     change       -0.2261900E-04 Eh
   gradient norm :     0.0021215 Eh/α   predicted     0.0000000E+00 (-100.00%)
   displ. norm   :     0.0305772 α      lambda       -0.2213313E-04
   maximum displ.:     0.0178413 α      in ANC's #10, #3, #4, ...

........................................................................
.............................. CYCLE   22 ..............................
........................................................................

 iter      E             dE          RMSdq      gap      omega  full diag
   1    -72.2026236 -0.722026E+02  0.110E-02    2.25       0.0  T
   2    -72.2026237 -0.113359E-06  0.657E-03    2.25       2.3  T
   3    -72.2026236  0.122116E-06  0.206E-03    2.25       7.5  T
   4    -72.2026237 -0.143171E-06  0.460E-04    2.25      33.5  T
   5    -72.2026238 -0.711739E-08  0.153E-04    2.25     101.0  T
     SCC iter.                  ...        0 min,  0.011 sec
     gradient                   ...        0 min,  0.051 sec
 * total energy  :   -71.3075018 Eh     change       -0.1423628E-04 Eh
   gradient norm :     0.0012931 Eh/α   predicted    -0.1127378E-04 ( -20.81%)
   displ. norm   :     0.0737114 α      lambda       -0.1919432E-04
   maximum displ.:     0.0418059 α      in ANC's #3, #10, #4, ...

........................................................................
.............................. CYCLE   23 ..............................
........................................................................

 iter      E             dE          RMSdq      gap      omega  full diag
   1    -72.2019513 -0.722020E+02  0.223E-02    2.25       0.0  T
   2    -72.2019518 -0.460879E-06  0.132E-02    2.25       1.2  T
   3    -72.2019513  0.474809E-06  0.419E-03    2.25       3.7  T
   4    -72.2019519 -0.574403E-06  0.907E-04    2.25      17.0  T
   5    -72.2019519 -0.255861E-07  0.324E-04    2.25      47.6  T
     SCC iter.                  ...        0 min,  0.011 sec
     gradient                   ...        0 min,  0.024 sec
 * total energy  :   -71.3075185 Eh     change       -0.1666945E-04 Eh
   gradient norm :     0.0014921 Eh/α   predicted    -0.9620770E-05 ( -42.29%)
   displ. norm   :     0.0507743 α      lambda       -0.8914477E-05
   maximum displ.:     0.0316649 α      in ANC's #3, #10, #4, ...

........................................................................
.............................. CYCLE   24 ..............................
........................................................................

 iter      E             dE          RMSdq      gap      omega  full diag
   1    -72.2022473 -0.722022E+02  0.133E-02    2.25       0.0  T
   2    -72.2022474 -0.927288E-07  0.780E-03    2.25       2.0  T
   3    -72.2022474  0.265850E-07  0.122E-03    2.25      12.7  T
   4    -72.2022475 -0.438819E-07  0.366E-04    2.25      42.2  T
   5    -72.2022475 -0.231425E-08  0.196E-04    2.25      78.8  T
     SCC iter.                  ...        0 min,  0.038 sec
     gradient                   ...        0 min,  0.024 sec
 * total energy  :   -71.3075284 Eh     change       -0.9936546E-05 Eh
   gradient norm :     0.0010137 Eh/α   predicted    -0.4465234E-05 ( -55.06%)
   displ. norm   :     0.0834998 α      lambda       -0.1062772E-04
   maximum displ.:     0.0514730 α      in ANC's #3, #4, #10, ...

........................................................................
.............................. CYCLE   25 ..............................
........................................................................

 iter      E             dE          RMSdq      gap      omega  full diag
   1    -72.2026912 -0.722027E+02  0.225E-02    2.25       0.0  T
   2    -72.2026913 -0.132058E-06  0.132E-02    2.25       1.2  T
   3    -72.2026914 -0.156527E-07  0.106E-03    2.25      14.5  T
   4    -72.2026914 -0.247974E-07  0.532E-04    2.25      29.0  T
   5    -72.2026914 -0.335571E-08  0.313E-04    2.25      49.2  T
     SCC iter.                  ...        0 min,  0.011 sec
     gradient                   ...        0 min,  0.063 sec
 * total energy  :   -71.3075394 Eh     change       -0.1094429E-04 Eh
   gradient norm :     0.0010344 Eh/α   predicted    -0.5346018E-05 ( -51.15%)
   displ. norm   :     0.0846717 α      lambda       -0.8021243E-05
   maximum displ.:     0.0522468 α      in ANC's #3, #4, #10, ...

........................................................................
.............................. CYCLE   26 ..............................
........................................................................

 iter      E             dE          RMSdq      gap      omega  full diag
   1    -72.2027345 -0.722027E+02  0.232E-02    2.25       0.0  T
   2    -72.2027347 -0.111894E-06  0.137E-02    2.25       1.1  T
   3    -72.2027347 -0.476167E-08  0.122E-03    2.25      12.6  T
   4    -72.2027347 -0.454692E-07  0.533E-04    2.25      29.0  T
   5    -72.2027347 -0.162329E-08  0.314E-04    2.25      49.2  T
     SCC iter.                  ...        0 min,  0.011 sec
     gradient                   ...        0 min,  0.024 sec
 * total energy  :   -71.3075475 Eh     change       -0.8139361E-05 Eh
   gradient norm :     0.0009193 Eh/α   predicted    -0.4025896E-05 ( -50.54%)
   displ. norm   :     0.0763901 α      lambda       -0.5867516E-05
   maximum displ.:     0.0447826 α      in ANC's #3, #4, #12, ...

........................................................................
.............................. CYCLE   27 ..............................
........................................................................

 iter      E             dE          RMSdq      gap      omega  full diag
   1    -72.2027282 -0.722027E+02  0.211E-02    2.25       0.0  T
   2    -72.2027283 -0.122992E-06  0.124E-02    2.25       1.2  T
   3    -72.2027283  0.777412E-07  0.182E-03    2.25       8.5  T
   4    -72.2027284 -0.132955E-06  0.619E-04    2.25      24.9  T
   5    -72.2027284 -0.517356E-08  0.347E-04    2.25      44.5  T
     SCC iter.                  ...        0 min,  0.011 sec
     gradient                   ...        0 min,  0.024 sec
 * total energy  :   -71.3075538 Eh     change       -0.6268980E-05 Eh
   gradient norm :     0.0006426 Eh/α   predicted    -0.2941728E-05 ( -53.07%)
   displ. norm   :     0.0611521 α      lambda       -0.4080252E-05
   maximum displ.:     0.0293190 α      in ANC's #3, #12, #4, ...

........................................................................
.............................. CYCLE   28 ..............................
........................................................................

 iter      E             dE          RMSdq      gap      omega  full diag
   1    -72.2026538 -0.722027E+02  0.164E-02    2.25       0.0  T
   2    -72.2026539 -0.104021E-06  0.969E-03    2.25       1.6  T
   3    -72.2026538  0.116034E-06  0.199E-03    2.25       7.8  T
   4    -72.2026539 -0.165999E-06  0.554E-04    2.25      27.9  T
   5    -72.2026539 -0.390764E-08  0.319E-04    2.25      48.4  T
     SCC iter.                  ...        0 min,  0.011 sec
     gradient                   ...        0 min,  0.053 sec
 * total energy  :   -71.3075582 Eh     change       -0.4449866E-05 Eh
   gradient norm :     0.0005796 Eh/α   predicted    -0.2044225E-05 ( -54.06%)
   displ. norm   :     0.0488633 α      lambda       -0.2908069E-05
   maximum displ.:     0.0243701 α      in ANC's #1, #12, #4, ...

   *** GEOMETRY OPTIMIZATION CONVERGED AFTER 28 ITERATIONS ***

------------------------------------------------------------------------
 total energy gain   :        -0.0167962 Eh      -10.5398 kcal/mol
 total RMSD          :         0.5178296 a0        0.2740 Å
 total power (kW/mol):        -1.5749401 (step)  -20.4506 (real)
------------------------------------------------------------------------

 ANCopt (total)                0 d,  0 h,  0 min,  2.156 sec
 optimizer setup                ...        0 min,  0.000 sec (  0.003%)
 model hessian                  ...        0 min,  0.101 sec (  4.694%)
 ANC generation                 ...        0 min,  0.003 sec (  0.141%)
 coordinate transformation      ...        0 min,  0.000 sec (  0.013%)
 single point calculation       ...        0 min,  2.042 sec ( 94.686%)
 optimization log               ...        0 min,  0.006 sec (  0.259%)
 hessian update                 ...        0 min,  0.000 sec (  0.018%)
 rational function              ...        0 min,  0.002 sec (  0.097%)

================
 final structure:
================
42
 xtb: 6.7.1 (edcfbbe)
O           -5.98213996318763        0.92837670642838        0.96352136626549
C           -5.09012922633496        1.72581206012107        0.76024442335122
O           -5.31900904986708        3.03156838714025        0.65724648218560
C           -3.67692639363255        1.33577620985473        0.61011688419805
C           -3.40224786492848        0.01168802103391        0.77770892115362
N           -2.18264798732562       -0.54151941551254        0.67175276366820
C           -1.08262931343259        0.27220145644370        0.44134095393595
C            0.20410965879087       -0.25304448201612        0.41228779289155
C            1.33871212021646        0.53096173413851        0.17164864616469
N            2.57914401905862       -0.04993285941618        0.17874898268548
C            3.81629617982952        0.68495961433314        0.34730043447622
C            4.53599003340635        0.86645838832226       -0.99816521793454
N            4.77600250861902       -0.40745174081801       -1.65258089944613
C            3.54451494127072       -1.15899184723775       -1.77361045481669
C            2.81490490409254       -1.34439401661415       -0.42633794846579
C            1.09778265955275        1.90890434034657       -0.02247150688082
F            2.12114690610384        2.75688746112442       -0.30453118984330
C           -0.15995359189372        2.44636778222355        0.02462804635202
C           -1.28230389153405        1.64943368671118        0.25419474197358
C           -2.61134170236239        2.28555334532162        0.28926010008202
O           -2.76259785407379        3.47403399583368        0.07191467881593
C           -2.02836510357958       -1.95634771476176        0.84063833599107
C           -1.60197758768936       -2.79280292347697       -0.33313714896470
C           -3.00394979922786       -2.88415770688606        0.18231334071414
H           -6.26630381700843        3.21287481851704        0.75760314645711
H           -4.21839770312060       -0.65755588015109        1.01594219365543
H            0.34263703106396       -1.30185998984655        0.60978971399324
H            4.45452803476945        0.08728125679121        1.01372541459858
H            3.63408250766075        1.64096412885049        0.83036131130199
H            3.91734940461470        1.47368775510887       -1.66373766172791
H            5.48968258366445        1.37490125758262       -0.85120857124382
H            5.45430016226376       -0.94357957080931       -1.11765714642964
H            2.88893320381218       -0.60814957833692       -2.45555956627202
H            3.76555364730223       -2.13338458952017       -2.21386692454072
H            3.43650616370625       -1.94372526856946        0.25153608772217
H            1.87695787788560       -1.86798917001381       -0.59831065117069
H           -0.30502567536431        3.50333510241182       -0.13789191342165
H           -1.65102102511558       -2.23154614378082        1.82162268980224
H           -1.44571173672331       -2.28762195676623       -1.27397846824440
H           -0.92480256343996       -3.61500449528807       -0.15806496929382
H           -3.30362444869643       -3.76779797567906        0.72372005242392
H           -3.78822824914513       -2.45527018313767       -0.42135726616435

 Bond Distances (Angstroems)
 ---------------------------
O1-C2=1.2136         C2-O1=1.2136         C2-O3=1.3297         C2-C4=1.4737         O3-C2=1.3297         O3-H25=0.9697        
C4-C2=1.4737         C4-C5=1.3626         C4-C20=1.4630        C5-C4=1.3626         C5-N6=1.3434         C5-H26=1.0820        
N6-C5=1.3434         N6-C7=1.3875         N6-C22=1.4332        C7-N6=1.3875         C7-C8=1.3901         C7-C19=1.4042        
C8-C7=1.3901         C8-C9=1.4000         C8-H27=1.0762        C9-C8=1.4000         C9-N10=1.3697        C9-C16=1.4123        
N10-C9=1.3697        N10-C11=1.4488       N10-C15=1.4482       C11-N10=1.4488       C11-C12=1.5366       C11-H28=1.0994       
C11-H29=1.0865       C12-C11=1.5366       C12-N13=1.4521       C12-H30=1.0929       C12-H31=1.0907       N13-C12=1.4521       
N13-C14=1.4478       N13-H32=1.0167       C14-N13=1.4478       C14-C15=1.5433       C14-H33=1.0947       C14-H34=1.0918       
C15-N10=1.4482       C15-C14=1.5433       C15-H35=1.0978       C15-H36=1.0879       C16-C9=1.4123        C16-F17=1.3586       
C16-C18=1.3686       F17-C16=1.3586       C18-C16=1.3686       C18-C19=1.3955       C18-H37=1.0792       C19-C7=1.4042        
C19-C18=1.3955       C19-C20=1.4738       C20-C4=1.4630        C20-C19=1.4738       C20-O21=1.2176       O21-C20=1.2176       
C22-N6=1.4332        C22-C23=1.5031       C22-C24=1.4987       C22-H38=1.0865       C23-C22=1.5031       C23-C24=1.4965       
C23-H39=1.0793       C23-H40=1.0795       C24-C22=1.4987       C24-C23=1.4965       C24-H41=1.0788       C24-H42=1.0786       
H25-O3=0.9697        H26-C5=1.0820        H27-C8=1.0762        H28-C11=1.0994       H29-C11=1.0865       H30-C12=1.0929       
H31-C12=1.0907       H32-N13=1.0167       H33-C14=1.0947       H34-C14=1.0918       H35-C15=1.0978       H36-C15=1.0879       
H37-C18=1.0792       H38-C22=1.0865       H39-C23=1.0793       H40-C23=1.0795       H41-C24=1.0788       H42-C24=1.0786       
 C  H  Rav=1.0864 sigma=0.0073  Rmin=1.0762  Rmax=1.0994    16
 C  C  Rav=1.4481 sigma=0.0587  Rmin=1.3626  Rmax=1.5433    15
 N  H  Rav=1.0167 sigma=0.0000  Rmin=1.0167  Rmax=1.0167     1
 N  C  Rav=1.4163 sigma=0.0402  Rmin=1.3434  Rmax=1.4521     8
 O  H  Rav=0.9697 sigma=0.0000  Rmin=0.9697  Rmax=0.9697     1
 O  C  Rav=1.2536 sigma=0.0538  Rmin=1.2136  Rmax=1.3297     3
 F  C  Rav=1.3586 sigma=0.0000  Rmin=1.3586  Rmax=1.3586     1

 selected bond angles (degree)
 --------------------
O3-C2-O1=122.12                C4-C2-O1=123.23                C4-C2-O3=114.65                H25-O3-C2=110.11               
C5-C4-C2=115.97                C20-C4-C2=123.30               C20-C4-C5=120.73               N6-C5-C4=124.99                
H26-C5-C4=118.43               H26-C5-N6=116.58               C7-N6-C5=119.43                C22-N6-C5=119.67               
C22-N6-C7=120.87               C8-C7-N6=121.05                C19-C7-N6=118.99               C19-C7-C8=119.96               
C9-C8-C7=122.83                H27-C8-C7=118.92               H27-C8-C9=118.23               N10-C9-C8=119.71               
C16-C9-C8=115.58               C16-C9-N10=124.68              C11-N10-C9=123.97              C15-N10-C9=121.62              
C15-N10-C11=111.28             

 selected dihedral angles (degree)
 ---------------------------------
H25-O3-C2-O1=359.39           H25-O3-C2-C4=179.47           C5-C4-C2-O1=356.91            C5-C4-C2-O3=176.82            
C20-C4-C2-O1=176.38           C20-C4-C2-O3=356.29           N6-C5-C4-C2=179.46            N6-C5-C4-C20=  0.00           
H26-C5-C4-C2=359.38           H26-C5-C4-C20=179.90          C7-N6-C5-C4=  3.46            C7-N6-C5-H26=183.54           
C22-N6-C5-C4=181.45           C22-N6-C5-H26=  1.53          C8-C7-N6-C5=175.79            C8-C7-N6-C22=357.81           
C19-C7-N6-C5=356.67           C19-C7-N6-C22=178.70          C9-C8-C7-N6=179.43            C9-C8-C7-C19=358.53           
H27-C8-C7-N6=357.66           H27-C8-C7-C19=176.77          N10-C9-C8-C7=178.95           N10-C9-C8-H27=  0.70          
C16-C9-C8-C7=  0.93           C16-C9-C8-H27=182.68          C11-N10-C9-C8=199.45          C11-N10-C9-C16= 17.28         
C15-N10-C9-C8= 41.18          C15-N10-C9-C16=219.01         
           -------------------------------------------------
          |                Final Singlepoint                |
           -------------------------------------------------

          ...................................................
          :                      SETUP                      :
          :.................................................:
          :  # basis functions                 114          :
          :  # atomic orbitals                 114          :
          :  # shells                           66          :
          :  # electrons                       126          :
          :  max. iterations                   250          :
          :  Hamiltonian                  GFN2-xTB          :
          :  restarted?                      false          :
          :  GBSA solvation                  false          :
          :  PC potential                    false          :
          :  electronic temp.          300.0000000     K    :
          :  accuracy                    1.0000000          :
          :  -> integral cutoff          0.2500000E+02      :
          :  -> integral neglect         0.1000000E-07      :
          :  -> SCF convergence          0.1000000E-05 Eh   :
          :  -> wf. convergence          0.1000000E-03 e    :
          :  Broyden damping             0.4000000          :
          :  net charge                          0          :
          :  unpaired electrons                  0          :
          ...................................................

 iter      E             dE          RMSdq      gap      omega  full diag
   1    -72.2026539 -0.722027E+02  0.128E-04    2.25       0.0  T
   2    -72.2026539 -0.148844E-09  0.873E-05    2.25     176.7  T
   3    -72.2026539 -0.151744E-09  0.488E-05    2.25     316.4  T

   *** convergence criteria satisfied after 3 iterations ***

         #    Occupation            Energy/Eh            Energy/eV
      -------------------------------------------------------------
         1        2.0000           -0.8167439             -22.2247
       ...           ...                  ...                  ...
        57        2.0000           -0.4380016             -11.9186
        58        2.0000           -0.4235507             -11.5254
        59        2.0000           -0.4108372             -11.1794
        60        2.0000           -0.3938432             -10.7170
        61        2.0000           -0.3838119             -10.4441
        62        2.0000           -0.3710662             -10.0972
        63        2.0000           -0.3547964              -9.6545 (HOMO)
        64                         -0.2722056              -7.4071 (LUMO)
        65                         -0.2590771              -7.0498
        66                         -0.2233783              -6.0784
        67                         -0.2014684              -5.4822
        68                         -0.1354528              -3.6859
       ...                                ...                  ...
       114                          0.7165496              19.4983
      -------------------------------------------------------------
                  HL-Gap            0.0825907 Eh            2.2474 eV
             Fermi-level           -0.3135010 Eh           -8.5308 eV

 SCC (total)                   0 d,  0 h,  0 min,  0.039 sec
 SCC setup                      ...        0 min,  0.000 sec (  0.800%)
 Dispersion                     ...        0 min,  0.000 sec (  0.782%)
 classical contributions        ...        0 min,  0.000 sec (  0.356%)
 integral evaluation            ...        0 min,  0.008 sec ( 20.041%)
 iterations                     ...        0 min,  0.007 sec ( 16.996%)
 molecular gradient             ...        0 min,  0.024 sec ( 60.616%)
 printout                       ...        0 min,  0.000 sec (  0.392%)

         :::::::::::::::::::::::::::::::::::::::::::::::::::::
         ::                     SUMMARY                     ::
         :::::::::::::::::::::::::::::::::::::::::::::::::::::
         :: total energy             -71.307558226196 Eh    ::
         :: gradient norm              0.000578795240 Eh/a0 ::
         :: HOMO-LUMO gap              2.247407863410 eV    ::
         ::.................................................::
         :: SCC energy               -72.202490430642 Eh    ::
         :: -> isotropic ES            0.108418063521 Eh    ::
         :: -> anisotropic ES          0.008280838626 Eh    ::
         :: -> anisotropic XC          0.018429050637 Eh    ::
         :: -> dispersion             -0.046644079919 Eh    ::
         :: repulsion energy           0.894932204445 Eh    ::
         :: add. restraining           0.000000000000 Eh    ::
         :: total charge               0.000000000000 e     ::
         :::::::::::::::::::::::::::::::::::::::::::::::::::::

           -------------------------------------------------
          |                Property Printout                |
           -------------------------------------------------

    * Orbital Energies and Occupations

         #    Occupation            Energy/Eh            Energy/eV
      -------------------------------------------------------------
         1        2.0000           -0.8167439             -22.2247
       ...           ...                  ...                  ...
        51        2.0000           -0.4630502             -12.6002
        52        2.0000           -0.4602634             -12.5244
        53        2.0000           -0.4577583             -12.4562
        54        2.0000           -0.4565015             -12.4220
        55        2.0000           -0.4533135             -12.3353
        56        2.0000           -0.4484170             -12.2020
        57        2.0000           -0.4380016             -11.9186
        58        2.0000           -0.4235507             -11.5254
        59        2.0000           -0.4108372             -11.1794
        60        2.0000           -0.3938432             -10.7170
        61        2.0000           -0.3838119             -10.4441
        62        2.0000           -0.3710662             -10.0972
        63        2.0000           -0.3547964              -9.6545 (HOMO)
        64                         -0.2722056              -7.4071 (LUMO)
        65                         -0.2590771              -7.0498
        66                         -0.2233783              -6.0784
        67                         -0.2014684              -5.4822
        68                         -0.1354528              -3.6859
        69                         -0.0963642              -2.6222
        70                         -0.0755698              -2.0564
        71                         -0.0301026              -0.8191
        72                         -0.0174338              -0.4744
        73                          0.0339910               0.9249
        74                          0.0400579               1.0900
       ...                                ...                  ...
       114                          0.7165496              19.4983
      -------------------------------------------------------------
                  HL-Gap            0.0825907 Eh            2.2474 eV
             Fermi-level           -0.3135010 Eh           -8.5308 eV

     #   Z          covCN         q      C6AA      α(0)
     1   8 O        0.857    -0.455    22.812     6.404
     2   6 C        2.705     0.359    20.906     7.484
     3   8 O        1.660    -0.349    19.881     6.019
     4   6 C        2.956    -0.079    29.980     8.981
     5   6 C        2.884     0.030    27.334     8.571
     6   7 N        2.745    -0.006    21.381     6.868
     7   6 C        2.934     0.051    26.859     8.499
     8   6 C        2.932    -0.091    30.278     9.024
     9   6 C        2.901     0.055    26.762     8.482
    10   7 N        2.739    -0.091    23.024     7.127
    11   6 C        3.755    -0.005    20.714     6.490
    12   6 C        3.753     0.003    20.581     6.469
    13   7 N        2.678    -0.254    26.590     7.658
    14   6 C        3.752     0.005    20.545     6.464
    15   6 C        3.756    -0.008    20.775     6.499
    16   6 C        2.782     0.137    24.989     8.188
    17   9 F        0.787    -0.235    11.604     4.024
    18   6 C        2.922    -0.041    29.010     8.833
    19   6 C        2.982    -0.043    29.049     8.841
    20   6 C        2.829     0.223    23.319     7.913
    21   8 O        0.857    -0.396    21.607     6.232
    22   6 C        3.811     0.028    20.092     6.380
    23   6 C        3.806    -0.068    21.800     6.647
    24   6 C        3.806    -0.070    21.834     6.652
    25   1 H        0.805     0.327     0.646     1.263
    26   1 H        0.925     0.083     1.946     2.181
    27   1 H        0.926     0.046     2.376     2.410
    28   1 H        0.923     0.032     2.557     2.501
    29   1 H        0.925     0.062     2.170     2.304
    30   1 H        0.924     0.056     2.250     2.346
    31   1 H        0.924     0.041     2.429     2.437
    32   1 H        0.860     0.136     1.501     1.919
    33   1 H        0.924     0.044     2.397     2.421
    34   1 H        0.924     0.038     2.471     2.458
    35   1 H        0.924     0.036     2.507     2.476
    36   1 H        0.925     0.045     2.388     2.417
    37   1 H        0.926     0.091     1.865     2.135
    38   1 H        0.925     0.048     2.344     2.394
    39   1 H        0.926     0.053     2.287     2.365
    40   1 H        0.926     0.047     2.363     2.404
    41   1 H        0.926     0.054     2.267     2.355
    42   1 H        0.926     0.060     2.200     2.320

 Mol. C6AA /au·bohr⁶  :      20021.927897
 Mol. C8AA /au·bohr⁸  :     469087.478267
 Mol. α(0) /au        :        215.853386


Wiberg/Mayer (AO) data.
largest (>0.10) Wiberg bond orders for each atom

 ---------------------------------------------------------------------------
     #   Z sym  total        # sym  WBO       # sym  WBO       # sym  WBO
 ---------------------------------------------------------------------------
     1   8 O    1.983 --     2 C    1.682     3 O    0.168
     2   6 C    3.919 --     1 O    1.682     3 O    1.150     4 C    1.031
     3   8 O    2.227 --     2 C    1.150    25 H    0.868     1 O    0.168
     4   6 C    3.970 --     5 C    1.545    20 C    1.079     2 C    1.031
     5   6 C    3.961 --     4 C    1.545     6 N    1.265    26 H    0.951
     6   7 N    3.619 --     5 C    1.265     7 C    1.099    22 C    0.982
     7   6 C    3.962 --     8 C    1.378    19 C    1.293     6 N    1.099
     8   6 C    3.970 --     7 C    1.378     9 C    1.349    27 H    0.958
     9   6 C    3.977 --     8 C    1.349    16 C    1.255    10 N    1.179
    10   7 N    3.401 --     9 C    1.179    11 C    0.993    15 C    0.992
    11   6 C    3.975 --    10 N    0.993    12 C    0.983    29 H    0.970
                            28 H    0.966
    12   6 C    3.982 --    13 N    1.017    11 C    0.983    31 H    0.974
                            30 H    0.970
    13   7 N    3.080 --    14 C    1.024    12 C    1.017    32 H    0.957
    14   6 C    3.985 --    13 N    1.024    15 C    0.976    34 H    0.973
                            33 H    0.972
    15   6 C    3.977 --    10 N    0.992    14 C    0.976    35 H    0.969
                            36 H    0.968
    16   6 C    3.873 --    18 C    1.474     9 C    1.255    17 F    0.943
    17   9 F    1.070 --    16 C    0.943
    18   6 C    3.983 --    16 C    1.474    19 C    1.344    37 H    0.957
    19   6 C    3.975 --    18 C    1.344     7 C    1.293    20 C    1.054
    20   6 C    3.954 --    21 O    1.716     4 C    1.079    19 C    1.054
    21   8 O    2.023 --    20 C    1.716
    22   6 C    3.920 --     6 N    0.982    24 C    0.974    23 C    0.963
                            38 H    0.959
    23   6 C    3.940 --    24 C    0.984    40 H    0.980    39 H    0.979
                            22 C    0.963
    24   6 C    3.943 --    23 C    0.984    41 H    0.979    42 H    0.976
                            22 C    0.974
    25   1 H    0.893 --     3 O    0.868
    26   1 H    0.992 --     5 C    0.951
    27   1 H    0.997 --     8 C    0.958
    28   1 H    0.997 --    11 C    0.966
    29   1 H    0.996 --    11 C    0.970
    30   1 H    0.997 --    12 C    0.970
    31   1 H    0.998 --    12 C    0.974
    32   1 H    0.981 --    13 N    0.957
    33   1 H    0.998 --    14 C    0.972
    34   1 H    0.997 --    14 C    0.973
    35   1 H    0.997 --    15 C    0.969
    36   1 H    0.998 --    15 C    0.968
    37   1 H    0.991 --    18 C    0.957
    38   1 H    0.995 --    22 C    0.959
    39   1 H    0.997 --    23 C    0.979
    40   1 H    0.997 --    23 C    0.980
    41   1 H    0.997 --    24 C    0.979
    42   1 H    0.996 --    24 C    0.976
 ---------------------------------------------------------------------------

Topologies differ in total number of bonds
Writing topology from bond orders to xtbtopo.mol

molecular dipole:
                 x           y           z       tot (Debye)
 q only:        1.908      -2.849       0.107
   full:        1.745      -3.140       0.494       9.215
molecular quadrupole (traceless):
                xx          xy          yy          xz          yz          zz
 q only:       -5.283       7.668      -1.550       4.342       1.017       6.833
  q+dip:       -3.110       3.448      -2.138       9.595      -0.841       5.249
   full:       -4.575       4.363      -3.747       9.726       0.919       8.321

           -------------------------------------------------
          |                Geometry Summary                 |
           -------------------------------------------------

      molecular mass/u    :      331.3421713
   center of mass at/Å    :       -0.5369704       0.5573718       0.0750766
  moments of inertia/u·Å² :        0.1089832E+04   0.3703609E+04   0.4630504E+04
rotational constants/cm⁻¹ :        0.1546810E-01   0.4551677E-02   0.3640561E-02

 * 40 selected distances

     #   Z          #   Z                                           value/Å
     1   8 O        2   6 C                                       1.2136342
     2   6 C        3   8 O                                       1.3296595
     4   6 C        5   6 C                                       1.3626244
     5   6 C        6   7 N                                       1.3433873
     6   7 N        7   6 C                                       1.3875420
     7   6 C        8   6 C                                       1.3901169
     8   6 C        9   6 C                                       1.3999629
     9   6 C       10   7 N                                       1.3697301
    10   7 N       11   6 C                                       1.4488003
    11   6 C       12   6 C                                       1.5366129 (max)
    12   6 C       13   7 N                                       1.4521409
    13   7 N       14   6 C                                       1.4477647
    10   7 N       15   6 C                                       1.4482208
     9   6 C       16   6 C                                       1.4122520
    16   6 C       18   6 C                                       1.3685708
     7   6 C       19   6 C                                       1.4041590
    18   6 C       19   6 C                                       1.3955198
    20   6 C       21   8 O                                       1.2176223
     6   7 N       22   6 C                                       1.4332010
    22   6 C       23   6 C                                       1.5030678
    22   6 C       24   6 C                                       1.4986624
    23   6 C       24   6 C                                       1.4965164
     3   8 O       25   1 H                                       0.9696964 (min)
     5   6 C       26   1 H                                       1.0820089
     8   6 C       27   1 H                                       1.0762021
    11   6 C       28   1 H                                       1.0994007
    11   6 C       29   1 H                                       1.0865056
    12   6 C       30   1 H                                       1.0929001
    12   6 C       31   1 H                                       1.0907062
    13   7 N       32   1 H                                       1.0166929
    14   6 C       33   1 H                                       1.0946549
    14   6 C       34   1 H                                       1.0918449
    15   6 C       35   1 H                                       1.0977702
    15   6 C       36   1 H                                       1.0878747
    18   6 C       37   1 H                                       1.0791843
    22   6 C       38   1 H                                       1.0864867
    23   6 C       39   1 H                                       1.0792634
    23   6 C       40   1 H                                       1.0794591
    24   6 C       41   1 H                                       1.0787708
    24   6 C       42   1 H                                       1.0786360

 * 6 distinct bonds (by element types)

   Z      Z             #   av. dist./Å        max./Å        min./Å
   1 H    6 C          16     1.0863543     1.0994007     1.0762021
   6 C    6 C          11     1.4334605     1.5366129     1.3626244
   1 H    7 N           1     1.0166929     1.0166929     1.0166929
   6 C    7 N           8     1.4163484     1.4521409     1.3433873
   1 H    8 O           1     0.9696964     0.9696964     0.9696964
   6 C    8 O           3     1.2536387     1.3296595     1.2136342


optimized geometry written to: xtbopt.xyz


           -------------------------------------------------
          | TOTAL ENERGY              -71.307558226196 Eh   |
          | GRADIENT NORM               0.000578795240 Eh/α |
          | HOMO-LUMO GAP               2.247407863410 eV   |
           -------------------------------------------------

------------------------------------------------------------------------
 * finished run on 2025/05/15 at 16:14:27.043     
------------------------------------------------------------------------
 total:
 * wall-time:     0 d,  0 h,  0 min,  2.304 sec
 *  cpu-time:     0 d,  0 h,  0 min,  1.418 sec
 * ratio c/w:     0.615 speedup
 SCF:
 * wall-time:     0 d,  0 h,  0 min,  0.091 sec
 *  cpu-time:     0 d,  0 h,  0 min,  0.060 sec
 * ratio c/w:     0.656 speedup
 ANC optimizer:
 * wall-time:     0 d,  0 h,  0 min,  2.198 sec
 *  cpu-time:     0 d,  0 h,  0 min,  1.346 sec
 * ratio c/w:     0.612 speedup



----- Single-point -----
      -----------------------------------------------------------      
     |                   =====================                   |     
     |                           x T B                           |     
     |                   =====================                   |     
     |                         S. Grimme                         |     
     |          Mulliken Center for Theoretical Chemistry        |     
     |                    University of Bonn                     |     
      -----------------------------------------------------------      

   * xtb version 6.7.1 (edcfbbe) compiled by 'conda@3ef47c1a292c' on 2024-11-25

   xtb is free software: you can redistribute it and/or modify it under
   the terms of the GNU Lesser General Public License as published by
   the Free Software Foundation, either version 3 of the License, or
   (at your option) any later version.
   
   xtb is distributed in the hope that it will be useful,
   but WITHOUT ANY WARRANTY; without even the implied warranty of
   MERCHANTABILITY or FITNESS FOR A PARTICULAR PURPOSE.  See the
   GNU Lesser General Public License for more details.
   
   Cite this work as:
   * C. Bannwarth, E. Caldeweyher, S. Ehlert, A. Hansen, P. Pracht,
     J. Seibert, S. Spicher, S. Grimme, WIREs Comput. Mol. Sci., 2020, 11,
     e01493. DOI: 10.1002/wcms.1493
   
   for GFN2-xTB:
   * C. Bannwarth, S. Ehlert and S. Grimme., J. Chem. Theory Comput., 2019,
     15, 1652-1671. DOI: 10.1021/acs.jctc.8b01176
   for GFN1-xTB:
   * S. Grimme, C. Bannwarth, P. Shushkov, J. Chem. Theory Comput., 2017,
     13, 1989-2009. DOI: 10.1021/acs.jctc.7b00118
   for GFN0-xTB:
   * P. Pracht, E. Caldeweyher, S. Ehlert, S. Grimme, ChemRxiv, 2019, preprint.
     DOI: 10.26434/chemrxiv.8326202.v1
   for GFN-FF:
   * S. Spicher and S. Grimme, Angew. Chem. Int. Ed., 2020, 59, 15665-15673.
     DOI: 10.1002/anie.202004239
   
   for ALPB and GBSA implicit solvation:
   * S. Ehlert, M. Stahn, S. Spicher, S. Grimme, J. Chem. Theory Comput.,
     2021, 17, 4250-4261. DOI: 10.1021/acs.jctc.1c00471
   
   for ddCOSMO and CPCM-X implicit solvation:
   * M. Stahn, S. Ehlert, S. Grimme, J. Phys. Chem. A,
     2023, XX, XXXX-XXXX. DOI: 10.1021/acs.jpca.3c04382
   
   for DFT-D4:
   * E. Caldeweyher, C. Bannwarth and S. Grimme, J. Chem. Phys., 2017,
     147, 034112. DOI: 10.1063/1.4993215
   * E. Caldeweyher, S. Ehlert, A. Hansen, H. Neugebauer, S. Spicher,
     C. Bannwarth and S. Grimme, J. Chem. Phys., 2019, 150, 154122.
     DOI: 10.1063/1.5090222
   * E. Caldeweyher, J.-M. Mewes, S. Ehlert and S. Grimme, Phys. Chem. Chem. Phys.
     2020, 22, 8499-8512. DOI: 10.1039/D0CP00502A
   
   for sTDA-xTB:
   * S. Grimme and C. Bannwarth, J. Chem. Phys., 2016, 145, 054103.
     DOI: 10.1063/1.4959605
   
   in the mass-spec context:
   * V. Asgeirsson, C. Bauer and S. Grimme, Chem. Sci., 2017, 8, 4879.
     DOI: 10.1039/c7sc00601b
   * J. Koopman and S. Grimme, ACS Omega 2019, 4, 12, 15120-15133.
     DOI: 10.1021/acsomega.9b02011
   
   for metadynamics refer to:
   * S. Grimme, J. Chem. Theory Comput., 2019, 155, 2847-2862
     DOI: 10.1021/acs.jctc.9b00143
   
   for SPH calculations refer to:
   * S. Spicher and S. Grimme, J. Chem. Theory Comput., 2021, 17, 1701-1714
     DOI: 10.1021/acs.jctc.0c01306
   
   for ONIOM refer to:
   * C. Plett, A. Katbashev, S. Ehlert, S. Grimme, M. Bursch,
     Phys. Chem. Chem. Phys., 2023, 25, 17860-17868. DOI: 10.1039/D3CP02178E
   
   for DIPRO refer to:
   * J. Kohn, N. Gildemeister, S. Grimme, D. Fazzi, A. Hansen,
     J. Chem. Phys., 2023, just accepted.
   
   for PTB refer to:
   * S. Grimme, M. Mueller, A. Hansen, J. Chem. Phys., 2023, 158, 124111.
     DOI: 10.1063/5.0137838
   
   with help from (in alphabetical order)
   P. Atkinson, C. Bannwarth, F. Bohle, G. Brandenburg, E. Caldeweyher
   M. Checinski, S. Dohm, S. Ehlert, S. Ehrlich, I. Gerasimov, C. Hölzer
   A. Katbashev, J. Kohn, J. Koopman, C. Lavigne, S. Lehtola, F. März, M. Müller,
   F. Musil, H. Neugebauer, J. Pisarek, C. Plett, P. Pracht, F. Pultar,
   J. Seibert, P. Shushkov, S. Spicher, M. Stahn, M. Steiner, T. Strunk,
   J. Stückrath, T. Rose, and J. Unsleber
   
 * started run on 2025/05/15 at 16:14:27.079     
   ID    Z sym.   atoms
    1    8 O      1, 3, 21
    2    6 C      2, 4, 5, 7-9, 11, 12, 14-16, 18-20, 22-24
    3    7 N      6, 10, 13
    4    9 F      17
    5    1 H      25-42

           -------------------------------------------------
          |                Calculation Setup                |
           -------------------------------------------------

          program call               : xtb /rds/general/user/hgt20/home/callum/QDESCP/Ciprofloxacin_rdkit_conf_19/Ciprofloxacin_rdkit_conf_19.xyz --acc 1 --gfn 2 --chrg 0 --uhf 0 --etemp 300 --input /rds/general/user/hgt20/home/callum/QDESCP/Ciprofloxacin_rdkit_conf_19/Ciprofloxacin_rdkit_conf_19_xtb.inp -P 1
          hostname                   : login-c
          coordinate file            : /rds/general/user/hgt20/home/callum/QDESCP/Ciprofloxacin_rdkit_conf_19/Ciprofloxacin_rdkit_conf_19.xyz
          omp threads                :                     1


           -------------------------------------------------
          |                 G F N 2 - x T B                 |
           -------------------------------------------------

        Reference                      10.1021/acs.jctc.8b01176
      * Hamiltonian:
        H0-scaling (s, p, d)           1.850000    2.230000    2.230000
        zeta-weighting                 0.500000
      * Dispersion:
        s8                             2.700000
        a1                             0.520000
        a2                             5.000000
        s9                             5.000000
      * Repulsion:
        kExp                           1.500000    1.000000
        rExp                           1.000000
      * Coulomb:
        alpha                          2.000000
        third order                    shell-resolved
        anisotropic                    true
        a3                             3.000000
        a5                             4.000000
        cn-shift                       1.200000
        cn-exp                         4.000000
        max-rad                        5.000000

q/qsh data taken from xtbrestart
CAMM data taken from xtbrestart

          ...................................................
          :                      SETUP                      :
          :.................................................:
          :  # basis functions                 114          :
          :  # atomic orbitals                 114          :
          :  # shells                           66          :
          :  # electrons                       126          :
          :  max. iterations                   250          :
          :  Hamiltonian                  GFN2-xTB          :
          :  restarted?                       true          :
          :  GBSA solvation                  false          :
          :  PC potential                    false          :
[...]
     DOI: 10.1002/anie.202004239
   
   for ALPB and GBSA implicit solvation:
   * S. Ehlert, M. Stahn, S. Spicher, S. Grimme, J. Chem. Theory Comput.,
     2021, 17, 4250-4261. DOI: 10.1021/acs.jctc.1c00471
   
   for ddCOSMO and CPCM-X implicit solvation:
   * M. Stahn, S. Ehlert, S. Grimme, J. Phys. Chem. A,
     2023, XX, XXXX-XXXX. DOI: 10.1021/acs.jpca.3c04382
   
   for DFT-D4:
   * E. Caldeweyher, C. Bannwarth and S. Grimme, J. Chem. Phys., 2017,
     147, 034112. DOI: 10.1063/1.4993215
   * E. Caldeweyher, S. Ehlert, A. Hansen, H. Neugebauer, S. Spicher,
     C. Bannwarth and S. Grimme, J. Chem. Phys., 2019, 150, 154122.
     DOI: 10.1063/1.5090222
   * E. Caldeweyher, J.-M. Mewes, S. Ehlert and S. Grimme, Phys. Chem. Chem. Phys.
     2020, 22, 8499-8512. DOI: 10.1039/D0CP00502A
   
   for sTDA-xTB:
   * S. Grimme and C. Bannwarth, J. Chem. Phys., 2016, 145, 054103.
     DOI: 10.1063/1.4959605
   
   in the mass-spec context:
   * V. Asgeirsson, C. Bauer and S. Grimme, Chem. Sci., 2017, 8, 4879.
     DOI: 10.1039/c7sc00601b
   * J. Koopman and S. Grimme, ACS Omega 2019, 4, 12, 15120-15133.
     DOI: 10.1021/acsomega.9b02011
   
   for metadynamics refer to:
   * S. Grimme, J. Chem. Theory Comput., 2019, 155, 2847-2862
     DOI: 10.1021/acs.jctc.9b00143
   
   for SPH calculations refer to:
   * S. Spicher and S. Grimme, J. Chem. Theory Comput., 2021, 17, 1701-1714
     DOI: 10.1021/acs.jctc.0c01306
   
   for ONIOM refer to:
   * C. Plett, A. Katbashev, S. Ehlert, S. Grimme, M. Bursch,
     Phys. Chem. Chem. Phys., 2023, 25, 17860-17868. DOI: 10.1039/D3CP02178E
   
   for DIPRO refer to:
   * J. Kohn, N. Gildemeister, S. Grimme, D. Fazzi, A. Hansen,
     J. Chem. Phys., 2023, just accepted.
   
   for PTB refer to:
   * S. Grimme, M. Mueller, A. Hansen, J. Chem. Phys., 2023, 158, 124111.
     DOI: 10.1063/5.0137838
   
   with help from (in alphabetical order)
   P. Atkinson, C. Bannwarth, F. Bohle, G. Brandenburg, E. Caldeweyher
   M. Checinski, S. Dohm, S. Ehlert, S. Ehrlich, I. Gerasimov, C. Hölzer
   A. Katbashev, J. Kohn, J. Koopman, C. Lavigne, S. Lehtola, F. März, M. Müller,
   F. Musil, H. Neugebauer, J. Pisarek, C. Plett, P. Pracht, F. Pultar,
   J. Seibert, P. Shushkov, S. Spicher, M. Stahn, M. Steiner, T. Strunk,
   J. Stückrath, T. Rose, and J. Unsleber
   
 * started run on 2025/05/15 at 16:14:29.140     
   ID    Z sym.   atoms
    1    8 O      1, 3, 21
    2    6 C      2, 4, 5, 7-9, 11, 12, 14-16, 18-20, 22-24
    3    7 N      6, 10, 13
    4    9 F      17
    5    1 H      25-42

           -------------------------------------------------
          |                Calculation Setup                |
           -------------------------------------------------

          program call               : xtb /rds/general/user/hgt20/home/callum/QDESCP/Ciprofloxacin_rdkit_conf_19/Ciprofloxacin_rdkit_conf_19.xyz --acc 1 --gfn 2 --chrg 0 --uhf 2 --etemp 300 --input /rds/general/user/hgt20/home/callum/QDESCP/Ciprofloxacin_rdkit_conf_19/Ciprofloxacin_rdkit_conf_19_xtb.inp -P 1
          hostname                   : login-c
          coordinate file            : /rds/general/user/hgt20/home/callum/QDESCP/Ciprofloxacin_rdkit_conf_19/Ciprofloxacin_rdkit_conf_19.xyz
          omp threads                :                     1


           -------------------------------------------------
          |                 G F N 2 - x T B                 |
           -------------------------------------------------

        Reference                      10.1021/acs.jctc.8b01176
      * Hamiltonian:
        H0-scaling (s, p, d)           1.850000    2.230000    2.230000
        zeta-weighting                 0.500000
      * Dispersion:
        s8                             2.700000
        a1                             0.520000
        a2                             5.000000
        s9                             5.000000
      * Repulsion:
        kExp                           1.500000    1.000000
        rExp                           1.000000
      * Coulomb:
        alpha                          2.000000
        third order                    shell-resolved
        anisotropic                    true
        a3                             3.000000
        a5                             4.000000
        cn-shift                       1.200000
        cn-exp                         4.000000
        max-rad                        5.000000


          ...................................................
          :                      SETUP                      :
          :.................................................:
          :  # basis functions                 114          :
          :  # atomic orbitals                 114          :
          :  # shells                           66          :
          :  # electrons                       126          :
          :  max. iterations                   250          :
          :  Hamiltonian                  GFN2-xTB          :
          :  restarted?                      false          :
          :  GBSA solvation                  false          :
          :  PC potential                    false          :
          :  electronic temp.          300.0000000     K    :
          :  accuracy                    1.0000000          :
          :  -> integral cutoff          0.2500000E+02      :
          :  -> integral neglect         0.1000000E-07      :
          :  -> SCF convergence          0.1000000E-05 Eh   :
          :  -> wf. convergence          0.1000000E-03 e    :
          :  Broyden damping             0.4000000          :
          :  net charge                          0          :
          :  unpaired electrons                  2          :
          ...................................................

 iter      E             dE          RMSdq      gap      omega  full diag
   1    -71.8186650 -0.718187E+02  0.397E+00    0.21       0.0  T
   2    -71.8229354 -0.427041E-02  0.314E+00    0.17       1.0  T
   3    -71.9532087 -0.130273E+00  0.227E+00    0.65       1.0  T
   4    -71.9849517 -0.317431E-01  0.144E+00    0.32       1.0  T
   5    -71.9799136  0.503819E-02  0.127E+00    0.25       1.0  T
   6    -72.0856795 -0.105766E+00  0.559E-01    0.27       1.0  T
   7    -72.0982822 -0.126027E-01  0.189E-01    0.17       1.0  T
   8    -72.0936920  0.459019E-02  0.266E-01    0.14       1.0  T
   9    -72.0769556  0.167363E-01  0.543E-01    0.16       1.0  T
  10    -72.0983000 -0.213444E-01  0.998E-02    0.15       1.0  T
  11    -72.0980443  0.255738E-03  0.120E-01    0.14       1.0  T
  12    -72.0992174 -0.117309E-02  0.102E-02    0.14       1.5  T
  13    -72.0992218 -0.445045E-05  0.409E-03    0.14       3.8  T
  14    -72.0991792  0.426191E-04  0.231E-02    0.14       1.0  T
  15    -72.0992221 -0.428390E-04  0.209E-03    0.14       7.4  T
  16    -72.0992218  0.231661E-06  0.236E-03    0.14       6.5  T
  17    -72.0992222 -0.402069E-06  0.847E-04    0.14      18.2  T
  18    -72.0992223 -0.546778E-07  0.231E-04    0.14      66.9  T

   *** convergence criteria satisfied after 18 iterations ***

         #    Occupation            Energy/Eh            Energy/eV
      -------------------------------------------------------------
         1        2.0000           -0.8137533             -22.1434
       ...           ...                  ...                  ...
        58        2.0000           -0.4095470             -11.1443
        59        2.0000           -0.4070679             -11.0769
        60        2.0000           -0.4002044             -10.8901
        61        1.9775           -0.3720686             -10.1245
        62        1.5342           -0.3686153             -10.0305
        63        1.4883           -0.3684405             -10.0258
        64        0.9407           -0.2540117              -6.9120 (HOMO)
        65        0.0593           -0.2487588              -6.7691 (LUMO)
        66                         -0.2073419              -5.6421
        67                         -0.1919554              -5.2234
        68                         -0.1220078              -3.3200
        69                         -0.0834448              -2.2706
       ...                                ...                  ...
       114                          0.7278131              19.8048
      -------------------------------------------------------------
                  HL-Gap            0.0052528 Eh            0.1429 eV
             Fermi-level           -0.3099352 Eh           -8.4338 eV

 transition dipole moment (au) for excitation:          63          64
     X       Y       Z   
  -1.4755   0.2642   0.1552  total (au/Debye):    1.507   3.830
 dE (eV)             :    3.114
 oscillator strength :  0.24501E+00

 SCC (total)                   0 d,  0 h,  0 min,  0.103 sec
 SCC setup                      ...        0 min,  0.000 sec (  0.379%)
 Dispersion                     ...        0 min,  0.000 sec (  0.467%)
 classical contributions        ...        0 min,  0.000 sec (  0.143%)
 integral evaluation            ...        0 min,  0.008 sec (  7.910%)
 iterations                     ...        0 min,  0.040 sec ( 38.662%)
 molecular gradient             ...        0 min,  0.025 sec ( 24.775%)
 printout                       ...        0 min,  0.028 sec ( 27.658%)

         :::::::::::::::::::::::::::::::::::::::::::::::::::::
         ::                     SUMMARY                     ::
         :::::::::::::::::::::::::::::::::::::::::::::::::::::
         :: total energy             -71.204126581503 Eh    ::
         :: gradient norm              0.089193944997 Eh/a0 ::
         :: HOMO-LUMO gap              0.142937278761 eV    ::
         ::.................................................::
         :: SCC energy               -72.099058785949 Eh    ::
         :: -> isotropic ES            0.103596030101 Eh    ::
         :: -> anisotropic ES          0.007061581924 Eh    ::
         :: -> anisotropic XC          0.016114497557 Eh    ::
         :: -> dispersion             -0.046620533682 Eh    ::
         :: repulsion energy           0.894932204445 Eh    ::
         :: add. restraining           0.000000000000 Eh    ::
         :: total charge               0.000000000038 e     ::
         :::::::::::::::::::::::::::::::::::::::::::::::::::::

           -------------------------------------------------
          |                Property Printout                |
           -------------------------------------------------

    * Orbital Energies and Occupations

         #    Occupation            Energy/Eh            Energy/eV
      -------------------------------------------------------------
         1        2.0000           -0.8137533             -22.1434
       ...           ...                  ...                  ...
        52        2.0000           -0.4567530             -12.4289
        53        2.0000           -0.4512939             -12.2803
        54        2.0000           -0.4485139             -12.2047
        55        2.0000           -0.4445004             -12.0955
        56        2.0000           -0.4398149             -11.9680
        57        2.0000           -0.4319494             -11.7539
        58        2.0000           -0.4095470             -11.1443
        59        2.0000           -0.4070679             -11.0769
        60        2.0000           -0.4002044             -10.8901
        61        1.9775           -0.3720686             -10.1245
        62        1.5342           -0.3686153             -10.0305
        63        1.4883           -0.3684405             -10.0258
        64        0.9407           -0.2540117              -6.9120 (HOMO)
        65        0.0593           -0.2487588              -6.7691 (LUMO)
        66                         -0.2073419              -5.6421
        67                         -0.1919554              -5.2234
        68                         -0.1220078              -3.3200
        69                         -0.0834448              -2.2706
        70                         -0.0624405              -1.6991
        71                         -0.0343679              -0.9352
        72                         -0.0082203              -0.2237
        73                          0.0181666               0.4943
        74                          0.0381765               1.0388
        75                          0.0455059               1.2383
       ...                                ...                  ...
       114                          0.7278131              19.8048
      -------------------------------------------------------------
                  HL-Gap            0.0052528 Eh            0.1429 eV
             Fermi-level           -0.3099352 Eh           -8.4338 eV

     #   Z          covCN         q      C6AA      α(0)
     1   8 O        0.857    -0.454    22.791     6.401
     2   6 C        2.705     0.356    20.952     7.492
     3   8 O        1.660    -0.359    20.075     6.049
     4   6 C        2.956    -0.074    29.836     8.959
     5   6 C        2.884    -0.007    28.184     8.703
     6   7 N        2.745    -0.024    21.717     6.921
     7   6 C        2.934     0.053    26.804     8.491
     8   6 C        2.932    -0.104    30.613     9.074
     9   6 C        2.901     0.028    27.374     8.579
    10   7 N        2.739    -0.057    22.340     7.020
    11   6 C        3.755    -0.007    20.756     6.496
    12   6 C        3.753     0.001    20.628     6.477
    13   7 N        2.678    -0.223    25.877     7.555
    14   6 C        3.752     0.002    20.605     6.473
    15   6 C        3.756    -0.011    20.827     6.507
    16   6 C        2.782     0.136    25.015     8.192
    17   9 F        0.787    -0.241    11.672     4.036
    18   6 C        2.922    -0.074    29.850     8.960
    19   6 C        2.982    -0.017    28.436     8.747
    20   6 C        2.829     0.196    23.827     7.999
    21   8 O        0.857    -0.356    20.821     6.118
    22   6 C        3.811     0.031    20.037     6.372
    23   6 C        3.806    -0.069    21.821     6.650
    24   6 C        3.806    -0.069    21.820     6.650
    25   1 H        0.805     0.325     0.651     1.267
    26   1 H        0.925     0.070     2.087     2.259
    27   1 H        0.926     0.035     2.513     2.479
    28   1 H        0.923     0.041     2.431     2.438
    29   1 H        0.925     0.077     2.007     2.215
    30   1 H        0.924     0.069     2.099     2.266
    31   1 H        0.924     0.053     2.283     2.363
    32   1 H        0.860     0.148     1.413     1.862
    33   1 H        0.924     0.057     2.237     2.339
    34   1 H        0.924     0.050     2.324     2.384
    35   1 H        0.924     0.044     2.390     2.418
    36   1 H        0.925     0.061     2.182     2.310
    37   1 H        0.926     0.073     2.048     2.238
    38   1 H        0.925     0.041     2.435     2.440
    39   1 H        0.926     0.049     2.332     2.388
    40   1 H        0.926     0.040     2.453     2.449
    41   1 H        0.926     0.050     2.325     2.384
    42   1 H        0.926     0.059     2.205     2.322

 Mol. C6AA /au·bohr⁶  :      19995.599773
 Mol. C8AA /au·bohr⁸  :     469031.671046
 Mol. α(0) /au        :        215.741483


Wiberg/Mayer (AO) data.
largest (>0.10) Wiberg bond orders for each atom

 ---------------------------------------------------------------------------
     #   Z sym  total        # sym  WBO       # sym  WBO       # sym  WBO
 ---------------------------------------------------------------------------
     1   8 O    1.959 --     2 C    1.660     3 O    0.158
     2   6 C    3.894 --     1 O    1.660     3 O    1.136     4 C    1.037
     3   8 O    2.206 --     2 C    1.136    25 H    0.869     1 O    0.158
     4   6 C    3.868 --     5 C    1.454    20 C    1.079     2 C    1.037
     5   6 C    3.872 --     4 C    1.454     6 N    1.192    26 H    0.949
     6   7 N    3.560 --     5 C    1.192     7 C    1.111    22 C    0.988
     7   6 C    3.946 --     8 C    1.385    19 C    1.270     6 N    1.111
     8   6 C    3.869 --     7 C    1.385     9 C    1.234    27 H    0.957
     9   6 C    3.902 --    16 C    1.292     8 C    1.234    10 N    1.142
    10   7 N    3.314 --     9 C    1.142    11 C    1.009    15 C    1.006
    11   6 C    3.960 --    10 N    1.009    29 H    0.967    28 H    0.962
                            12 C    0.961
    12   6 C    3.960 --    13 N    1.023    31 H    0.971    30 H    0.968
                            11 C    0.961
    13   7 N    3.107 --    14 C    1.031    12 C    1.023    32 H    0.952
    14   6 C    3.964 --    13 N    1.031    34 H    0.971    33 H    0.970
                            15 C    0.956
    15   6 C    3.961 --    10 N    1.006    35 H    0.965    36 H    0.964
                            14 C    0.956
    16   6 C    3.804 --    18 C    1.396     9 C    1.292    17 F    0.937
    17   9 F    1.056 --    16 C    0.937
    18   6 C    3.920 --    16 C    1.396    19 C    1.283    37 H    0.961
    19   6 C    3.829 --    18 C    1.283     7 C    1.270    20 C    1.045
    20   6 C    3.884 --    21 O    1.560     4 C    1.079    19 C    1.045
    21   8 O    1.855 --    20 C    1.560
    22   6 C    3.925 --     6 N    0.988    24 C    0.975    23 C    0.962
                            38 H    0.959
    23   6 C    3.939 --    24 C    0.983    40 H    0.980    39 H    0.979
                            22 C    0.962
    24   6 C    3.943 --    23 C    0.983    41 H    0.980    42 H    0.976
                            22 C    0.975
    25   1 H    0.892 --     3 O    0.869
    26   1 H    0.987 --     5 C    0.949
    27   1 H    0.997 --     8 C    0.957
    28   1 H    0.990 --    11 C    0.962
    29   1 H    0.993 --    11 C    0.967
    30   1 H    0.994 --    12 C    0.968
    31   1 H    0.995 --    12 C    0.971
    32   1 H    0.977 --    13 N    0.952
    33   1 H    0.996 --    14 C    0.970
    34   1 H    0.994 --    14 C    0.971
    35   1 H    0.992 --    15 C    0.965
    36   1 H    0.995 --    15 C    0.964
    37   1 H    0.993 --    18 C    0.961
    38   1 H    0.995 --    22 C    0.959
    39   1 H    0.998 --    23 C    0.979
    40   1 H    0.998 --    23 C    0.980
    41   1 H    0.997 --    24 C    0.980
    42   1 H    0.996 --    24 C    0.976
 ---------------------------------------------------------------------------

Topologies differ in total number of bonds
Writing topology from bond orders to xtbtopo.mol

molecular dipole:
                 x           y           z       tot (Debye)
 q only:        3.410      -2.918      -0.271
   full:        3.309      -3.166       0.079      11.641
molecular quadrupole (traceless):
                xx          xy          yy          xz          yz          zz
 q only:       -0.243       5.701      -5.070       2.834       1.674       5.313
  q+dip:        2.325       0.747      -5.658       7.764      -0.133       3.332
   full:        1.271       1.668      -7.081       7.682       1.402       5.810


           -------------------------------------------------
          | TOTAL ENERGY              -71.204126581503 Eh   |
          | GRADIENT NORM               0.089193944997 Eh/α |
          | HOMO-LUMO GAP               0.142937278761 eV   |
           -------------------------------------------------

------------------------------------------------------------------------
 * finished run on 2025/05/15 at 16:14:29.293     
------------------------------------------------------------------------
 total:
 * wall-time:     0 d,  0 h,  0 min,  0.153 sec
 *  cpu-time:     0 d,  0 h,  0 min,  0.094 sec
 * ratio c/w:     0.613 speedup
 SCF:
 * wall-time:     0 d,  0 h,  0 min,  0.103 sec
 *  cpu-time:     0 d,  0 h,  0 min,  0.081 sec
 * ratio c/w:     0.792 speedup


