42
 energy: -71.307558226196 gnorm: 0.000578795240 xtb: 6.7.1 (edcfbbe)
O           -5.98213996318763        0.92837670642838        0.96352136626549
C           -5.09012922633496        1.72581206012107        0.76024442335122
O           -5.31900904986708        3.03156838714025        0.65724648218560
C           -3.67692639363255        1.33577620985473        0.61011688419805
C           -3.40224786492848        0.01168802103391        0.77770892115362
N           -2.18264798732562       -0.54151941551254        0.67175276366820
C           -1.08262931343259        0.27220145644370        0.44134095393595
C            0.20410965879087       -0.25304448201612        0.41228779289155
C            1.33871212021646        0.53096173413851        0.17164864616469
N            2.57914401905862       -0.04993285941618        0.17874898268548
C            3.81629617982952        0.68495961433314        0.34730043447622
C            4.53599003340635        0.86645838832226       -0.99816521793454
N            4.77600250861902       -0.40745174081801       -1.65258089944613
C            3.54451494127072       -1.15899184723775       -1.77361045481669
C            2.81490490409254       -1.34439401661415       -0.42633794846579
C            1.09778265955275        1.90890434034657       -0.02247150688082
F            2.12114690610384        2.75688746112442       -0.30453118984330
C           -0.15995359189372        2.44636778222355        0.02462804635202
C           -1.28230389153405        1.64943368671118        0.25419474197358
C           -2.61134170236239        2.28555334532162        0.28926010008202
O           -2.76259785407379        3.47403399583368        0.07191467881593
C           -2.02836510357958       -1.95634771476176        0.84063833599107
C           -1.60197758768936       -2.79280292347697       -0.33313714896470
C           -3.00394979922786       -2.88415770688606        0.18231334071414
H           -6.26630381700843        3.21287481851704        0.75760314645711
H           -4.21839770312060       -0.65755588015109        1.01594219365543
H            0.34263703106396       -1.30185998984655        0.60978971399324
H            4.45452803476945        0.08728125679121        1.01372541459858
H            3.63408250766075        1.64096412885049        0.83036131130199
H            3.91734940461470        1.47368775510887       -1.66373766172791
H            5.48968258366445        1.37490125758262       -0.85120857124382
H            5.45430016226376       -0.94357957080931       -1.11765714642964
H            2.88893320381218       -0.60814957833692       -2.45555956627202
H            3.76555364730223       -2.13338458952017       -2.21386692454072
H            3.43650616370625       -1.94372526856946        0.25153608772217
H            1.87695787788560       -1.86798917001381       -0.59831065117069
H           -0.30502567536431        3.50333510241182       -0.13789191342165
H           -1.65102102511558       -2.23154614378082        1.82162268980224
H           -1.44571173672331       -2.28762195676623       -1.27397846824440
H           -0.92480256343996       -3.61500449528807       -0.15806496929382
H           -3.30362444869643       -3.76779797567906        0.72372005242392
H           -3.78822824914513       -2.45527018313767       -0.42135726616435
