----- Optimization -----
      -----------------------------------------------------------      
     |                   =====================                   |     
     |                           x T B                           |     
     |                   =====================                   |     
     |                         S. Grimme                         |     
     |          Mulliken Center for Theoretical Chemistry        |     
     |                    University of Bonn                     |     
      -----------------------------------------------------------      

   * xtb version 6.7.1 (edcfbbe) compiled by 'conda@3ef47c1a292c' on 2024-11-25

   xtb is free software: you can redistribute it and/or modify it under
   the terms of the GNU Lesser General Public License as published by
   the Free Software Foundation, either version 3 of the License, or
   (at your option) any later version.
   
   xtb is distributed in the hope that it will be useful,
   but WITHOUT ANY WARRANTY; without even the implied warranty of
   MERCHANTABILITY or FITNESS FOR A PARTICULAR PURPOSE.  See the
   GNU Lesser General Public License for more details.
   
   Cite this work as:
   * C. Bannwarth, E. Caldeweyher, S. Ehlert, A. Hansen, P. Pracht,
     J. Seibert, S. Spicher, S. Grimme, WIREs Comput. Mol. Sci., 2020, 11,
     e01493. DOI: 10.1002/wcms.1493
   
   for GFN2-xTB:
   * C. Bannwarth, S. Ehlert and S. Grimme., J. Chem. Theory Comput., 2019,
     15, 1652-1671. DOI: 10.1021/acs.jctc.8b01176
   for GFN1-xTB:
   * S. Grimme, C. Bannwarth, P. Shushkov, J. Chem. Theory Comput., 2017,
     13, 1989-2009. DOI: 10.1021/acs.jctc.7b00118
   for GFN0-xTB:
   * P. Pracht, E. Caldeweyher, S. Ehlert, S. Grimme, ChemRxiv, 2019, preprint.
     DOI: 10.26434/chemrxiv.8326202.v1
   for GFN-FF:
   * S. Spicher and S. Grimme, Angew. Chem. Int. Ed., 2020, 59, 15665-15673.
     DOI: 10.1002/anie.202004239
   
   for ALPB and GBSA implicit solvation:
   * S. Ehlert, M. Stahn, S. Spicher, S. Grimme, J. Chem. Theory Comput.,
     2021, 17, 4250-4261. DOI: 10.1021/acs.jctc.1c00471
   
   for ddCOSMO and CPCM-X implicit solvation:
   * M. Stahn, S. Ehlert, S. Grimme, J. Phys. Chem. A,
     2023, XX, XXXX-XXXX. DOI: 10.1021/acs.jpca.3c04382
   
   for DFT-D4:
   * E. Caldeweyher, C. Bannwarth and S. Grimme, J. Chem. Phys., 2017,
     147, 034112. DOI: 10.1063/1.4993215
   * E. Caldeweyher, S. Ehlert, A. Hansen, H. Neugebauer, S. Spicher,
     C. Bannwarth and S. Grimme, J. Chem. Phys., 2019, 150, 154122.
     DOI: 10.1063/1.5090222
   * E. Caldeweyher, J.-M. Mewes, S. Ehlert and S. Grimme, Phys. Chem. Chem. Phys.
     2020, 22, 8499-8512. DOI: 10.1039/D0CP00502A
   
   for sTDA-xTB:
   * S. Grimme and C. Bannwarth, J. Chem. Phys., 2016, 145, 054103.
     DOI: 10.1063/1.4959605
   
   in the mass-spec context:
   * V. Asgeirsson, C. Bauer and S. Grimme, Chem. Sci., 2017, 8, 4879.
     DOI: 10.1039/c7sc00601b
   * J. Koopman and S. Grimme, ACS Omega 2019, 4, 12, 15120-15133.
     DOI: 10.1021/acsomega.9b02011
   
   for metadynamics refer to:
   * S. Grimme, J. Chem. Theory Comput., 2019, 155, 2847-2862
     DOI: 10.1021/acs.jctc.9b00143
   
   for SPH calculations refer to:
   * S. Spicher and S. Grimme, J. Chem. Theory Comput., 2021, 17, 1701-1714
     DOI: 10.1021/acs.jctc.0c01306
   
   for ONIOM refer to:
   * C. Plett, A. Katbashev, S. Ehlert, S. Grimme, M. Bursch,
     Phys. Chem. Chem. Phys., 2023, 25, 17860-17868. DOI: 10.1039/D3CP02178E
   
   for DIPRO refer to:
   * J. Kohn, N. Gildemeister, S. Grimme, D. Fazzi, A. Hansen,
     J. Chem. Phys., 2023, just accepted.
   
   for PTB refer to:
   * S. Grimme, M. Mueller, A. Hansen, J. Chem. Phys., 2023, 158, 124111.
     DOI: 10.1063/5.0137838
   
   with help from (in alphabetical order)
   P. Atkinson, C. Bannwarth, F. Bohle, G. Brandenburg, E. Caldeweyher
   M. Checinski, S. Dohm, S. Ehlert, S. Ehrlich, I. Gerasimov, C. Hölzer
   A. Katbashev, J. Kohn, J. Koopman, C. Lavigne, S. Lehtola, F. März, M. Müller,
   F. Musil, H. Neugebauer, J. Pisarek, C. Plett, P. Pracht, F. Pultar,
   J. Seibert, P. Shushkov, S. Spicher, M. Stahn, M. Steiner, T. Strunk,
   J. Stückrath, T. Rose, and J. Unsleber
   
 * started run on 2025/05/15 at 16:20:29.022     
   ID    Z sym.   atoms
    1    6 C      1-7, 9, 11, 13-16, 18, 19, 21, 22, 24, 26-31
    2    7 N      8, 10, 12, 17, 20, 23, 25
    3    8 O      32, 33
    4    1 H      34-62

           -------------------------------------------------
          |                Calculation Setup                |
           -------------------------------------------------

          program call               : xtb /rds/general/user/hgt20/home/callum/QDESCP/Palbociclib_rdkit_conf_23/Palbociclib_rdkit_conf_23.xyz --opt normal --acc 1 --gfn 2 --chrg 0 --uhf 0 -P 1
          hostname                   : login-c
          coordinate file            : /rds/general/user/hgt20/home/callum/QDESCP/Palbociclib_rdkit_conf_23/Palbociclib_rdkit_conf_23.xyz
          omp threads                :                     1


           -------------------------------------------------
          |                 G F N 2 - x T B                 |
           -------------------------------------------------

        Reference                      10.1021/acs.jctc.8b01176
      * Hamiltonian:
        H0-scaling (s, p, d)           1.850000    2.230000    2.230000
        zeta-weighting                 0.500000
      * Dispersion:
        s8                             2.700000
        a1                             0.520000
        a2                             5.000000
        s9                             5.000000
      * Repulsion:
        kExp                           1.500000    1.000000
        rExp                           1.000000
      * Coulomb:
        alpha                          2.000000
        third order                    shell-resolved
        anisotropic                    true
        a3                             3.000000
        a5                             4.000000
        cn-shift                       1.200000
        cn-exp                         4.000000
        max-rad                        5.000000


          ...................................................
          :                      SETUP                      :
          :.................................................:
          :  # basis functions                 161          :
          :  # atomic orbitals                 161          :
          :  # shells                           95          :
          :  # electrons                       172          :
          :  max. iterations                   250          :
          :  Hamiltonian                  GFN2-xTB          :
          :  restarted?                      false          :
          :  GBSA solvation                  false          :
          :  PC potential                    false          :
          :  electronic temp.          300.0000000     K    :
          :  accuracy                    1.0000000          :
          :  -> integral cutoff          0.2500000E+02      :
          :  -> integral neglect         0.1000000E-07      :
          :  -> SCF convergence          0.1000000E-05 Eh   :
          :  -> wf. convergence          0.1000000E-03 e    :
          :  Broyden damping             0.4000000          :
          :  net charge                          0          :
          :  unpaired electrons                  0          :
          ...................................................

 iter      E             dE          RMSdq      gap      omega  full diag
   1    -95.9154244 -0.959154E+02  0.389E+00    1.63       0.0  T
   2    -96.0689288 -0.153504E+00  0.233E+00    1.81       1.0  T
   3    -96.0777076 -0.877877E-02  0.125E+00    1.68       1.0  T
   4    -96.0864793 -0.877176E-02  0.337E-01    1.52       1.0  T
   5    -96.0911547 -0.467537E-02  0.138E-01    1.61       1.0  T
   6    -96.0919001 -0.745383E-03  0.532E-02    1.60       1.0  T
   7    -96.0919700 -0.698782E-04  0.211E-02    1.60       1.0  T
   8    -96.0919737 -0.374644E-05  0.875E-03    1.61       1.5  T
   9    -96.0919747 -0.961597E-06  0.341E-03    1.61       3.7  T
  10    -96.0919749 -0.247900E-06  0.132E-03    1.61       9.6  T
  11    -96.0919749 -0.390119E-07  0.643E-04    1.61      19.7  T
  12    -96.0919750 -0.633248E-08  0.269E-04    1.61      47.2  T

   *** convergence criteria satisfied after 12 iterations ***

         #    Occupation            Energy/Eh            Energy/eV
      -------------------------------------------------------------
         1        2.0000           -0.6991362             -19.0245
       ...           ...                  ...                  ...
        80        2.0000           -0.4002669             -10.8918
        81        2.0000           -0.3937802             -10.7153
        82        2.0000           -0.3878061             -10.5527
        83        2.0000           -0.3758243             -10.2267
        84        2.0000           -0.3727645             -10.1434
        85        2.0000           -0.3693430             -10.0503
        86        2.0000           -0.3501507              -9.5281 (HOMO)
        87                         -0.2910828              -7.9208 (LUMO)
        88                         -0.2686504              -7.3103
        89                         -0.2485245              -6.7627
        90                         -0.2411739              -6.5627
        91                         -0.2317310              -6.3057
       ...                                ...                  ...
       161                          0.6867399              18.6871
      -------------------------------------------------------------
                  HL-Gap            0.0590678 Eh            1.6073 eV
             Fermi-level           -0.3206167 Eh           -8.7244 eV

 SCC (total)                   0 d,  0 h,  0 min,  0.203 sec
 SCC setup                      ...        0 min,  0.001 sec (  0.331%)
 Dispersion                     ...        0 min,  0.001 sec (  0.472%)
 classical contributions        ...        0 min,  0.000 sec (  0.152%)
 integral evaluation            ...        0 min,  0.061 sec ( 30.127%)
 iterations                     ...        0 min,  0.092 sec ( 45.437%)
 molecular gradient             ...        0 min,  0.047 sec ( 23.291%)
 printout                       ...        0 min,  0.000 sec (  0.185%)

         :::::::::::::::::::::::::::::::::::::::::::::::::::::
         ::                     SUMMARY                     ::
         :::::::::::::::::::::::::::::::::::::::::::::::::::::
         :: total energy             -94.850251629991 Eh    ::
         :: gradient norm              0.128204384405 Eh/a0 ::
         :: HOMO-LUMO gap              1.607317219720 eV    ::
         ::.................................................::
         :: SCC energy               -96.092326641233 Eh    ::
         :: -> isotropic ES            0.111004784252 Eh    ::
         :: -> anisotropic ES          0.010820369700 Eh    ::
         :: -> anisotropic XC          0.054607627200 Eh    ::
         :: -> dispersion             -0.068840772402 Eh    ::
         :: repulsion energy           1.242075011242 Eh    ::
         :: add. restraining           0.000000000000 Eh    ::
         :: total charge               0.000000000000 e     ::
         :::::::::::::::::::::::::::::::::::::::::::::::::::::

      ----------------------------------------------------------- 
     |                   =====================                   |
     |                        A N C O P T                        |
     |                   =====================                   |
     |               Approximate Normal Coordinate               |
     |                Rational Function Optimizer                |
      ----------------------------------------------------------- 
      ----------------------------------------------------------- 
     |                   =====================                   |
     |                        A N C O P T                        |
     |                   =====================                   |
     |               Approximate Normal Coordinate               |
     |                Rational Function Optimizer                |
      ----------------------------------------------------------- 

          ...................................................
          :                      SETUP                      :
          :.................................................:
          :   optimization level            normal          :
          :   max. optcycles                   200          :
          :   ANC micro-cycles                  20          :
          :   degrees of freedom               180          :
          :.................................................:
          :   RF solver                   davidson          :
          :   write xtbopt.log                true          :
          :   linear?                        false          :
          :   energy convergence         0.5000000E-05 Eh   :
          :   grad. convergence          0.1000000E-02 Eh/α :
          :   maxmium RF displ.          1.0000000          :
          :   Hlow (freq-cutoff)         0.1000000E-01      :
          :   Hmax (freq-cutoff)         5.0000000          :
          :   S6 in model hess.         20.0000000          :
          ...................................................

generating ANC from exact Hessian ...
Using Lindh-Hessian (1995)
 Shifting diagonal of input Hessian by    9.8403446118390612E-003
 Lowest  eigenvalues of input Hessian
    0.000000    0.000000    0.000000    0.000000    0.000000    0.000000
    0.010000    0.010177    0.010304    0.010429    0.010762    0.011017
    0.011098    0.011942    0.011944    0.012320    0.013153    0.013662
 Highest eigenvalues
    2.050693    2.067688    2.133770    2.225748    2.259104    2.302462


........................................................................
.............................. CYCLE    1 ..............................
........................................................................

 iter      E             dE          RMSdq      gap      omega  full diag
   1    -96.0919750 -0.960920E+02  0.926E-05    1.61       0.0  T
   2    -96.0919750 -0.168015E-09  0.620E-05    1.61     204.8  T
   3    -96.0919750 -0.162942E-09  0.347E-05    1.61     366.3  T
     SCC iter.                  ...        0 min,  0.070 sec
     gradient                   ...        0 min,  0.092 sec
 * total energy  :   -94.8502516 Eh     change       -0.1384294E-08 Eh
   gradient norm :     0.1282054 Eh/α   predicted     0.0000000E+00 (-100.00%)
   displ. norm   :     0.3956881 α      lambda       -0.2097286E-01
   maximum displ.:     0.1388006 α      in ANC's #13, #19, #36, ...

........................................................................
.............................. CYCLE    2 ..............................
........................................................................

 iter      E             dE          RMSdq      gap      omega  full diag
   1    -96.1328685 -0.961329E+02  0.180E-01    1.61       0.0  T
   2    -96.1331537 -0.285211E-03  0.111E-01    1.69       1.0  T
   3    -96.1331817 -0.280097E-04  0.610E-02    1.68       1.0  T
   4    -96.1332328 -0.510284E-04  0.170E-02    1.69       1.0  T
   5    -96.1332473 -0.145686E-04  0.516E-03    1.69       2.5  T
   6    -96.1332483 -0.946237E-06  0.246E-03    1.69       5.2  T
   7    -96.1332484 -0.673556E-07  0.106E-03    1.69      12.0  T
   8    -96.1332484 -0.261315E-07  0.311E-04    1.69      40.9  T
   9    -96.1332484 -0.229939E-08  0.157E-04    1.69      80.9  T
     SCC iter.                  ...        0 min,  0.089 sec
     gradient                   ...        0 min,  0.093 sec
 * total energy  :   -94.8653657 Eh     change       -0.1511404E-01 Eh
   gradient norm :     0.0575804 Eh/α   predicted    -0.1216357E-01 ( -19.52%)
   displ. norm   :     0.4596539 α      lambda       -0.9217383E-02
   maximum displ.:     0.2366574 α      in ANC's #13, #19, #20, ...

........................................................................
.............................. CYCLE    3 ..............................
........................................................................

 iter      E             dE          RMSdq      gap      omega  full diag
   1    -96.1627259 -0.961627E+02  0.135E-01    1.66       0.0  T
   2    -96.1629354 -0.209455E-03  0.822E-02    1.73       1.0  T
   3    -96.1629849 -0.495003E-04  0.481E-02    1.72       1.0  T
   4    -96.1630054 -0.204689E-04  0.151E-02    1.73       1.0  T
   5    -96.1630168 -0.114063E-04  0.411E-03    1.74       3.1  T
   6    -96.1630175 -0.781634E-06  0.167E-03    1.73       7.6  T
   7    -96.1630176 -0.300185E-07  0.696E-04    1.73      18.2  T
   8    -96.1630176 -0.811623E-08  0.213E-04    1.73      59.7  T
     SCC iter.                  ...        0 min,  0.034 sec
     gradient                   ...        0 min,  0.093 sec
 * total energy  :   -94.8712920 Eh     change       -0.5926299E-02 Eh
   gradient norm :     0.0185104 Eh/α   predicted    -0.5582424E-02 (  -5.80%)
   displ. norm   :     0.4113718 α      lambda       -0.2775179E-02
   maximum displ.:     0.2604823 α      in ANC's #13, #19, #9, ...

........................................................................
.............................. CYCLE    4 ..............................
........................................................................

 iter      E             dE          RMSdq      gap      omega  full diag
   1    -96.1736151 -0.961736E+02  0.719E-02    1.70       0.0  T
   2    -96.1736539 -0.387292E-04  0.432E-02    1.73       1.0  T
   3    -96.1736534  0.486699E-06  0.257E-02    1.72       1.0  T
   4    -96.1736647 -0.113097E-04  0.731E-03    1.73       1.7  T
   5    -96.1736677 -0.299380E-05  0.196E-03    1.73       6.5  T
   6    -96.1736678 -0.146382E-06  0.860E-04    1.73      14.8  T
   7    -96.1736678 -0.655777E-08  0.270E-04    1.73      47.1  T
     SCC iter.                  ...        0 min,  0.031 sec
     gradient                   ...        0 min,  0.087 sec
 * total energy  :   -94.8733603 Eh     change       -0.2068369E-02 Eh
   gradient norm :     0.0153459 Eh/α   predicted    -0.1622455E-02 ( -21.56%)
   displ. norm   :     0.4584650 α      lambda       -0.1860918E-02
   maximum displ.:     0.2955974 α      in ANC's #13, #9, #19, ...

........................................................................
.............................. CYCLE    5 ..............................
........................................................................

 iter      E             dE          RMSdq      gap      omega  full diag
   1    -96.1803188 -0.961803E+02  0.712E-02    1.70       0.0  T
   2    -96.1803402 -0.214010E-04  0.426E-02    1.71       1.0  T
   3    -96.1803324  0.782852E-05  0.190E-02    1.70       1.0  T
   4    -96.1803435 -0.111592E-04  0.515E-03    1.70       2.5  T
   5    -96.1803450 -0.146108E-05  0.177E-03    1.71       7.2  T
   6    -96.1803451 -0.816774E-07  0.843E-04    1.71      15.1  T
   7    -96.1803451 -0.605435E-08  0.269E-04    1.71      47.2  T
     SCC iter.                  ...        0 min,  0.082 sec
     gradient                   ...        0 min,  0.098 sec
 * total energy  :   -94.8746482 Eh     change       -0.1287880E-02 Eh
   gradient norm :     0.0105207 Eh/α   predicted    -0.1126038E-02 ( -12.57%)
   displ. norm   :     0.3375779 α      lambda       -0.7343505E-03
   maximum displ.:     0.2028306 α      in ANC's #13, #9, #11, ...

........................................................................
.............................. CYCLE    6 ..............................
........................................................................

 iter      E             dE          RMSdq      gap      omega  full diag
   1    -96.1837253 -0.961837E+02  0.525E-02    1.69       0.0  T
   2    -96.1837304 -0.506937E-05  0.308E-02    1.69       1.0  T
   3    -96.1837271  0.331689E-05  0.924E-03    1.69       1.4  T
   4    -96.1837313 -0.423168E-05  0.235E-03    1.69       5.4  T
   5    -96.1837316 -0.224358E-06  0.103E-03    1.69      12.3  T
   6    -96.1837316 -0.173738E-07  0.522E-04    1.69      24.3  T
   7    -96.1837316 -0.534678E-08  0.187E-04    1.69      68.0  T
     SCC iter.                  ...        0 min,  0.075 sec
     gradient                   ...        0 min,  0.098 sec
 * total energy  :   -94.8751578 Eh     change       -0.5095926E-03 Eh
   gradient norm :     0.0075993 Eh/α   predicted    -0.4090184E-03 ( -19.74%)
   displ. norm   :     0.2544140 α      lambda       -0.3792183E-03
   maximum displ.:     0.1599755 α      in ANC's #9, #13, #11, ...

........................................................................
.............................. CYCLE    7 ..............................
........................................................................

 iter      E             dE          RMSdq      gap      omega  full diag
   1    -96.1853365 -0.961853E+02  0.446E-02    1.69       0.0  T
   2    -96.1853384 -0.190366E-05  0.261E-02    1.68       1.0  T
   3    -96.1853373  0.103189E-05  0.510E-03    1.68       2.5  T
   4    -96.1853388 -0.142607E-05  0.143E-03    1.68       8.9  T
   5    -96.1853388 -0.538711E-07  0.683E-04    1.68      18.6  T
   6    -96.1853388 -0.332628E-08  0.351E-04    1.68      36.2  T
     SCC iter.                  ...        0 min,  0.077 sec
     gradient                   ...        0 min,  0.098 sec
 * total energy  :   -94.8754395 Eh     change       -0.2816594E-03 Eh
   gradient norm :     0.0062122 Eh/α   predicted    -0.2018827E-03 ( -28.32%)
   displ. norm   :     0.2534828 α      lambda       -0.3245761E-03
   maximum displ.:     0.1567060 α      in ANC's #9, #11, #13, ...

........................................................................
.............................. CYCLE    8 ..............................
........................................................................

 iter      E             dE          RMSdq      gap      omega  full diag
   1    -96.1859077 -0.961859E+02  0.562E-02    1.68       0.0  T
   2    -96.1859100 -0.225208E-05  0.330E-02    1.68       1.0  T
   3    -96.1859077  0.222558E-05  0.700E-03    1.68       1.8  T
   4    -96.1859104 -0.267987E-05  0.206E-03    1.68       6.2  T
   5    -96.1859106 -0.165808E-06  0.870E-04    1.68      14.6  T
   6    -96.1859106 -0.824726E-08  0.452E-04    1.68      28.1  T
     SCC iter.                  ...        0 min,  0.026 sec
     gradient                   ...        0 min,  0.089 sec
 * total energy  :   -94.8756794 Eh     change       -0.2399148E-03 Eh
   gradient norm :     0.0060919 Eh/α   predicted    -0.1727172E-03 ( -28.01%)
   displ. norm   :     0.2701154 α      lambda       -0.2798162E-03
   maximum displ.:     0.1540886 α      in ANC's #9, #17, #21, ...

........................................................................
.............................. CYCLE    9 ..............................
........................................................................

 iter      E             dE          RMSdq      gap      omega  full diag
   1    -96.1855629 -0.961856E+02  0.665E-02    1.68       0.0  T
   2    -96.1855653 -0.234155E-05  0.392E-02    1.68       1.0  T
   3    -96.1855593  0.592374E-05  0.109E-02    1.68       1.2  T
   4    -96.1855662 -0.688706E-05  0.212E-03    1.68       6.0  T
   5    -96.1855664 -0.135735E-06  0.980E-04    1.68      13.0  T
   6    -96.1855664 -0.835583E-08  0.462E-04    1.68      27.5  T
     SCC iter.                  ...        0 min,  0.076 sec
     gradient                   ...        0 min,  0.086 sec
 * total energy  :   -94.8758830 Eh     change       -0.2036078E-03 Eh
   gradient norm :     0.0067417 Eh/α   predicted    -0.1501213E-03 ( -26.27%)
   displ. norm   :     0.2508348 α      lambda       -0.2450056E-03
   maximum displ.:     0.1146800 α      in ANC's #9, #17, #5, ...

........................................................................
.............................. CYCLE   10 ..............................
........................................................................

 iter      E             dE          RMSdq      gap      omega  full diag
   1    -96.1852640 -0.961853E+02  0.676E-02    1.67       0.0  T
   2    -96.1852664 -0.236480E-05  0.396E-02    1.67       1.0  T
   3    -96.1852561  0.102734E-04  0.142E-02    1.68       1.0  T
   4    -96.1852679 -0.117547E-04  0.188E-03    1.68       6.7  T
   5    -96.1852679 -0.882474E-07  0.892E-04    1.68      14.2  T
   6    -96.1852680 -0.737072E-08  0.406E-04    1.68      31.3  T
     SCC iter.                  ...        0 min,  0.026 sec
     gradient                   ...        0 min,  0.092 sec
 * total energy  :   -94.8760631 Eh     change       -0.1801435E-03 Eh
   gradient norm :     0.0063336 Eh/α   predicted    -0.1302128E-03 ( -27.72%)
   displ. norm   :     0.2499769 α      lambda       -0.2199433E-03
   maximum displ.:     0.0862486 α      in ANC's #5, #9, #17, ...

........................................................................
.............................. CYCLE   11 ..............................
........................................................................

 iter      E             dE          RMSdq      gap      omega  full diag
   1    -96.1848921 -0.961849E+02  0.599E-02    1.67       0.0  T
   2    -96.1848939 -0.178210E-05  0.350E-02    1.67       1.0  T
   3    -96.1848845  0.936593E-05  0.137E-02    1.67       1.0  T
   4    -96.1848952 -0.107519E-04  0.171E-03    1.67       7.4  T
   5    -96.1848953 -0.726212E-07  0.856E-04    1.67      14.8  T
   6    -96.1848953 -0.507431E-08  0.369E-04    1.67      34.4  T
     SCC iter.                  ...        0 min,  0.064 sec
     gradient                   ...        0 min,  0.087 sec
 * total energy  :   -94.8762176 Eh     change       -0.1544282E-03 Eh
   gradient norm :     0.0057854 Eh/α   predicted    -0.1168471E-03 ( -24.34%)
   displ. norm   :     0.1975731 α      lambda       -0.1658294E-03
   maximum displ.:     0.0866996 α      in ANC's #5, #2, #17, ...

........................................................................
.............................. CYCLE   12 ..............................
........................................................................

 iter      E             dE          RMSdq      gap      omega  full diag
   1    -96.1854644 -0.961855E+02  0.459E-02    1.66       0.0  T
   2    -96.1854666 -0.212018E-05  0.267E-02    1.66       1.0  T
   3    -96.1854603  0.627406E-05  0.117E-02    1.67       1.1  T
   4    -96.1854675 -0.724569E-05  0.176E-03    1.66       7.2  T
   5    -96.1854677 -0.125787E-06  0.664E-04    1.66      19.1  T
   6    -96.1854677 -0.470662E-08  0.322E-04    1.66      39.5  T
     SCC iter.                  ...        0 min,  0.026 sec
     gradient                   ...        0 min,  0.092 sec
 * total energy  :   -94.8763133 Eh     change       -0.9576560E-04 Eh
   gradient norm :     0.0042277 Eh/α   predicted    -0.8615225E-04 ( -10.04%)
   displ. norm   :     0.2086537 α      lambda       -0.1084064E-03
   maximum displ.:     0.0893766 α      in ANC's #5, #15, #14, ...

........................................................................
.............................. CYCLE   13 ..............................
........................................................................

 iter      E             dE          RMSdq      gap      omega  full diag
   1    -96.1837156 -0.961837E+02  0.369E-02    1.65       0.0  T
   2    -96.1837167 -0.102814E-05  0.217E-02    1.65       1.0  T
   3    -96.1837145  0.221284E-05  0.682E-03    1.66       1.9  T
   4    -96.1837170 -0.257566E-05  0.161E-03    1.65       7.9  T
   5    -96.1837171 -0.964117E-07  0.689E-04    1.65      18.4  T
   6    -96.1837171 -0.141260E-08  0.264E-04    1.65      48.2  T
     SCC iter.                  ...        0 min,  0.025 sec
     gradient                   ...        0 min,  0.077 sec
 * total energy  :   -94.8763535 Eh     change       -0.4018677E-04 Eh
   gradient norm :     0.0056666 Eh/α   predicted    -0.5657063E-04 (  40.77%)
   displ. norm   :     0.0767388 α      lambda       -0.7680674E-04
   maximum displ.:     0.0466298 α      in ANC's #9, #8, #11, ...

........................................................................
.............................. CYCLE   14 ..............................
........................................................................

 iter      E             dE          RMSdq      gap      omega  full diag
   1    -96.1859545 -0.961860E+02  0.240E-02    1.66       0.0  T
   2    -96.1859560 -0.150922E-05  0.140E-02    1.66       1.0  T
   3    -96.1859548  0.118742E-05  0.571E-03    1.66       2.2  T
   4    -96.1859561 -0.135587E-05  0.164E-03    1.66       7.7  T
   5    -96.1859563 -0.141585E-06  0.420E-04    1.66      30.3  T
   6    -96.1859563 -0.186756E-08  0.227E-04    1.66      55.9  T
     SCC iter.                  ...        0 min,  0.025 sec
     gradient                   ...        0 min,  0.080 sec
 * total energy  :   -94.8763967 Eh     change       -0.4320608E-04 Eh
   gradient norm :     0.0048836 Eh/α   predicted    -0.3863041E-04 ( -10.59%)
   displ. norm   :     0.0698110 α      lambda       -0.5304111E-04
   maximum displ.:     0.0360481 α      in ANC's #5, #14, #2, ...

........................................................................
.............................. CYCLE   15 ..............................
........................................................................

 iter      E             dE          RMSdq      gap      omega  full diag
   1    -96.1856679 -0.961857E+02  0.125E-02    1.66       0.0  T
   2    -96.1856686 -0.750245E-06  0.746E-03    1.65       1.7  T
   3    -96.1856685  0.133664E-06  0.263E-03    1.65       4.8  T
   4    -96.1856687 -0.198327E-06  0.723E-04    1.65      17.6  T
   5    -96.1856687 -0.218743E-07  0.307E-04    1.65      41.4  T
     SCC iter.                  ...        0 min,  0.021 sec
     gradient                   ...        0 min,  0.079 sec
 * total energy  :   -94.8764290 Eh     change       -0.3222551E-04 Eh
   gradient norm :     0.0023505 Eh/α   predicted    -0.2665118E-04 ( -17.30%)
   displ. norm   :     0.1122255 α      lambda       -0.4028039E-04
   maximum displ.:     0.0511639 α      in ANC's #5, #14, #2, ...

........................................................................
.............................. CYCLE   16 ..............................
........................................................................

 iter      E             dE          RMSdq      gap      omega  full diag
   1    -96.1853523 -0.961854E+02  0.170E-02    1.66       0.0  T
   2    -96.1853525 -0.273069E-06  0.100E-02    1.66       1.3  T
   3    -96.1853520  0.553132E-06  0.336E-03    1.66       3.8  T
   4    -96.1853526 -0.632694E-06  0.716E-04    1.66      17.7  T
   5    -96.1853526 -0.239621E-07  0.266E-04    1.66      47.8  T
     SCC iter.                  ...        0 min,  0.059 sec
     gradient                   ...        0 min,  0.086 sec
 * total energy  :   -94.8764596 Eh     change       -0.3069435E-04 Eh
   gradient norm :     0.0027985 Eh/α   predicted    -0.2039591E-04 ( -33.55%)
   displ. norm   :     0.1598476 α      lambda       -0.4839067E-04
   maximum displ.:     0.0689932 α      in ANC's #14, #5, #2, ...

........................................................................
.............................. CYCLE   17 ..............................
........................................................................

 iter      E             dE          RMSdq      gap      omega  full diag
   1    -96.1846746 -0.961847E+02  0.255E-02    1.66       0.0  T
   2    -96.1846751 -0.502281E-06  0.149E-02    1.67       1.0  T
   3    -96.1846740  0.107489E-05  0.466E-03    1.66       2.7  T
   4    -96.1846752 -0.124161E-05  0.977E-04    1.67      13.0  T
   5    -96.1846753 -0.415934E-07  0.406E-04    1.67      31.3  T
   6    -96.1846753 -0.250370E-08  0.190E-04    1.67      66.8  T
     SCC iter.                  ...        0 min,  0.027 sec
     gradient                   ...        0 min,  0.088 sec
 * total energy  :   -94.8764915 Eh     change       -0.3181582E-04 Eh
   gradient norm :     0.0031194 Eh/α   predicted    -0.2481487E-04 ( -22.00%)
   displ. norm   :     0.0949368 α      lambda       -0.2852245E-04
   maximum displ.:     0.0373613 α      in ANC's #9, #14, #2, ...

........................................................................
.............................. CYCLE   18 ..............................
........................................................................

 iter      E             dE          RMSdq      gap      omega  full diag
   1    -96.1847725 -0.961848E+02  0.210E-02    1.67       0.0  T
   2    -96.1847729 -0.425931E-06  0.122E-02    1.67       1.0  T
   3    -96.1847722  0.698376E-06  0.394E-03    1.67       3.2  T
   4    -96.1847730 -0.800621E-06  0.891E-04    1.67      14.2  T
   5    -96.1847730 -0.382566E-07  0.322E-04    1.67      39.5  T
     SCC iter.                  ...        0 min,  0.064 sec
     gradient                   ...        0 min,  0.048 sec
 * total energy  :   -94.8765138 Eh     change       -0.2231212E-04 Eh
   gradient norm :     0.0026851 Eh/α   predicted    -0.1439042E-04 ( -35.50%)
   displ. norm   :     0.1418853 α      lambda       -0.4233823E-04
   maximum displ.:     0.0528689 α      in ANC's #2, #6, #9, ...

........................................................................
.............................. CYCLE   19 ..............................
........................................................................

 iter      E             dE          RMSdq      gap      omega  full diag
   1    -96.1849173 -0.961849E+02  0.310E-02    1.67       0.0  T
   2    -96.1849182 -0.853384E-06  0.181E-02    1.68       1.0  T
   3    -96.1849168  0.136388E-05  0.560E-03    1.68       2.3  T
   4    -96.1849184 -0.155923E-05  0.126E-03    1.68      10.1  T
   5    -96.1849185 -0.752855E-07  0.466E-04    1.68      27.2  T
   6    -96.1849185 -0.301742E-08  0.253E-04    1.68      50.1  T
     SCC iter.                  ...        0 min,  0.027 sec
     gradient                   ...        0 min,  0.075 sec
 * total energy  :   -94.8765452 Eh     change       -0.3141755E-04 Eh
   gradient norm :     0.0026072 Eh/α   predicted    -0.2159561E-04 ( -31.26%)
   displ. norm   :     0.1601631 α      lambda       -0.3987371E-04
   maximum displ.:     0.0636511 α      in ANC's #6, #2, #9, ...

........................................................................
.............................. CYCLE   20 ..............................
........................................................................

 iter      E             dE          RMSdq      gap      omega  full diag
   1    -96.1850864 -0.961851E+02  0.355E-02    1.68       0.0  T
   2    -96.1850871 -0.680058E-06  0.208E-02    1.68       1.0  T
   3    -96.1850848  0.230459E-05  0.688E-03    1.68       1.8  T
   4    -96.1850874 -0.261917E-05  0.111E-03    1.68      11.4  T
   5    -96.1850874 -0.479428E-07  0.488E-04    1.68      26.0  T
   6    -96.1850874 -0.200784E-08  0.262E-04    1.68      48.5  T
     SCC iter.                  ...        0 min,  0.025 sec
     gradient                   ...        0 min,  0.084 sec
 * total energy  :   -94.8765751 Eh     change       -0.2988587E-04 Eh
   gradient norm :     0.0030714 Eh/α   predicted    -0.2045295E-04 ( -31.56%)
   displ. norm   :     0.1769744 α      lambda       -0.4070589E-04
   maximum displ.:     0.0753969 α      in ANC's #6, #13, #2, ...
 * RMSD in coord.:     0.3840974 α      energy gain  -0.2632345E-01 Eh

generating ANC from exact Hessian ...
Using Lindh-Hessian (1995)
 Shifting diagonal of input Hessian by    9.8251066290398897E-003
 Lowest  eigenvalues of input Hessian
    0.000000    0.000000    0.000000    0.000000    0.000000    0.000000
    0.010000    0.010188    0.010314    0.010488    0.010840    0.011114
    0.011228    0.011938    0.012100    0.012553    0.013462    0.013929
 Highest eigenvalues
    2.114116    2.169907    2.228370    2.299720    2.350509    2.389982


........................................................................
.............................. CYCLE   21 ..............................
........................................................................

 iter      E             dE          RMSdq      gap      omega  full diag
   1    -96.1852371 -0.961852E+02  0.392E-02    1.68       0.0  T
   2    -96.1852377 -0.620427E-06  0.230E-02    1.68       1.0  T
   3    -96.1852343  0.341601E-05  0.822E-03    1.68       1.5  T
   4    -96.1852381 -0.387403E-05  0.998E-04    1.68      12.7  T
   5    -96.1852382 -0.277405E-07  0.513E-04    1.68      24.8  T
   6    -96.1852382 -0.195743E-08  0.271E-04    1.68      46.8  T
     SCC iter.                  ...        0 min,  0.026 sec
     gradient                   ...        0 min,  0.080 sec
 * total energy  :   -94.8766050 Eh     change       -0.2993503E-04 Eh
   gradient norm :     0.0031304 Eh/α   predicted     0.0000000E+00 (-100.00%)
   displ. norm   :     0.0245403 α      lambda       -0.1024709E-04
   maximum displ.:     0.0124584 α      in ANC's #13, #9, #15, ...

........................................................................
.............................. CYCLE   22 ..............................
........................................................................

 iter      E             dE          RMSdq      gap      omega  full diag
   1    -96.1857668 -0.961858E+02  0.697E-03    1.68       0.0  T
   2    -96.1857670 -0.173932E-06  0.401E-03    1.68       3.2  T
   3    -96.1857669  0.451378E-07  0.158E-03    1.68       8.0  T
   4    -96.1857670 -0.620586E-07  0.449E-04    1.68      28.3  T
   5    -96.1857670 -0.929633E-08  0.152E-04    1.68      83.5  T
     SCC iter.                  ...        0 min,  0.021 sec
     gradient                   ...        0 min,  0.079 sec
 * total energy  :   -94.8766201 Eh     change       -0.1511365E-04 Eh
   gradient norm :     0.0015894 Eh/α   predicted    -0.9334735E-05 ( -38.24%)
   displ. norm   :     0.1056600 α      lambda       -0.2964094E-04
   maximum displ.:     0.0536418 α      in ANC's #13, #9, #6, ...

........................................................................
.............................. CYCLE   23 ..............................
........................................................................

 iter      E             dE          RMSdq      gap      omega  full diag
   1    -96.1864606 -0.961865E+02  0.258E-02    1.68       0.0  T
   2    -96.1864619 -0.128712E-05  0.149E-02    1.68       1.0  T
   3    -96.1864614  0.567432E-06  0.476E-03    1.68       2.7  T
   4    -96.1864621 -0.736465E-06  0.123E-03    1.67      10.3  T
   5    -96.1864622 -0.647248E-07  0.465E-04    1.67      27.3  T
   6    -96.1864622 -0.495614E-08  0.237E-04    1.68      53.7  T
     SCC iter.                  ...        0 min,  0.059 sec
     gradient                   ...        0 min,  0.086 sec
 * total energy  :   -94.8766411 Eh     change       -0.2100155E-04 Eh
   gradient norm :     0.0026536 Eh/α   predicted    -0.1489413E-04 ( -29.08%)
   displ. norm   :     0.0294056 α      lambda       -0.9008074E-05
   maximum displ.:     0.0140164 α      in ANC's #13, #6, #5, ...

........................................................................
.............................. CYCLE   24 ..............................
........................................................................

 iter      E             dE          RMSdq      gap      omega  full diag
   1    -96.1862713 -0.961863E+02  0.661E-03    1.67       0.0  T
   2    -96.1862713 -0.225414E-07  0.388E-03    1.68       3.3  T
   3    -96.1862713  0.104029E-07  0.562E-04    1.68      22.6  T
   4    -96.1862713 -0.160754E-07  0.184E-04    1.68      69.1  T
     SCC iter.                  ...        0 min,  0.017 sec
     gradient                   ...        0 min,  0.047 sec
 * total energy  :   -94.8766495 Eh     change       -0.8347639E-05 Eh
   gradient norm :     0.0021769 Eh/α   predicted    -0.4508029E-05 ( -46.00%)
   displ. norm   :     0.2060588 α      lambda       -0.5187941E-04
   maximum displ.:     0.0991418 α      in ANC's #13, #6, #5, ...

........................................................................
.............................. CYCLE   25 ..............................
........................................................................

 iter      E             dE          RMSdq      gap      omega  full diag
   1    -96.1850941 -0.961851E+02  0.459E-02    1.67       0.0  T
   2    -96.1850950 -0.883834E-06  0.270E-02    1.68       1.0  T
   3    -96.1850944  0.598943E-06  0.400E-03    1.68       3.2  T
   4    -96.1850953 -0.848205E-06  0.127E-03    1.68      10.0  T
   5    -96.1850953 -0.492782E-07  0.618E-04    1.68      20.6  T
   6    -96.1850953 -0.381220E-08  0.277E-04    1.68      45.8  T
     SCC iter.                  ...        0 min,  0.026 sec
     gradient                   ...        0 min,  0.062 sec
 * total energy  :   -94.8766764 Eh     change       -0.2692251E-04 Eh
   gradient norm :     0.0022484 Eh/α   predicted    -0.2704117E-04 (   0.44%)
   displ. norm   :     0.0208836 α      lambda       -0.7690593E-05
   maximum displ.:     0.0115610 α      in ANC's #6, #13, #8, ...

........................................................................
.............................. CYCLE   26 ..............................
........................................................................

 iter      E             dE          RMSdq      gap      omega  full diag
   1    -96.1855133 -0.961855E+02  0.473E-03    1.68       0.0  T
   2    -96.1855133 -0.412979E-07  0.274E-03    1.68       4.6  T
   3    -96.1855133  0.133162E-07  0.686E-04    1.68      18.5  T
   4    -96.1855133 -0.163426E-07  0.259E-04    1.68      49.0  T
     SCC iter.                  ...        0 min,  0.017 sec
     gradient                   ...        0 min,  0.074 sec
 * total energy  :   -94.8766829 Eh     change       -0.6509693E-05 Eh
   gradient norm :     0.0015350 Eh/α   predicted    -0.3848658E-05 ( -40.88%)
   displ. norm   :     0.1642941 α      lambda       -0.1967499E-04
   maximum displ.:     0.0837108 α      in ANC's #6, #13, #14, ...

........................................................................
.............................. CYCLE   27 ..............................
........................................................................

 iter      E             dE          RMSdq      gap      omega  full diag
   1    -96.1864174 -0.961864E+02  0.362E-02    1.68       0.0  T
   2    -96.1864180 -0.691366E-06  0.212E-02    1.68       1.0  T
   3    -96.1864165  0.155267E-05  0.547E-03    1.68       2.3  T
   4    -96.1864183 -0.177793E-05  0.116E-03    1.68      11.0  T
   5    -96.1864183 -0.522130E-07  0.485E-04    1.68      26.2  T
   6    -96.1864183 -0.810857E-09  0.226E-04    1.68      56.1  T
     SCC iter.                  ...        0 min,  0.026 sec
     gradient                   ...        0 min,  0.070 sec
 * total energy  :   -94.8766994 Eh     change       -0.1647406E-04 Eh
   gradient norm :     0.0012660 Eh/α   predicted    -0.9955882E-05 ( -39.57%)
   displ. norm   :     0.1006037 α      lambda       -0.6443635E-05
   maximum displ.:     0.0504151 α      in ANC's #13, #6, #14, ...

........................................................................
.............................. CYCLE   28 ..............................
........................................................................

 iter      E             dE          RMSdq      gap      omega  full diag
   1    -96.1860042 -0.961860E+02  0.227E-02    1.68       0.0  T
   2    -96.1860044 -0.206953E-06  0.134E-02    1.68       1.0  T
   3    -96.1860037  0.769388E-06  0.391E-03    1.68       3.2  T
   4    -96.1860046 -0.880497E-06  0.594E-04    1.68      21.4  T
   5    -96.1860046 -0.100100E-07  0.299E-04    1.68      42.5  T
     SCC iter.                  ...        0 min,  0.021 sec
     gradient                   ...        0 min,  0.079 sec
 * total energy  :   -94.8767062 Eh     change       -0.6838472E-05 Eh
   gradient norm :     0.0009670 Eh/α   predicted    -0.3237155E-05 ( -52.66%)
   displ. norm   :     0.1121035 α      lambda       -0.1036743E-04
   maximum displ.:     0.0574411 α      in ANC's #6, #13, #14, ...

........................................................................
.............................. CYCLE   29 ..............................
........................................................................

 iter      E             dE          RMSdq      gap      omega  full diag
   1    -96.1860599 -0.961861E+02  0.275E-02    1.69       0.0  T
   2    -96.1860604 -0.479896E-06  0.161E-02    1.68       1.0  T
   3    -96.1860584  0.194855E-05  0.627E-03    1.68       2.0  T
   4    -96.1860607 -0.221395E-05  0.804E-04    1.68      15.8  T
   5    -96.1860607 -0.225242E-07  0.361E-04    1.68      35.2  T
   6    -96.1860607 -0.819355E-09  0.189E-04    1.68      67.3  T
     SCC iter.                  ...        0 min,  0.026 sec
     gradient                   ...        0 min,  0.074 sec
 * total energy  :   -94.8767147 Eh     change       -0.8499468E-05 Eh
   gradient norm :     0.0013864 Eh/α   predicted    -0.5213373E-05 ( -38.66%)
   displ. norm   :     0.0668930 α      lambda       -0.4417493E-05
   maximum displ.:     0.0343895 α      in ANC's #6, #13, #14, ...

........................................................................
.............................. CYCLE   30 ..............................
........................................................................

 iter      E             dE          RMSdq      gap      omega  full diag
   1    -96.1859468 -0.961859E+02  0.162E-02    1.68       0.0  T
   2    -96.1859470 -0.126572E-06  0.953E-03    1.69       1.3  T
   3    -96.1859466  0.396140E-06  0.282E-03    1.68       4.5  T
   4    -96.1859470 -0.451902E-06  0.493E-04    1.68      25.8  T
   5    -96.1859470 -0.890029E-08  0.233E-04    1.68      54.6  T
     SCC iter.                  ...        0 min,  0.054 sec
     gradient                   ...        0 min,  0.047 sec
 * total energy  :   -94.8767197 Eh     change       -0.4998330E-05 Eh
   gradient norm :     0.0009866 Eh/α   predicted    -0.2213925E-05 ( -55.71%)
   displ. norm   :     0.0810406 α      lambda       -0.7278317E-05
   maximum displ.:     0.0362593 α      in ANC's #9, #18, #11, ...

   *** GEOMETRY OPTIMIZATION CONVERGED AFTER 30 ITERATIONS ***

------------------------------------------------------------------------
 total energy gain   :        -0.0264681 Eh      -16.6090 kcal/mol
 total RMSD          :         0.4127467 a0        0.2184 Å
 total power (kW/mol):        -2.3163986 (step)  -15.9264 (real)
------------------------------------------------------------------------

 ANCopt (total)                0 d,  0 h,  0 min,  4.363 sec
 optimizer setup                ...        0 min,  0.000 sec (  0.002%)
 model hessian                  ...        0 min,  0.092 sec (  2.099%)
 ANC generation                 ...        0 min,  0.007 sec (  0.152%)
 coordinate transformation      ...        0 min,  0.000 sec (  0.011%)
 single point calculation       ...        0 min,  4.252 sec ( 97.440%)
 optimization log               ...        0 min,  0.007 sec (  0.153%)
 hessian update                 ...        0 min,  0.001 sec (  0.016%)
 rational function              ...        0 min,  0.003 sec (  0.070%)

================
 final structure:
================
62
 xtb: 6.7.1 (edcfbbe)
C           -7.27328891847357        1.59951491051195       -0.91967405914005
C           -6.33994337785771        1.92556600609319        0.21056040780767
C           -4.97527021473896        1.31998261448535        0.11005287885821
C           -3.85086467751669        2.07022652092094        0.29679772764923
C           -3.87810855154318        3.53895927890023        0.57600020060940
C           -2.57929901329425        1.42738027765710        0.18573521108095
C           -1.33952293635276        2.05986238791370        0.34242223617345
N           -0.18810129845612        1.44103201068422        0.24790204926232
C           -0.22715300026507        0.12567736794121       -0.01604646138859
N            0.91439781921260       -0.58106977477826       -0.12455737497482
C            2.24359035169474       -0.19861935668286       -0.00155034015907
N            3.09550302663126       -1.20150056152331       -0.19286886952961
C            4.38812093340190       -0.97695923344301       -0.09437890233808
C            4.94729227792678        0.27751218085499        0.20062920575649
C            4.03099922990251        1.32534530013055        0.39209228061368
C            2.67579451490614        1.09282250672194        0.29466869283951
N            6.29821248670988        0.45906207750141        0.29743839782652
C            7.23594735408016       -0.49274276423017       -0.25649926856881
C            8.51928489165793        0.24682178729710       -0.64986991140902
N            9.17024230109858        0.89152142179266        0.47916225708591
C            8.22721032926848        1.28437197240545        1.51883143125092
C            6.87517044689657        1.63796867610917        0.90651086798587
N           -1.34200157118370       -0.58715147485882       -0.18827032083564
C           -2.50908054196675        0.03820589293432       -0.08849177246339
N           -3.64817037176881       -0.68679919982787       -0.25427140696583
C           -3.52712080059313       -2.11993212883011       -0.52200596999681
C           -4.24701012853599       -2.57798944593069       -1.80855279334326
C           -5.23111625879928       -3.66256020559659       -1.36367887495929
C           -4.59291872619251       -4.23930640223843       -0.10364727521219
C           -4.08874052409876       -2.99134081137129        0.61362682282466
C           -4.91565547292538       -0.11767446175223       -0.15875741730705
O           -5.90484419237175       -0.81880095624537       -0.28084521506901
O           -6.65671262407544        2.64270000323849        1.13193268198725
H           -7.53165470713256        0.54355500319196       -0.85335963794429
H           -8.17206343293663        2.20641252759425       -0.84386248630395
H           -6.78144324065451        1.76378312114439       -1.87666524595670
H           -3.41247724340380        3.73597986162029        1.54062708405384
H           -4.89289771321748        3.91874188137967        0.60938208104680
H           -3.31862065285317        4.07703628276569       -0.18867636214555
H           -1.27347287520295        3.11742594184251        0.55802625901461
H            0.79389636097574       -1.56505598904127       -0.33135859969312
H            5.00753682472128       -1.84922900607148       -0.24626897660522
H            4.37718523067316        2.32538905926357        0.60032179959831
H            1.95748072694683        1.88157200074608        0.43396884507864
H            7.47123165009892       -1.28779834567424        0.46812990645334
H            6.80216601563247       -0.95746280221945       -1.14577074938891
H            9.21539234395094       -0.44311867689295       -1.12844012333506
H            8.26107591709449        1.02160396002401       -1.38122921673756
H            9.88503499125530        0.29445632026560        0.87824959682982
H            8.06715420721585        0.49166997840278        2.26683121645931
H            8.63574087717715        2.15758833497542        2.03705400786549
H            6.21312922004294        1.99051502204167        1.70114705627340
H            7.00763814711069        2.44841589312449        0.17625764411908
H           -2.45402882286795       -2.28927917749536       -0.61937891556127
H           -4.75700218818174       -1.75155315019837       -2.29896832884287
H           -3.51518038906270       -2.98558310168172       -2.50706011420437
H           -6.18321430035054       -3.20118844288147       -1.10527432368101
H           -5.39702287571335       -4.41187516402784       -2.13625309126418
H           -3.75455317312311       -4.88767524760770       -0.36637783647374
H           -5.29706111205223       -4.80814899774019        0.50097425616271
H           -3.33327620067863       -3.20421585068536        1.36915281158099
H           -4.92743634784410       -2.48374765294490        1.08782432764953

 Bond Distances (Angstroems)
 ---------------------------
C1-C2=1.5016         C1-H34=1.0891        C1-H35=1.0871        C1-H36=1.0885        C2-C1=1.5016         C2-C3=1.4964         
C2-O33=1.2098        C3-C2=1.4964         C3-C4=1.3646         C3-C31=1.4638        C4-C3=1.3646         C4-C5=1.4953         
C4-C6=1.4291         C5-C4=1.4953         C5-H37=1.0891        C5-H38=1.0840        C5-H39=1.0896        C6-C4=1.4291         
C6-C7=1.4006         C6-C24=1.4177        C7-C6=1.4006         C7-N8=1.3106         C7-H40=1.0813        N8-C7=1.3106         
N8-C9=1.3421         C9-N8=1.3421         C9-N10=1.3470        C9-N23=1.3344        N10-C9=1.3470        N10-C11=1.3886       
N10-H41=1.0127       C11-N10=1.3886       C11-N12=1.3297       C11-C16=1.3937       N12-C11=1.3297       N12-C13=1.3157       
C13-N12=1.3157       C13-C14=1.4048       C13-H42=1.0806       C14-C13=1.4048       C14-C15=1.4051       C14-N17=1.3665       
C15-C14=1.4051       C15-C16=1.3785       C15-H43=1.0786       C16-C11=1.3937       C16-C15=1.3785       C16-H44=1.0759       
N17-C14=1.3665       N17-C18=1.4464       N17-C22=1.4470       C18-N17=1.4464       C18-C19=1.5325       C18-H45=1.1012       
C18-H46=1.0931       C19-C18=1.5325       C19-N20=1.4540       C19-H47=1.0907       C19-H48=1.0963       N20-C19=1.4540       
N20-C21=1.4576       N20-H49=1.0133       C21-N20=1.4576       C21-C22=1.5258       C21-H50=1.1016       C21-H51=1.0945       
C22-N17=1.4470       C22-C21=1.5258       C22-H52=1.0927       C22-H53=1.0989       N23-C9=1.3344        N23-C24=1.3278       
C24-C6=1.4177        C24-N23=1.3278       C24-N25=1.3604       N25-C24=1.3604       N25-C26=1.4629       N25-C31=1.3927       
C26-N25=1.4629       C26-C27=1.5438       C26-C30=1.5377       C26-H54=1.0907       C27-C26=1.5438       C27-C28=1.5306       
C27-H55=1.0879       C27-H56=1.0907       C28-C27=1.5306       C28-C29=1.5257       C28-H57=1.0891       C28-H58=1.0890       
C29-C28=1.5257       C29-C30=1.5252       C29-H59=1.0919       C29-H60=1.0886       C30-C26=1.5377       C30-C29=1.5252       
C30-H61=1.0894       C30-H62=1.0890       C31-C3=1.4638        C31-N25=1.3927       C31-O32=1.2186       O32-C31=1.2186       
O33-C2=1.2098        H34-C1=1.0891        H35-C1=1.0871        H36-C1=1.0885        H37-C5=1.0891        H38-C5=1.0840        
H39-C5=1.0896        H40-C7=1.0813        H41-N10=1.0127       H42-C13=1.0806       H43-C15=1.0786       H44-C16=1.0759       
H45-C18=1.1012       H46-C18=1.0931       H47-C19=1.0907       H48-C19=1.0963       H49-N20=1.0133       H50-C21=1.1016       
H51-C21=1.0945       H52-C22=1.0927       H53-C22=1.0989       H54-C26=1.0907       H55-C27=1.0879       H56-C27=1.0907       
H57-C28=1.0891       H58-C28=1.0890       H59-C29=1.0919       H60-C29=1.0886       H61-C30=1.0894       H62-C30=1.0890       
 C  H  Rav=1.0896 sigma=0.0060  Rmin=1.0759  Rmax=1.1016    27
 C  C  Rav=1.4670 sigma=0.0616  Rmin=1.3646  Rmax=1.5438    19
 N  H  Rav=1.0130 sigma=0.0003  Rmin=1.0127  Rmax=1.0133     2
 N  C  Rav=1.3802 sigma=0.0541  Rmin=1.3106  Rmax=1.4629    16
 O  C  Rav=1.2142 sigma=0.0044  Rmin=1.2098  Rmax=1.2186     2

 selected bond angles (degree)
 --------------------
H34-C1-C2=108.19               H35-C1-C2=109.89               H35-C1-H34=109.93              H36-C1-C2=110.37               
H36-C1-H34=107.88              H36-C1-H35=110.53              C3-C2-C1=115.37                O33-C2-C1=122.63               
O33-C2-C3=122.00               C4-C3-C2=121.32                C31-C3-C2=116.55               C31-C3-C4=122.11               
C5-C4-C3=123.41                C6-C4-C3=118.37                C6-C4-C5=118.20                H37-C5-C4=109.59               
H38-C5-C4=111.53               H38-C5-H37=108.03              H39-C5-C4=110.16               H39-C5-H37=108.22              
H39-C5-H38=109.22              C7-C6-C4=125.15                C24-C6-C4=119.99               C24-C6-C7=114.85               
N8-C7-C6=123.81                H40-C7-C6=121.20               H40-C7-N8=114.99               C9-N8-C7=116.83                
N10-C9-N8=120.36               N23-C9-N8=124.97               N23-C9-N10=114.67              C11-N10-C9=131.27              
H41-N10-C9=115.18              H41-N10-C11=113.55             

 selected dihedral angles (degree)
 ---------------------------------
C3-C2-C1-H34= 69.14           C3-C2-C1-H35=189.17           C3-C2-C1-H36=311.32           O33-C2-C1-H34=248.14          
O33-C2-C1-H35=  8.17          O33-C2-C1-H36=130.31          C4-C3-C2-C1=131.54            C4-C3-C2-O33=312.53           
C31-C3-C2-C1=309.82           C31-C3-C2-O33=130.82          C5-C4-C3-C2=358.33            C5-C4-C3-C31=180.15           
C6-C4-C3-C2=180.02            C6-C4-C3-C31=  1.83           H37-C5-C4-C3=119.59           H37-C5-C4-C6=297.91           
H38-C5-C4-C3=  0.00           H38-C5-C4-C6=178.33           H39-C5-C4-C3=238.56           H39-C5-C4-C6= 56.87           
C7-C6-C4-C3=179.65            C7-C6-C4-C5=  1.25            C24-C6-C4-C3=358.89           C24-C6-C4-C5=180.48           
N8-C7-C6-C4=179.29            N8-C7-C6-C24=  0.00           H40-C7-C6-C4=359.50           H40-C7-C6-C24=180.23          
C9-N8-C7-C6=  0.06            C9-N8-C7-H40=179.86           N10-C9-N8-C7=180.19           N23-C9-N8-C7=  0.07           
C11-N10-C9-N8=  0.46          C11-N10-C9-N23=180.56         H41-N10-C9-N8=180.41          H41-N10-C9-N23=  0.51         
           -------------------------------------------------
          |                Final Singlepoint                |
           -------------------------------------------------

          ...................................................
          :                      SETUP                      :
          :.................................................:
          :  # basis functions                 161          :
          :  # atomic orbitals                 161          :
          :  # shells                           95          :
          :  # electrons                       172          :
          :  max. iterations                   250          :
          :  Hamiltonian                  GFN2-xTB          :
          :  restarted?                      false          :
          :  GBSA solvation                  false          :
          :  PC potential                    false          :
          :  electronic temp.          300.0000000     K    :
          :  accuracy                    1.0000000          :
          :  -> integral cutoff          0.2500000E+02      :
          :  -> integral neglect         0.1000000E-07      :
          :  -> SCF convergence          0.1000000E-05 Eh   :
          :  -> wf. convergence          0.1000000E-03 e    :
          :  Broyden damping             0.4000000          :
          :  net charge                          0          :
          :  unpaired electrons                  0          :
          ...................................................

 iter      E             dE          RMSdq      gap      omega  full diag
   1    -96.1859470 -0.961859E+02  0.124E-04    1.68       0.0  T
   2    -96.1859470 -0.113062E-09  0.825E-05    1.68     153.9  T
   3    -96.1859470 -0.619451E-10  0.557E-05    1.68     227.9  T

   *** convergence criteria satisfied after 3 iterations ***

         #    Occupation            Energy/Eh            Energy/eV
      -------------------------------------------------------------
         1        2.0000           -0.7010901             -19.0776
       ...           ...                  ...                  ...
        80        2.0000           -0.3971926             -10.8082
        81        2.0000           -0.3889169             -10.5830
        82        2.0000           -0.3833431             -10.4313
        83        2.0000           -0.3754107             -10.2154
        84        2.0000           -0.3711729             -10.1001
        85        2.0000           -0.3682361             -10.0202
        86        2.0000           -0.3497236              -9.5165 (HOMO)
        87                         -0.2878020              -7.8315 (LUMO)
        88                         -0.2585258              -7.0348
        89                         -0.2410258              -6.5586
        90                         -0.2340195              -6.3680
        91                         -0.2247749              -6.1164
       ...                                ...                  ...
       161                          0.6960632              18.9408
      -------------------------------------------------------------
                  HL-Gap            0.0619216 Eh            1.6850 eV
             Fermi-level           -0.3187628 Eh           -8.6740 eV

 SCC (total)                   0 d,  0 h,  0 min,  0.098 sec
 SCC setup                      ...        0 min,  0.001 sec (  0.606%)
 Dispersion                     ...        0 min,  0.001 sec (  0.810%)
 classical contributions        ...        0 min,  0.000 sec (  0.306%)
 integral evaluation            ...        0 min,  0.036 sec ( 36.445%)
 iterations                     ...        0 min,  0.013 sec ( 13.164%)
 molecular gradient             ...        0 min,  0.047 sec ( 48.359%)
 printout                       ...        0 min,  0.000 sec (  0.302%)

         :::::::::::::::::::::::::::::::::::::::::::::::::::::
         ::                     SUMMARY                     ::
         :::::::::::::::::::::::::::::::::::::::::::::::::::::
         :: total energy             -94.876719719167 Eh    ::
         :: gradient norm              0.000989009743 Eh/a0 ::
         :: HOMO-LUMO gap              1.684971591786 eV    ::
         ::.................................................::
         :: SCC energy               -96.186306565090 Eh    ::
         :: -> isotropic ES            0.109580791796 Eh    ::
         :: -> anisotropic ES          0.006381575592 Eh    ::
         :: -> anisotropic XC          0.052546514894 Eh    ::
         :: -> dispersion             -0.070314674882 Eh    ::
         :: repulsion energy           1.309586845923 Eh    ::
         :: add. restraining           0.000000000000 Eh    ::
         :: total charge              -0.000000000000 e     ::
         :::::::::::::::::::::::::::::::::::::::::::::::::::::

           -------------------------------------------------
          |                Property Printout                |
           -------------------------------------------------

    * Orbital Energies and Occupations

         #    Occupation            Energy/Eh            Energy/eV
      -------------------------------------------------------------
         1        2.0000           -0.7010901             -19.0776
       ...           ...                  ...                  ...
        74        2.0000           -0.4309747             -11.7274
        75        2.0000           -0.4296506             -11.6914
        76        2.0000           -0.4199751             -11.4281
        77        2.0000           -0.4176660             -11.3653
        78        2.0000           -0.4138869             -11.2624
        79        2.0000           -0.4043228             -11.0022
        80        2.0000           -0.3971926             -10.8082
        81        2.0000           -0.3889169             -10.5830
        82        2.0000           -0.3833431             -10.4313
        83        2.0000           -0.3754107             -10.2154
        84        2.0000           -0.3711729             -10.1001
        85        2.0000           -0.3682361             -10.0202
        86        2.0000           -0.3497236              -9.5165 (HOMO)
        87                         -0.2878020              -7.8315 (LUMO)
        88                         -0.2585258              -7.0348
        89                         -0.2410258              -6.5586
        90                         -0.2340195              -6.3680
        91                         -0.2247749              -6.1164
        92                         -0.1991733              -5.4198
        93                         -0.1553472              -4.2272
        94                         -0.0975604              -2.6548
        95                         -0.0861923              -2.3454
        96                         -0.0219094              -0.5962
        97                         -0.0167877              -0.4568
       ...                                ...                  ...
       161                          0.6960632              18.9408
      -------------------------------------------------------------
                  HL-Gap            0.0619216 Eh            1.6850 eV
             Fermi-level           -0.3187628 Eh           -8.6740 eV

     #   Z          covCN         q      C6AA      α(0)
     1   6 C        3.754    -0.140    23.254     6.876
     2   6 C        2.817     0.251    22.791     7.822
     3   6 C        2.964    -0.071    29.762     8.948
     4   6 C        2.957     0.033    27.255     8.563
     5   6 C        3.758    -0.115    22.743     6.799
     6   6 C        2.979    -0.052    29.282     8.876
     7   6 C        2.925     0.076    26.293     8.409
     8   7 N        1.837    -0.280    28.109     7.857
     9   6 C        2.881     0.241    22.991     7.861
    10   7 N        2.726    -0.134    23.893     7.260
    11   6 C        2.891     0.138    24.997     8.197
    12   7 N        1.852    -0.256    27.515     7.774
    13   6 C        2.907     0.028    27.372     8.579
    14   6 C        2.904     0.045    26.997     8.520
    15   6 C        2.933    -0.046    29.132     8.852
    16   6 C        2.910    -0.060    29.492     8.905
    17   7 N        2.741    -0.100    23.208     7.155
    18   6 C        3.746    -0.000    20.656     6.483
    19   6 C        3.747     0.008    20.503     6.459
    20   7 N        2.678    -0.257    26.682     7.672
    21   6 C        3.745     0.014    20.412     6.445
    22   6 C        3.748     0.002    20.611     6.475
    23   7 N        1.861    -0.324    29.261     8.018
    24   6 C        2.920     0.164    24.464     8.111
    25   7 N        2.749    -0.072    22.643     7.067
    26   6 C        3.820     0.036    19.955     6.357
    27   6 C        3.820    -0.057    21.579     6.611
    28   6 C        3.829    -0.061    21.642     6.619
    29   6 C        3.829    -0.056    21.560     6.607
    30   6 C        3.828    -0.061    21.652     6.621
    31   6 C        2.773     0.267    22.498     7.768
    32   8 O        0.859    -0.433    22.359     6.340
    33   8 O        0.857    -0.368    21.045     6.151
    34   1 H        0.925     0.104     1.747     2.067
    35   1 H        0.925     0.064     2.155     2.296
    36   1 H        0.925     0.055     2.253     2.347
    37   1 H        0.925     0.063     2.160     2.298
    38   1 H        0.925     0.071     2.069     2.249
    39   1 H        0.925     0.052     2.293     2.368
    40   1 H        0.925     0.050     2.320     2.382
    41   1 H        0.860     0.209     1.060     1.613
    42   1 H        0.926     0.033     2.549     2.497
    43   1 H        0.926     0.033     2.544     2.494
    44   1 H        0.926     0.068     2.103     2.268
    45   1 H        0.923     0.030     2.584     2.514
    46   1 H        0.924     0.043     2.408     2.426
    47   1 H        0.924     0.037     2.488     2.467
    48   1 H        0.924     0.045     2.383     2.414
    49   1 H        0.860     0.137     1.493     1.914
    50   1 H        0.923     0.018     2.761     2.598
    51   1 H        0.924     0.042     2.419     2.432
    52   1 H        0.924     0.047     2.359     2.402
    53   1 H        0.923     0.043     2.407     2.426
    54   1 H        0.924     0.069     2.095     2.263
    55   1 H        0.925     0.045     2.387     2.416
    56   1 H        0.924     0.031     2.565     2.505
    57   1 H        0.925     0.061     2.187     2.313
    58   1 H        0.925     0.031     2.578     2.511
    59   1 H        0.924     0.032     2.565     2.504
    60   1 H        0.925     0.036     2.496     2.471
    61   1 H        0.925     0.030     2.587     2.515
    62   1 H        0.925     0.059     2.215     2.327

 Mol. C6AA /au·bohr⁶  :      42317.469738
 Mol. C8AA /au·bohr⁸  :     982234.127578
 Mol. α(0) /au        :        315.354814


Wiberg/Mayer (AO) data.
largest (>0.10) Wiberg bond orders for each atom

 ---------------------------------------------------------------------------
     #   Z sym  total        # sym  WBO       # sym  WBO       # sym  WBO
 ---------------------------------------------------------------------------
     1   6 C    3.990 --     2 C    1.012    35 H    0.982    36 H    0.966
                            34 H    0.936
     2   6 C    3.919 --    33 O    1.829     1 C    1.012     3 C    1.000
     3   6 C    3.961 --     4 C    1.581    31 C    1.075     2 C    1.000
     4   6 C    3.977 --     3 C    1.581     6 C    1.176     5 C    1.034
     5   6 C    3.992 --     4 C    1.034    38 H    0.977    39 H    0.966
                            37 H    0.962
     6   6 C    3.974 --     7 C    1.329    24 C    1.219     4 C    1.176
     7   6 C    3.955 --     8 N    1.495     6 C    1.329    40 H    0.958
     8   7 N    3.036 --     7 C    1.495     9 C    1.264
     9   6 C    3.955 --    23 N    1.309     8 N    1.264    10 N    1.229
    10   7 N    3.502 --     9 C    1.229    11 C    1.082    41 H    0.921
    11   6 C    3.952 --    12 N    1.357    16 C    1.331    10 N    1.082
    12   7 N    3.049 --    13 C    1.461    11 C    1.357
    13   6 C    3.978 --    12 N    1.461    14 C    1.307    42 H    0.960
    14   6 C    3.961 --    15 C    1.313    13 C    1.307    17 N    1.174
    15   6 C    3.989 --    16 C    1.489    14 C    1.313    43 H    0.966
    16   6 C    3.983 --    15 C    1.489    11 C    1.331    44 H    0.958
    17   7 N    3.396 --    14 C    1.174    18 C    0.995    22 C    0.994
    18   6 C    3.981 --    17 N    0.995    19 C    0.991    46 H    0.968
                            45 H    0.965
    19   6 C    3.987 --    20 N    1.016    18 C    0.991    47 H    0.976
                            48 H    0.970
    20   7 N    3.061 --    19 C    1.016    21 C    1.010    49 H    0.961
    21   6 C    3.988 --    20 N    1.010    22 C    1.003    51 H    0.971
                            50 H    0.971
    22   6 C    3.981 --    21 C    1.003    17 N    0.994    52 H    0.968
                            53 H    0.964
    23   7 N    3.025 --    24 C    1.364     9 C    1.309
    24   6 C    3.965 --    23 N    1.364     6 C    1.219    25 N    1.197
    25   7 N    3.595 --    24 C    1.197    31 C    1.108    26 C    0.953
                            32 O    0.137
    26   6 C    3.949 --    30 C    0.982    27 C    0.981    54 H    0.957
                            25 N    0.953
    27   6 C    3.994 --    28 C    1.006    56 H    0.981    26 C    0.981
                            55 H    0.978
    28   6 C    3.995 --    29 C    1.007    27 C    1.006    58 H    0.980
                            57 H    0.977
    29   6 C    3.997 --    28 C    1.007    30 C    1.006    59 H    0.980
                            60 H    0.979
    30   6 C    3.993 --    29 C    1.006    26 C    0.982    61 H    0.980
                            62 H    0.974
    31   6 C    3.952 --    32 O    1.650    25 N    1.108     3 C    1.075
    32   8 O    1.976 --    31 C    1.650    25 N    0.137
    33   8 O    2.055 --     2 C    1.829
    34   1 H    0.989 --     1 C    0.936
    35   1 H    0.995 --     1 C    0.982
    36   1 H    0.997 --     1 C    0.966
    37   1 H    0.994 --     5 C    0.962
    38   1 H    0.994 --     5 C    0.977
    39   1 H    0.995 --     5 C    0.966
    40   1 H    0.997 --     7 C    0.958
    41   1 H    0.956 --    10 N    0.921
    42   1 H    0.998 --    13 C    0.960
    43   1 H    0.998 --    15 C    0.966
    44   1 H    0.995 --    16 C    0.958
    45   1 H    0.996 --    18 C    0.965
    46   1 H    0.998 --    18 C    0.968
    47   1 H    0.998 --    19 C    0.976
    48   1 H    0.998 --    19 C    0.970
    49   1 H    0.981 --    20 N    0.961
    50   1 H    1.000 --    21 C    0.971
    51   1 H    0.998 --    21 C    0.971
    52   1 H    0.997 --    22 C    0.968
    53   1 H    0.995 --    22 C    0.964
    54   1 H    0.995 --    26 C    0.957
    55   1 H    0.998 --    27 C    0.978
    56   1 H    0.999 --    27 C    0.981
    57   1 H    0.996 --    28 C    0.977
    58   1 H    0.999 --    28 C    0.980
    59   1 H    0.999 --    29 C    0.980
    60   1 H    0.998 --    29 C    0.979
    61   1 H    0.999 --    30 C    0.980
    62   1 H    0.996 --    30 C    0.974
 ---------------------------------------------------------------------------

Topologies differ in total number of bonds
Writing topology from bond orders to xtbtopo.mol

molecular dipole:
                 x           y           z       tot (Debye)
 q only:        3.250      -0.246      -0.644
   full:        3.213      -0.063      -0.525       8.276
molecular quadrupole (traceless):
                xx          xy          yy          xz          yz          zz
 q only:       -0.375      10.143       3.932      18.730      -1.637      -3.557
  q+dip:       -4.883      -0.213       5.413      23.581      -3.643      -0.530
   full:       -7.301       0.209       2.778      23.462      -5.155       4.522

           -------------------------------------------------
          |                Geometry Summary                 |
           -------------------------------------------------

      molecular mass/u    :      447.5336757
   center of mass at/Å    :       -0.2619028       0.1171555       0.0234007
  moments of inertia/u·Å² :        0.1671011E+04   0.1168367E+05   0.1308689E+05
rotational constants/cm⁻¹ :        0.1008829E-01   0.1442838E-02   0.1288132E-02

 * 61 selected distances

     #   Z          #   Z                                           value/Å
     3   6 C        4   6 C                                       1.3645614
     4   6 C        6   6 C                                       1.4291486
     6   6 C        7   6 C                                       1.4005819
     7   6 C        8   7 N                                       1.3105942
     8   7 N        9   6 C                                       1.3421446
     9   6 C       10   7 N                                       1.3469984
    10   7 N       11   6 C                                       1.3885792
    11   6 C       12   7 N                                       1.3297101
    12   7 N       13   6 C                                       1.3156673
    13   6 C       14   6 C                                       1.4047780
    14   6 C       15   6 C                                       1.4050643
    11   6 C       16   6 C                                       1.3936888
    15   6 C       16   6 C                                       1.3784551
    14   6 C       17   7 N                                       1.3664985
    17   7 N       18   6 C                                       1.4464185
    18   6 C       19   6 C                                       1.5325312
    19   6 C       20   7 N                                       1.4539935
    20   7 N       21   6 C                                       1.4575847
    17   7 N       22   6 C                                       1.4469523
    21   6 C       22   6 C                                       1.5257717
     9   6 C       23   7 N                                       1.3344189
     6   6 C       24   6 C                                       1.4177224
    23   7 N       24   6 C                                       1.3278182
    24   6 C       25   7 N                                       1.3603828
    25   7 N       26   6 C                                       1.4629440
    27   6 C       28   6 C                                       1.5305789
    28   6 C       29   6 C                                       1.5256514
    26   6 C       30   6 C                                       1.5376710 (max)
    29   6 C       30   6 C                                       1.5251545
    25   7 N       31   6 C                                       1.3926754
    31   6 C       32   8 O                                       1.2185969
     2   6 C       33   8 O                                       1.2097731
     1   6 C       34   1 H                                       1.0891290
     1   6 C       35   1 H                                       1.0871375
     1   6 C       36   1 H                                       1.0884524
     5   6 C       37   1 H                                       1.0890982
     5   6 C       38   1 H                                       1.0840417
     5   6 C       39   1 H                                       1.0896256
     7   6 C       40   1 H                                       1.0813365
    10   7 N       41   1 H                                       1.0126778 (min)
    13   6 C       42   1 H                                       1.0805561
    15   6 C       43   1 H                                       1.0785602
    16   6 C       44   1 H                                       1.0758742
    18   6 C       45   1 H                                       1.1011629
    18   6 C       46   1 H                                       1.0931308
    19   6 C       47   1 H                                       1.0906939
    19   6 C       48   1 H                                       1.0962873
    20   7 N       49   1 H                                       1.0132553
    21   6 C       50   1 H                                       1.1015890
    21   6 C       51   1 H                                       1.0945131
    22   6 C       52   1 H                                       1.0927188
    22   6 C       53   1 H                                       1.0989278
    26   6 C       54   1 H                                       1.0907275
    27   6 C       55   1 H                                       1.0879322
    27   6 C       56   1 H                                       1.0906970
    28   6 C       57   1 H                                       1.0890949
    28   6 C       58   1 H                                       1.0889761
    29   6 C       59   1 H                                       1.0919096
    29   6 C       60   1 H                                       1.0885614
    30   6 C       61   1 H                                       1.0894319
    30   6 C       62   1 H                                       1.0890018

[...]
    2    7 N      8, 10, 12, 17, 20, 23, 25
    3    8 O      32, 33
    4    1 H      34-62

           -------------------------------------------------
          |                Calculation Setup                |
           -------------------------------------------------

          program call               : xtb /rds/general/user/hgt20/home/callum/QDESCP/Palbociclib_rdkit_conf_23/Palbociclib_rdkit_conf_23.xyz --acc 1 --gfn 2 --chrg 0 --uhf 2 --etemp 300 --input /rds/general/user/hgt20/home/callum/QDESCP/Palbociclib_rdkit_conf_23/Palbociclib_rdkit_conf_23_xtb.inp -P 1
          hostname                   : login-c
          coordinate file            : /rds/general/user/hgt20/home/callum/QDESCP/Palbociclib_rdkit_conf_23/Palbociclib_rdkit_conf_23.xyz
          omp threads                :                     1


           -------------------------------------------------
          |                 G F N 2 - x T B                 |
           -------------------------------------------------

        Reference                      10.1021/acs.jctc.8b01176
      * Hamiltonian:
        H0-scaling (s, p, d)           1.850000    2.230000    2.230000
        zeta-weighting                 0.500000
      * Dispersion:
        s8                             2.700000
        a1                             0.520000
        a2                             5.000000
        s9                             5.000000
      * Repulsion:
        kExp                           1.500000    1.000000
        rExp                           1.000000
      * Coulomb:
        alpha                          2.000000
        third order                    shell-resolved
        anisotropic                    true
        a3                             3.000000
        a5                             4.000000
        cn-shift                       1.200000
        cn-exp                         4.000000
        max-rad                        5.000000


          ...................................................
          :                      SETUP                      :
          :.................................................:
          :  # basis functions                 161          :
          :  # atomic orbitals                 161          :
          :  # shells                           95          :
          :  # electrons                       172          :
          :  max. iterations                   250          :
          :  Hamiltonian                  GFN2-xTB          :
          :  restarted?                      false          :
          :  GBSA solvation                  false          :
          :  PC potential                    false          :
          :  electronic temp.          300.0000000     K    :
          :  accuracy                    1.0000000          :
          :  -> integral cutoff          0.2500000E+02      :
          :  -> integral neglect         0.1000000E-07      :
          :  -> SCF convergence          0.1000000E-05 Eh   :
          :  -> wf. convergence          0.1000000E-03 e    :
          :  Broyden damping             0.4000000          :
          :  net charge                          0          :
          :  unpaired electrons                  2          :
          ...................................................

 iter      E             dE          RMSdq      gap      omega  full diag
   1    -95.8169531 -0.958170E+02  0.377E+00    0.87       0.0  T
   2    -95.6719467  0.145006E+00  0.282E+00    0.51       1.0  T
   3    -95.8013150 -0.129368E+00  0.199E+00    0.79       1.0  T
   4    -96.0398421 -0.238527E+00  0.105E+00    0.26       1.0  T
   5    -95.9777150  0.621272E-01  0.999E-01    0.57       1.0  T
   6    -96.0271191 -0.494041E-01  0.759E-01    0.59       1.0  T
   7    -96.0670084 -0.398893E-01  0.465E-01    0.40       1.0  T
   8    -96.0833547 -0.163463E-01  0.367E-01    0.50       1.0  T
   9    -96.0969952 -0.136404E-01  0.193E-01    0.36       1.0  T
  10    -96.0973560 -0.360861E-03  0.123E-01    0.34       1.0  T
  11    -96.0985866 -0.123058E-02  0.687E-02    0.34       1.0  T
  12    -96.0985871 -0.438046E-06  0.441E-02    0.34       1.0  T
  13    -96.0986935 -0.106458E-03  0.366E-02    0.31       1.0  T
  14    -96.0988760 -0.182469E-03  0.924E-03    0.32       1.4  T
  15    -96.0988783 -0.228574E-05  0.667E-03    0.32       1.9  T
  16    -96.0988830 -0.471768E-05  0.263E-03    0.32       4.8  T
  17    -96.0988839 -0.928766E-06  0.127E-03    0.32      10.0  T
  18    -96.0988841 -0.186148E-06  0.320E-04    0.32      39.7  T
  19    -96.0988841 -0.810822E-08  0.159E-04    0.32      79.6  T

   *** convergence criteria satisfied after 19 iterations ***

         #    Occupation            Energy/Eh            Energy/eV
      -------------------------------------------------------------
         1        2.0000           -0.6949110             -18.9095
       ...           ...                  ...                  ...
        81        2.0000           -0.3844826             -10.4623
        82        2.0000           -0.3814568             -10.3800
        83        2.0000           -0.3772765             -10.2662
        84        1.8843           -0.3662799              -9.9670
        85        1.7831           -0.3655670              -9.9476
        86        1.3326           -0.3636860              -9.8964
        87        0.9981           -0.2676948              -7.2843 (HOMO)
        88        0.0019           -0.2558217              -6.9613 (LUMO)
        89                         -0.2441224              -6.6429
        90                         -0.2308013              -6.2804
        91                         -0.2098366              -5.7099
        92                         -0.1955962              -5.3224
       ...                                ...                  ...
       161                          0.7169051              19.5080
      -------------------------------------------------------------
                  HL-Gap            0.0118731 Eh            0.3231 eV
             Fermi-level           -0.3130529 Eh           -8.5186 eV

 transition dipole moment (au) for excitation:          86          87
     X       Y       Z   
   2.7764   0.0190   0.0640  total (au/Debye):    2.777   7.059
 dE (eV)             :    2.612
 oscillator strength :  0.69802E+00

 SCC (total)                   0 d,  0 h,  0 min,  0.187 sec
 SCC setup                      ...        0 min,  0.001 sec (  0.358%)
 Dispersion                     ...        0 min,  0.001 sec (  0.515%)
 classical contributions        ...        0 min,  0.000 sec (  0.165%)
 integral evaluation            ...        0 min,  0.013 sec (  7.075%)
 iterations                     ...        0 min,  0.082 sec ( 44.137%)
 molecular gradient             ...        0 min,  0.078 sec ( 41.870%)
 printout                       ...        0 min,  0.011 sec (  5.875%)

         :::::::::::::::::::::::::::::::::::::::::::::::::::::
         ::                     SUMMARY                     ::
         :::::::::::::::::::::::::::::::::::::::::::::::::::::
         :: total energy             -94.789656793505 Eh    ::
         :: gradient norm              0.100428334974 Eh/a0 ::
         :: HOMO-LUMO gap              0.323083834080 eV    ::
         ::.................................................::
         :: SCC energy               -96.099243639428 Eh    ::
         :: -> isotropic ES            0.110730025064 Eh    ::
         :: -> anisotropic ES          0.005755089479 Eh    ::
         :: -> anisotropic XC          0.048790156696 Eh    ::
         :: -> dispersion             -0.070268538899 Eh    ::
         :: repulsion energy           1.309586845923 Eh    ::
         :: add. restraining           0.000000000000 Eh    ::
         :: total charge               0.000000000002 e     ::
         :::::::::::::::::::::::::::::::::::::::::::::::::::::

           -------------------------------------------------
          |                Property Printout                |
           -------------------------------------------------

    * Orbital Energies and Occupations

         #    Occupation            Energy/Eh            Energy/eV
      -------------------------------------------------------------
         1        2.0000           -0.6949110             -18.9095
       ...           ...                  ...                  ...
        75        2.0000           -0.4218905             -11.4802
        76        2.0000           -0.4150594             -11.2943
        77        2.0000           -0.4119538             -11.2098
        78        2.0000           -0.4069352             -11.0733
        79        2.0000           -0.3968129             -10.7978
        80        2.0000           -0.3871393             -10.5346
        81        2.0000           -0.3844826             -10.4623
        82        2.0000           -0.3814568             -10.3800
        83        2.0000           -0.3772765             -10.2662
        84        1.8843           -0.3662799              -9.9670
        85        1.7831           -0.3655670              -9.9476
        86        1.3326           -0.3636860              -9.8964
        87        0.9981           -0.2676948              -7.2843 (HOMO)
        88        0.0019           -0.2558217              -6.9613 (LUMO)
        89                         -0.2441224              -6.6429
        90                         -0.2308013              -6.2804
        91                         -0.2098366              -5.7099
        92                         -0.1955962              -5.3224
        93                         -0.1401609              -3.8140
        94                         -0.1083916              -2.9495
        95                         -0.0710391              -1.9331
        96                         -0.0432238              -1.1762
        97                         -0.0052102              -0.1418
        98                          0.0108149               0.2943
       ...                                ...                  ...
       161                          0.7169051              19.5080
      -------------------------------------------------------------
                  HL-Gap            0.0118731 Eh            0.3231 eV
             Fermi-level           -0.3130529 Eh           -8.5186 eV

     #   Z          covCN         q      C6AA      α(0)
     1   6 C        3.754    -0.135    23.150     6.861
     2   6 C        2.817     0.243    22.939     7.847
     3   6 C        2.964    -0.075    29.860     8.963
     4   6 C        2.957    -0.002    28.067     8.690
     5   6 C        3.758    -0.107    22.599     6.778
     6   6 C        2.979    -0.038    28.934     8.823
     7   6 C        2.925     0.038    27.145     8.544
     8   7 N        1.837    -0.264    27.707     7.801
     9   6 C        2.881     0.213    23.507     7.948
    10   7 N        2.726    -0.119    23.594     7.214
    11   6 C        2.891     0.144    24.870     8.176
    12   7 N        1.852    -0.254    27.473     7.768
    13   6 C        2.907     0.037    27.174     8.548
    14   6 C        2.904     0.042    27.050     8.528
    15   6 C        2.933    -0.042    29.054     8.840
    16   6 C        2.910    -0.053    29.315     8.878
    17   7 N        2.741    -0.071    22.623     7.064
    18   6 C        3.746    -0.005    20.738     6.496
    19   6 C        3.747     0.006    20.536     6.464
    20   7 N        2.678    -0.254    26.590     7.659
    21   6 C        3.745     0.012    20.447     6.450
    22   6 C        3.748    -0.003    20.696     6.489
    23   7 N        1.861    -0.317    29.081     7.993
    24   6 C        2.920     0.164    24.468     8.112
    25   7 N        2.749    -0.080    22.795     7.091
    26   6 C        3.820     0.040    19.889     6.347
    27   6 C        3.820    -0.057    21.577     6.611
    28   6 C        3.829    -0.060    21.637     6.619
    29   6 C        3.829    -0.056    21.551     6.605
    30   6 C        3.828    -0.061    21.649     6.621
    31   6 C        2.773     0.258    22.664     7.797
    32   8 O        0.859    -0.440    22.498     6.359
    33   8 O        0.857    -0.372    21.124     6.162
    34   1 H        0.925     0.099     1.797     2.097
    35   1 H        0.925     0.059     2.207     2.323
    36   1 H        0.925     0.052     2.296     2.369
    37   1 H        0.925     0.049     2.327     2.386
    38   1 H        0.925     0.064     2.153     2.294
    39   1 H        0.925     0.040     2.452     2.449
    40   1 H        0.925     0.040     2.454     2.450
    41   1 H        0.860     0.212     1.048     1.604
    42   1 H        0.926     0.039     2.458     2.452
    43   1 H        0.926     0.039     2.464     2.455
    44   1 H        0.926     0.079     1.989     2.206
    45   1 H        0.923     0.042     2.420     2.433
    46   1 H        0.924     0.051     2.304     2.374
    47   1 H        0.924     0.043     2.403     2.424
    48   1 H        0.924     0.050     2.326     2.385
    49   1 H        0.860     0.141     1.461     1.894
    50   1 H        0.923     0.023     2.692     2.566
    51   1 H        0.924     0.049     2.335     2.390
    52   1 H        0.924     0.056     2.248     2.345
    53   1 H        0.923     0.056     2.245     2.343
    54   1 H        0.924     0.064     2.149     2.292
    55   1 H        0.925     0.047     2.356     2.400
    56   1 H        0.924     0.029     2.598     2.521
    57   1 H        0.925     0.062     2.179     2.309
    58   1 H        0.925     0.029     2.606     2.525
    59   1 H        0.924     0.029     2.596     2.520
    60   1 H        0.925     0.035     2.518     2.481
    61   1 H        0.925     0.028     2.613     2.528
    62   1 H        0.925     0.062     2.180     2.309

 Mol. C6AA /au·bohr⁶  :      42288.378352
 Mol. C8AA /au·bohr⁸  :     982061.405107
 Mol. α(0) /au        :        315.264850


Wiberg/Mayer (AO) data.
largest (>0.10) Wiberg bond orders for each atom

 ---------------------------------------------------------------------------
     #   Z sym  total        # sym  WBO       # sym  WBO       # sym  WBO
 ---------------------------------------------------------------------------
     1   6 C    3.966 --     2 C    0.996    35 H    0.982    36 H    0.969
                            34 H    0.941
     2   6 C    3.891 --    33 O    1.769     3 C    1.024     1 C    0.996
     3   6 C    3.814 --     4 C    1.380    31 C    1.117     2 C    1.024
     4   6 C    3.894 --     3 C    1.380     6 C    1.255     5 C    1.025
     5   6 C    3.985 --     4 C    1.025    38 H    0.977    39 H    0.970
                            37 H    0.967
     6   6 C    3.889 --     4 C    1.255     7 C    1.219    24 C    1.196
     7   6 C    3.868 --     8 N    1.441     6 C    1.219    40 H    0.953
     8   7 N    2.993 --     7 C    1.441     9 C    1.300
     9   6 C    3.912 --     8 N    1.300    23 N    1.234    10 N    1.168
    10   7 N    3.466 --     9 C    1.168    11 C    1.149    41 H    0.920
    11   6 C    3.901 --    12 N    1.300    16 C    1.285    10 N    1.149
    12   7 N    3.004 --    13 C    1.480    11 C    1.300
    13   6 C    3.932 --    12 N    1.480    14 C    1.291    42 H    0.959
    14   6 C    3.909 --    13 C    1.291    15 C    1.273    17 N    1.186
    15   6 C    3.945 --    16 C    1.529    14 C    1.273    43 H    0.965
    16   6 C    3.957 --    15 C    1.529    11 C    1.285    44 H    0.954
    17   7 N    3.347 --    14 C    1.186    18 C    0.996    22 C    0.995
    18   6 C    3.973 --    17 N    0.996    19 C    0.988    46 H    0.967
                            45 H    0.960
    19   6 C    3.983 --    20 N    1.018    18 C    0.988    47 H    0.976
                            48 H    0.969
    20   7 N    3.063 --    19 C    1.018    21 C    1.010    49 H    0.959
    21   6 C    3.984 --    20 N    1.010    22 C    1.002    51 H    0.970
                            50 H    0.970
    22   6 C    3.974 --    21 C    1.002    17 N    0.995    52 H    0.966
                            53 H    0.957
    23   7 N    2.950 --    24 C    1.373     9 C    1.234
    24   6 C    3.947 --    23 N    1.373    25 N    1.200     6 C    1.196
    25   7 N    3.557 --    24 C    1.200    31 C    1.074    26 C    0.956
                            32 O    0.106
    26   6 C    3.944 --    30 C    0.983    27 C    0.982    25 N    0.956
                            54 H    0.953
    27   6 C    3.992 --    28 C    1.006    26 C    0.982    56 H    0.980
                            55 H    0.977
    28   6 C    3.994 --    29 C    1.007    27 C    1.006    58 H    0.980
                            57 H    0.977
    29   6 C    3.997 --    28 C    1.007    30 C    1.007    59 H    0.980
                            60 H    0.979
    30   6 C    3.989 --    29 C    1.007    26 C    0.983    61 H    0.980
                            62 H    0.971
    31   6 C    3.933 --    32 O    1.605     3 C    1.117    25 N    1.074
    32   8 O    1.912 --    31 C    1.605    25 N    0.106
    33   8 O    1.987 --     2 C    1.769
    34   1 H    0.988 --     1 C    0.941
    35   1 H    0.994 --     1 C    0.982
    36   1 H    0.996 --     1 C    0.969
    37   1 H    0.994 --     5 C    0.967
    38   1 H    0.995 --     5 C    0.977
    39   1 H    0.995 --     5 C    0.970
    40   1 H    0.987 --     7 C    0.953
    41   1 H    0.954 --    10 N    0.920
    42   1 H    0.998 --    13 C    0.959
    43   1 H    0.998 --    15 C    0.965
    44   1 H    0.993 --    16 C    0.954
    45   1 H    0.987 --    18 C    0.960
    46   1 H    0.995 --    18 C    0.967
    47   1 H    0.997 --    19 C    0.976
    48   1 H    0.996 --    19 C    0.969
    49   1 H    0.980 --    20 N    0.959
    50   1 H    0.998 --    21 C    0.970
    51   1 H    0.997 --    21 C    0.970
    52   1 H    0.994 --    22 C    0.966
    53   1 H    0.984 --    22 C    0.957
    54   1 H    0.993 --    26 C    0.953
    55   1 H    0.997 --    27 C    0.977
    56   1 H    0.998 --    27 C    0.980
    57   1 H    0.996 --    28 C    0.977
    58   1 H    0.999 --    28 C    0.980
    59   1 H    0.999 --    29 C    0.980
    60   1 H    0.998 --    29 C    0.979
    61   1 H    0.998 --    30 C    0.980
    62   1 H    0.994 --    30 C    0.971
 ---------------------------------------------------------------------------

Topologies differ in total number of bonds
Writing topology from bond orders to xtbtopo.mol

molecular dipole:
                 x           y           z       tot (Debye)
 q only:        5.795      -0.618      -0.626
   full:        5.813      -0.502      -0.519      14.890
molecular quadrupole (traceless):
                xx          xy          yy          xz          yz          zz
 q only:       11.148      17.101      -3.784      20.426      -2.001      -7.364
  q+dip:        6.480       6.899      -2.040      25.243      -4.043      -4.441
   full:        4.270       7.421      -4.540      25.188      -5.395       0.271


           -------------------------------------------------
          | TOTAL ENERGY              -94.789656793505 Eh   |
          | GRADIENT NORM               0.100428334974 Eh/α |
          | HOMO-LUMO GAP               0.323083834080 eV   |
           -------------------------------------------------

------------------------------------------------------------------------
 * finished run on 2025/05/15 at 16:20:37.828     
------------------------------------------------------------------------
 total:
 * wall-time:     0 d,  0 h,  0 min,  0.205 sec
 *  cpu-time:     0 d,  0 h,  0 min,  0.175 sec
 * ratio c/w:     0.853 speedup
 SCF:
 * wall-time:     0 d,  0 h,  0 min,  0.187 sec
 *  cpu-time:     0 d,  0 h,  0 min,  0.158 sec
 * ratio c/w:     0.846 speedup


