62
 energy: -94.876719719167 gnorm: 0.000989009743 xtb: 6.7.1 (edcfbbe)
C           -7.27328891847357        1.59951491051195       -0.91967405914005
C           -6.33994337785771        1.92556600609319        0.21056040780767
C           -4.97527021473896        1.31998261448535        0.11005287885821
C           -3.85086467751669        2.07022652092094        0.29679772764923
C           -3.87810855154318        3.53895927890023        0.57600020060940
C           -2.57929901329425        1.42738027765710        0.18573521108095
C           -1.33952293635276        2.05986238791370        0.34242223617345
N           -0.18810129845612        1.44103201068422        0.24790204926232
C           -0.22715300026507        0.12567736794121       -0.01604646138859
N            0.91439781921260       -0.58106977477826       -0.12455737497482
C            2.24359035169474       -0.19861935668286       -0.00155034015907
N            3.09550302663126       -1.20150056152331       -0.19286886952961
C            4.38812093340190       -0.97695923344301       -0.09437890233808
C            4.94729227792678        0.27751218085499        0.20062920575649
C            4.03099922990251        1.32534530013055        0.39209228061368
C            2.67579451490614        1.09282250672194        0.29466869283951
N            6.29821248670988        0.45906207750141        0.29743839782652
C            7.23594735408016       -0.49274276423017       -0.25649926856881
C            8.51928489165793        0.24682178729710       -0.64986991140902
N            9.17024230109858        0.89152142179266        0.47916225708591
C            8.22721032926848        1.28437197240545        1.51883143125092
C            6.87517044689657        1.63796867610917        0.90651086798587
N           -1.34200157118370       -0.58715147485882       -0.18827032083564
C           -2.50908054196675        0.03820589293432       -0.08849177246339
N           -3.64817037176881       -0.68679919982787       -0.25427140696583
C           -3.52712080059313       -2.11993212883011       -0.52200596999681
C           -4.24701012853599       -2.57798944593069       -1.80855279334326
C           -5.23111625879928       -3.66256020559659       -1.36367887495929
C           -4.59291872619251       -4.23930640223843       -0.10364727521219
C           -4.08874052409876       -2.99134081137129        0.61362682282466
C           -4.91565547292538       -0.11767446175223       -0.15875741730705
O           -5.90484419237175       -0.81880095624537       -0.28084521506901
O           -6.65671262407544        2.64270000323849        1.13193268198725
H           -7.53165470713256        0.54355500319196       -0.85335963794429
H           -8.17206343293663        2.20641252759425       -0.84386248630395
H           -6.78144324065451        1.76378312114439       -1.87666524595670
H           -3.41247724340380        3.73597986162029        1.54062708405384
H           -4.89289771321748        3.91874188137967        0.60938208104680
H           -3.31862065285317        4.07703628276569       -0.18867636214555
H           -1.27347287520295        3.11742594184251        0.55802625901461
H            0.79389636097574       -1.56505598904127       -0.33135859969312
H            5.00753682472128       -1.84922900607148       -0.24626897660522
H            4.37718523067316        2.32538905926357        0.60032179959831
H            1.95748072694683        1.88157200074608        0.43396884507864
H            7.47123165009892       -1.28779834567424        0.46812990645334
H            6.80216601563247       -0.95746280221945       -1.14577074938891
H            9.21539234395094       -0.44311867689295       -1.12844012333506
H            8.26107591709449        1.02160396002401       -1.38122921673756
H            9.88503499125530        0.29445632026560        0.87824959682982
H            8.06715420721585        0.49166997840278        2.26683121645931
H            8.63574087717715        2.15758833497542        2.03705400786549
H            6.21312922004294        1.99051502204167        1.70114705627340
H            7.00763814711069        2.44841589312449        0.17625764411908
H           -2.45402882286795       -2.28927917749536       -0.61937891556127
H           -4.75700218818174       -1.75155315019837       -2.29896832884287
H           -3.51518038906270       -2.98558310168172       -2.50706011420437
H           -6.18321430035054       -3.20118844288147       -1.10527432368101
H           -5.39702287571335       -4.41187516402784       -2.13625309126418
H           -3.75455317312311       -4.88767524760770       -0.36637783647374
H           -5.29706111205223       -4.80814899774019        0.50097425616271
H           -3.33327620067863       -3.20421585068536        1.36915281158099
H           -4.92743634784410       -2.48374765294490        1.08782432764953
