42
 energy: -71.308783837639 gnorm: 0.000507341758 xtb: 6.7.1 (edcfbbe)
O           -5.84476962730949        0.56756747249657       -1.21456982701404
C           -5.04215682110555        1.45328070710828       -1.00567036495846
O           -5.36607389177205        2.73907624598106       -1.09824527012274
C           -3.63812933486766        1.19954570630683       -0.63429999664292
C           -3.24273617379639       -0.10418636187070       -0.64755429044003
N           -2.01267618912515       -0.53894502532327       -0.32612232544750
C           -1.02751380040809        0.38181903774830       -0.00028275022340
C            0.27547360533161       -0.03064423000553        0.26967673926219
C            1.29114278594304        0.86515084844512        0.61289423237799
N            2.55135057451657        0.44965603720027        0.96547997571941
C            3.74064474124803        1.12333181844813        0.47729789487102
C            4.27611845480562        0.39327678308266       -0.76923692090651
N            4.54257445417855       -1.01282482929963       -0.52894005892786
C            3.36933507633748       -1.67235812979491        0.01255590538137
C            2.83114174520427       -0.94132300847123        1.25512061353075
C            0.91793806086202        2.22725735725107        0.66485010845449
F            1.82466068664978        3.16256711743271        1.04590877595255
C           -0.34836175523686        2.65278566203249        0.37693917502722
C           -1.35500812809110        1.74510738321357        0.03693497797421
C           -2.70440205823705        2.26051877298768       -0.25689801321183
O           -2.97147303500442        3.44614768346085       -0.18178532423982
C           -1.72271214967850       -1.94213693915570       -0.37078800922569
C           -1.40984596320855       -2.67042639144201        0.90622747856126
C           -2.70775719349767       -2.91511088615430        0.20264397673653
H           -6.30295374345999        2.83229409411864       -1.33077540167774
H           -3.96174496824933       -0.85809012655841       -0.93960679660959
H            0.50852150548510       -1.07767151898488        0.19689871396450
H            3.53226133996576        2.15959237257406        0.22960271631807
H            4.49597432733595        1.10210796863573        1.27206066941654
H            3.53017014924913        0.45484734997904       -1.56849097537259
H            5.19499353334268        0.87013755286119       -1.11413125947742
H            5.31792409023566       -1.10604034934975        0.12172207940098
H            2.60830219401142       -1.67899226317215       -0.77393001595924
H            3.62572395552767       -2.70447725541862        0.25967695504765
H            1.94378317639462       -1.42718175681417        1.65937575452591
H            3.60568275779975       -0.95498731138398        2.03288869539158
H           -0.59910491044709        3.70091908310714        0.43000382280041
H           -1.18316511074220       -2.23772991294811       -1.26648397640012
H           -1.43671532835732       -2.10148791994415        1.82295256001874
H           -0.64973646950357       -3.43672346718305        0.88618790792889
H           -2.85203694839446       -3.85059266235273       -0.31476942129234
H           -3.60454361393702       -2.52475670884291        0.65738126949041
