43
 energy: -70.313057897245 gnorm: 0.000663513117 xtb: 6.7.1 (edcfbbe)
C           -5.68999727610041        1.49577849344300        2.42387432834076
C           -4.37063935293074        1.08577047344672        1.84876511090534
C           -4.27827393709283        0.39009991037494        0.63958538215588
O           -5.42613600564246        0.07145210684827       -0.06534591153742
C           -6.02535989932735       -1.14143427485749        0.33812490582052
C           -3.02772328871785        0.05473416905307        0.11486380900570
C           -2.90949044831733       -0.63291165582562       -1.20974030023673
C           -3.17547688509512        1.39198932283613        2.48618225469999
N           -1.98872565026894        1.05372471645761        2.02533660709994
C           -1.90492442726797        0.40245868303829        0.87299052815032
C           -0.51819952966280        0.09333826208618        0.42434444737941
S            0.12903116639913        1.52039165254522       -0.59032721149596
C            1.75400631923520        0.76704501113866       -0.79237244752221
N            2.58557824621511        0.41158077488600        0.14355035653074
C            3.68193836143804       -0.07751321840308       -0.52130091177150
C            3.46704099440415        0.00853991867561       -1.91746851501442
N            2.21921630199518        0.56145423854401       -2.05222897010835
C            4.42427811197667       -0.42354892477657       -2.82340352935352
C            5.58907124946126       -0.93834624698142       -2.30580236700376
C            5.81517024071845       -1.03180300324362       -0.91782312130064
O            7.02231826577077       -1.56859054985412       -0.57900600878992
C            7.33110565569247       -1.70503279605025        0.78653640316996
C            4.86467424023546       -0.60384696686965       -0.00861233705610
O           -0.43681784868111        1.38956771006887       -1.94260546445958
H           -5.60214903522288        2.46117656917610        2.91680324755029
H           -6.02514948359281        0.76961152187316        3.16571188721739
H           -6.43862616047465        1.56099242755801        1.63786027824116
H           -6.31558570420125       -1.11754065633607        1.39345699665238
H           -5.35237865281993       -1.99078804443098        0.17674691701440
H           -6.91380324297072       -1.26001219345744       -0.27959658319582
H           -2.52665048344780       -1.64706569323823       -1.08684926220988
H           -2.23086139300166       -0.08020281482768       -1.85509342273181
H           -3.88303932065928       -0.68010244774121       -1.68991492959763
H           -3.17472440592213        1.93673095598851        3.42133572854482
H            0.15784952647370        0.04853610556492        1.27449476502515
H           -0.45521997249098       -0.80344096587242       -0.18593351221730
H            1.69487202324983        0.76824266511179       -2.88773770929569
H            4.26457721106437       -0.35838825302379       -3.88833793058245
H            6.37304856514284       -1.28967281253018       -2.95728578185561
H            8.32523248371309       -2.14777459989818        0.82111095374139
H            6.62159528614351       -2.36652827750409        1.29394028856571
H            7.34835517608784       -0.73489121549188        1.29325631428296
H            5.00089297849086       -0.65788007749989        1.05761471723749
