----- Optimization -----
      -----------------------------------------------------------      
     |                   =====================                   |     
     |                           x T B                           |     
     |                   =====================                   |     
     |                         S. Grimme                         |     
     |          Mulliken Center for Theoretical Chemistry        |     
     |                    University of Bonn                     |     
      -----------------------------------------------------------      

   * xtb version 6.7.1 (edcfbbe) compiled by 'conda@3ef47c1a292c' on 2024-11-25

   xtb is free software: you can redistribute it and/or modify it under
   the terms of the GNU Lesser General Public License as published by
   the Free Software Foundation, either version 3 of the License, or
   (at your option) any later version.
   
   xtb is distributed in the hope that it will be useful,
   but WITHOUT ANY WARRANTY; without even the implied warranty of
   MERCHANTABILITY or FITNESS FOR A PARTICULAR PURPOSE.  See the
   GNU Lesser General Public License for more details.
   
   Cite this work as:
   * C. Bannwarth, E. Caldeweyher, S. Ehlert, A. Hansen, P. Pracht,
     J. Seibert, S. Spicher, S. Grimme, WIREs Comput. Mol. Sci., 2020, 11,
     e01493. DOI: 10.1002/wcms.1493
   
   for GFN2-xTB:
   * C. Bannwarth, S. Ehlert and S. Grimme., J. Chem. Theory Comput., 2019,
     15, 1652-1671. DOI: 10.1021/acs.jctc.8b01176
   for GFN1-xTB:
   * S. Grimme, C. Bannwarth, P. Shushkov, J. Chem. Theory Comput., 2017,
     13, 1989-2009. DOI: 10.1021/acs.jctc.7b00118
   for GFN0-xTB:
   * P. Pracht, E. Caldeweyher, S. Ehlert, S. Grimme, ChemRxiv, 2019, preprint.
     DOI: 10.26434/chemrxiv.8326202.v1
   for GFN-FF:
   * S. Spicher and S. Grimme, Angew. Chem. Int. Ed., 2020, 59, 15665-15673.
     DOI: 10.1002/anie.202004239
   
   for ALPB and GBSA implicit solvation:
   * S. Ehlert, M. Stahn, S. Spicher, S. Grimme, J. Chem. Theory Comput.,
     2021, 17, 4250-4261. DOI: 10.1021/acs.jctc.1c00471
   
   for ddCOSMO and CPCM-X implicit solvation:
   * M. Stahn, S. Ehlert, S. Grimme, J. Phys. Chem. A,
     2023, XX, XXXX-XXXX. DOI: 10.1021/acs.jpca.3c04382
   
   for DFT-D4:
   * E. Caldeweyher, C. Bannwarth and S. Grimme, J. Chem. Phys., 2017,
     147, 034112. DOI: 10.1063/1.4993215
   * E. Caldeweyher, S. Ehlert, A. Hansen, H. Neugebauer, S. Spicher,
     C. Bannwarth and S. Grimme, J. Chem. Phys., 2019, 150, 154122.
     DOI: 10.1063/1.5090222
   * E. Caldeweyher, J.-M. Mewes, S. Ehlert and S. Grimme, Phys. Chem. Chem. Phys.
     2020, 22, 8499-8512. DOI: 10.1039/D0CP00502A
   
   for sTDA-xTB:
   * S. Grimme and C. Bannwarth, J. Chem. Phys., 2016, 145, 054103.
     DOI: 10.1063/1.4959605
   
   in the mass-spec context:
   * V. Asgeirsson, C. Bauer and S. Grimme, Chem. Sci., 2017, 8, 4879.
     DOI: 10.1039/c7sc00601b
   * J. Koopman and S. Grimme, ACS Omega 2019, 4, 12, 15120-15133.
     DOI: 10.1021/acsomega.9b02011
   
   for metadynamics refer to:
   * S. Grimme, J. Chem. Theory Comput., 2019, 155, 2847-2862
     DOI: 10.1021/acs.jctc.9b00143
   
   for SPH calculations refer to:
   * S. Spicher and S. Grimme, J. Chem. Theory Comput., 2021, 17, 1701-1714
     DOI: 10.1021/acs.jctc.0c01306
   
   for ONIOM refer to:
   * C. Plett, A. Katbashev, S. Ehlert, S. Grimme, M. Bursch,
     Phys. Chem. Chem. Phys., 2023, 25, 17860-17868. DOI: 10.1039/D3CP02178E
   
   for DIPRO refer to:
   * J. Kohn, N. Gildemeister, S. Grimme, D. Fazzi, A. Hansen,
     J. Chem. Phys., 2023, just accepted.
   
   for PTB refer to:
   * S. Grimme, M. Mueller, A. Hansen, J. Chem. Phys., 2023, 158, 124111.
     DOI: 10.1063/5.0137838
   
   with help from (in alphabetical order)
   P. Atkinson, C. Bannwarth, F. Bohle, G. Brandenburg, E. Caldeweyher
   M. Checinski, S. Dohm, S. Ehlert, S. Ehrlich, I. Gerasimov, C. Hölzer
   A. Katbashev, J. Kohn, J. Koopman, C. Lavigne, S. Lehtola, F. März, M. Müller,
   F. Musil, H. Neugebauer, J. Pisarek, C. Plett, P. Pracht, F. Pultar,
   J. Seibert, P. Shushkov, S. Spicher, M. Stahn, M. Steiner, T. Strunk,
   J. Stückrath, T. Rose, and J. Unsleber
   
 * started run on 2025/05/15 at 16:05:41.171     
   ID    Z sym.   atoms
    1    6 C      1, 2, 4-6, 8-12, 14-17, 19-22
    2    7 N      3, 7, 18
    3   17 Cl     13
    4    8 O      23
    5    1 H      24-49

           -------------------------------------------------
          |                Calculation Setup                |
           -------------------------------------------------

          program call               : xtb /rds/general/user/hgt20/home/callum/QDESCP/Hydroxychloroquine_rdkit_conf_4/Hydroxychloroquine_rdkit_conf_4.xyz --opt normal --acc 1 --gfn 2 --chrg 0 --uhf 0 -P 1
          hostname                   : login-c
          coordinate file            : /rds/general/user/hgt20/home/callum/QDESCP/Hydroxychloroquine_rdkit_conf_4/Hydroxychloroquine_rdkit_conf_4.xyz
          omp threads                :                     1


           -------------------------------------------------
          |                 G F N 2 - x T B                 |
           -------------------------------------------------

        Reference                      10.1021/acs.jctc.8b01176
      * Hamiltonian:
        H0-scaling (s, p, d)           1.850000    2.230000    2.230000
        zeta-weighting                 0.500000
      * Dispersion:
        s8                             2.700000
        a1                             0.520000
        a2                             5.000000
        s9                             5.000000
      * Repulsion:
        kExp                           1.500000    1.000000
        rExp                           1.000000
      * Coulomb:
        alpha                          2.000000
        third order                    shell-resolved
        anisotropic                    true
        a3                             3.000000
        a5                             4.000000
        cn-shift                       1.200000
        cn-exp                         4.000000
        max-rad                        5.000000


          ...................................................
          :                      SETUP                      :
          :.................................................:
          :  # basis functions                 124          :
          :  # atomic orbitals                 123          :
          :  # shells                           73          :
          :  # electrons                       126          :
          :  max. iterations                   250          :
          :  Hamiltonian                  GFN2-xTB          :
          :  restarted?                      false          :
          :  GBSA solvation                  false          :
          :  PC potential                    false          :
          :  electronic temp.          300.0000000     K    :
          :  accuracy                    1.0000000          :
          :  -> integral cutoff          0.2500000E+02      :
          :  -> integral neglect         0.1000000E-07      :
          :  -> SCF convergence          0.1000000E-05 Eh   :
          :  -> wf. convergence          0.1000000E-03 e    :
          :  Broyden damping             0.4000000          :
          :  net charge                          0          :
          :  unpaired electrons                  0          :
          ...................................................

 iter      E             dE          RMSdq      gap      omega  full diag
   1    -70.0034875 -0.700035E+02  0.335E+00    2.40       0.0  T
   2    -70.0840989 -0.806113E-01  0.206E+00    2.33       1.0  T
   3    -70.0741263  0.997256E-02  0.114E+00    2.70       1.0  T
   4    -70.0985596 -0.244332E-01  0.395E-01    2.30       1.0  T
   5    -70.1033736 -0.481405E-02  0.119E-01    2.38       1.0  T
   6    -70.1038467 -0.473056E-03  0.548E-02    2.37       1.0  T
   7    -70.1039070 -0.603485E-04  0.271E-02    2.37       1.0  T
   8    -70.1039151 -0.809101E-05  0.120E-02    2.37       1.2  T
   9    -70.1039176 -0.249105E-05  0.699E-03    2.37       2.0  T
  10    -70.1039181 -0.474210E-06  0.510E-03    2.37       2.8  T
  11    -70.1039185 -0.398463E-06  0.291E-03    2.37       4.9  T
  12    -70.1039186 -0.156815E-06  0.160E-03    2.37       8.9  T
  13    -70.1039187 -0.479916E-07  0.791E-04    2.37      18.1  T
  14    -70.1039187 -0.118267E-07  0.407E-04    2.37      35.1  T

   *** convergence criteria satisfied after 14 iterations ***

         #    Occupation            Energy/Eh            Energy/eV
      -------------------------------------------------------------
         1        2.0000           -1.0507315             -28.5919
       ...           ...                  ...                  ...
        57        2.0000           -0.4125794             -11.2269
        58        2.0000           -0.4106144             -11.1734
        59        2.0000           -0.4085180             -11.1163
        60        2.0000           -0.3938774             -10.7179
        61        2.0000           -0.3711156             -10.0986
        62        2.0000           -0.3676217             -10.0035
        63        2.0000           -0.3607382              -9.8162 (HOMO)
        64                         -0.2735769              -7.4444 (LUMO)
        65                         -0.2351628              -6.3991
        66                         -0.2027221              -5.5163
        67                         -0.1585078              -4.3132
        68                         -0.1301521              -3.5416
       ...                                ...                  ...
       123                          0.6635008              18.0548
      -------------------------------------------------------------
                  HL-Gap            0.0871613 Eh            2.3718 eV
             Fermi-level           -0.3171576 Eh           -8.6303 eV

 SCC (total)                   0 d,  0 h,  0 min,  0.074 sec
 SCC setup                      ...        0 min,  0.000 sec (  0.597%)
 Dispersion                     ...        0 min,  0.001 sec (  0.725%)
 classical contributions        ...        0 min,  0.000 sec (  0.266%)
 integral evaluation            ...        0 min,  0.008 sec ( 11.376%)
 iterations                     ...        0 min,  0.037 sec ( 49.245%)
 molecular gradient             ...        0 min,  0.028 sec ( 37.513%)
 printout                       ...        0 min,  0.000 sec (  0.268%)

         :::::::::::::::::::::::::::::::::::::::::::::::::::::
         ::                     SUMMARY                     ::
         :::::::::::::::::::::::::::::::::::::::::::::::::::::
         :: total energy             -69.199214950360 Eh    ::
         :: gradient norm              0.089688753849 Eh/a0 ::
         :: HOMO-LUMO gap              2.371780090477 eV    ::
         ::.................................................::
         :: SCC energy               -70.103880597171 Eh    ::
         :: -> isotropic ES            0.054176851942 Eh    ::
         :: -> anisotropic ES          0.010082805183 Eh    ::
         :: -> anisotropic XC          0.039400178856 Eh    ::
         :: -> dispersion             -0.048611347256 Eh    ::
         :: repulsion energy           0.904665646812 Eh    ::
         :: add. restraining           0.000000000000 Eh    ::
         :: total charge               0.000000000000 e     ::
         :::::::::::::::::::::::::::::::::::::::::::::::::::::

      ----------------------------------------------------------- 
     |                   =====================                   |
     |                        A N C O P T                        |
     |                   =====================                   |
     |               Approximate Normal Coordinate               |
     |                Rational Function Optimizer                |
      ----------------------------------------------------------- 
      ----------------------------------------------------------- 
     |                   =====================                   |
     |                        A N C O P T                        |
     |                   =====================                   |
     |               Approximate Normal Coordinate               |
     |                Rational Function Optimizer                |
      ----------------------------------------------------------- 

          ...................................................
          :                      SETUP                      :
          :.................................................:
          :   optimization level            normal          :
          :   max. optcycles                   200          :
          :   ANC micro-cycles                  20          :
          :   degrees of freedom               141          :
          :.................................................:
          :   RF solver                   davidson          :
          :   write xtbopt.log                true          :
          :   linear?                        false          :
          :   energy convergence         0.5000000E-05 Eh   :
          :   grad. convergence          0.1000000E-02 Eh/α :
          :   maxmium RF displ.          1.0000000          :
          :   Hlow (freq-cutoff)         0.1000000E-01      :
          :   Hmax (freq-cutoff)         5.0000000          :
          :   S6 in model hess.         20.0000000          :
          ...................................................

generating ANC from exact Hessian ...
Using Lindh-Hessian (1995)
 Shifting diagonal of input Hessian by    9.8324844915898251E-003
 Lowest  eigenvalues of input Hessian
    0.000000    0.000000    0.000000    0.000000    0.000000    0.000000
    0.010000    0.010030    0.010129    0.010573    0.010792    0.011471
    0.011790    0.012510    0.012808    0.014139    0.014540    0.014924
 Highest eigenvalues
    1.824255    1.834067    1.882931    1.980568    2.087407    2.160769


........................................................................
.............................. CYCLE    1 ..............................
........................................................................

 iter      E             dE          RMSdq      gap      omega  full diag
   1    -70.1039187 -0.701039E+02  0.273E-04    2.37       0.0  T
   2    -70.1039187 -0.610243E-09  0.223E-04    2.37      64.0  T
   3    -70.1039187 -0.276259E-09  0.189E-04    2.37      75.6  T
     SCC iter.                  ...        0 min,  0.008 sec
     gradient                   ...        0 min,  0.028 sec
 * total energy  :   -69.1992150 Eh     change       -0.2612836E-08 Eh
   gradient norm :     0.0896891 Eh/α   predicted     0.0000000E+00 (-100.00%)
   displ. norm   :     0.2655725 α      lambda       -0.1049977E-01
   maximum displ.:     0.1206201 α      in ANC's #45, #28, #26, ...

........................................................................
.............................. CYCLE    2 ..............................
........................................................................

 iter      E             dE          RMSdq      gap      omega  full diag
   1    -70.1342140 -0.701342E+02  0.151E-01    2.48       0.0  T
   2    -70.1343271 -0.113117E-03  0.946E-02    2.48       1.0  T
   3    -70.1343205  0.662811E-05  0.510E-02    2.50       1.0  T
   4    -70.1343614 -0.408496E-04  0.125E-02    2.49       1.1  T
   5    -70.1343679 -0.650192E-05  0.415E-03    2.49       3.4  T
   6    -70.1343684 -0.542048E-06  0.172E-03    2.49       8.3  T
   7    -70.1343684 -0.240197E-07  0.573E-04    2.49      25.0  T
   8    -70.1343684 -0.422443E-08  0.284E-04    2.49      50.3  T
     SCC iter.                  ...        0 min,  0.020 sec
     gradient                   ...        0 min,  0.028 sec
 * total energy  :   -69.2063469 Eh     change       -0.7131944E-02 Eh
   gradient norm :     0.0373447 Eh/α   predicted    -0.5622338E-02 ( -21.17%)
   displ. norm   :     0.2223274 α      lambda       -0.2926495E-02
   maximum displ.:     0.0858882 α      in ANC's #14, #26, #45, ...

........................................................................
.............................. CYCLE    3 ..............................
........................................................................

 iter      E             dE          RMSdq      gap      omega  full diag
   1    -70.1507567 -0.701508E+02  0.928E-02    2.57       0.0  T
   2    -70.1508343 -0.776201E-04  0.588E-02    2.56       1.0  T
   3    -70.1508562 -0.218266E-04  0.339E-02    2.58       1.0  T
   4    -70.1508647 -0.850285E-05  0.947E-03    2.57       1.5  T
   5    -70.1508683 -0.361117E-05  0.320E-03    2.57       4.5  T
   6    -70.1508686 -0.305417E-06  0.129E-03    2.57      11.0  T
   7    -70.1508686 -0.136350E-07  0.423E-04    2.57      33.8  T
   8    -70.1508686 -0.306099E-08  0.210E-04    2.57      68.1  T
     SCC iter.                  ...        0 min,  0.020 sec
     gradient                   ...        0 min,  0.028 sec
 * total energy  :   -69.2080492 Eh     change       -0.1702341E-02 Eh
   gradient norm :     0.0106126 Eh/α   predicted    -0.1536149E-02 (  -9.76%)
   displ. norm   :     0.1487492 α      lambda       -0.5064026E-03
   maximum displ.:     0.0605272 α      in ANC's #5, #14, #26, ...

........................................................................
.............................. CYCLE    4 ..............................
........................................................................

 iter      E             dE          RMSdq      gap      omega  full diag
   1    -70.1524100 -0.701524E+02  0.395E-02    2.59       0.0  T
   2    -70.1524229 -0.129216E-04  0.244E-02    2.58       1.0  T
   3    -70.1524263 -0.338455E-05  0.141E-02    2.59       1.0  T
   4    -70.1524290 -0.270044E-05  0.406E-03    2.58       3.5  T
   5    -70.1524296 -0.616186E-06  0.145E-03    2.58       9.9  T
   6    -70.1524297 -0.378394E-07  0.741E-04    2.58      19.3  T
   7    -70.1524297 -0.626535E-08  0.308E-04    2.58      46.4  T
     SCC iter.                  ...        0 min,  0.018 sec
     gradient                   ...        0 min,  0.028 sec
 * total energy  :   -69.2084359 Eh     change       -0.3866142E-03 Eh
   gradient norm :     0.0096149 Eh/α   predicted    -0.2588074E-03 ( -33.06%)
   displ. norm   :     0.2246731 α      lambda       -0.5090218E-03
   maximum displ.:     0.1107807 α      in ANC's #5, #26, #4, ...

........................................................................
.............................. CYCLE    5 ..............................
........................................................................

 iter      E             dE          RMSdq      gap      omega  full diag
   1    -70.1522016 -0.701522E+02  0.541E-02    2.60       0.0  T
   2    -70.1522215 -0.198884E-04  0.330E-02    2.58       1.0  T
   3    -70.1522236 -0.204936E-05  0.193E-02    2.59       1.0  T
   4    -70.1522305 -0.695202E-05  0.521E-03    2.59       2.7  T
   5    -70.1522316 -0.108370E-05  0.190E-03    2.59       7.5  T
   6    -70.1522317 -0.492117E-07  0.997E-04    2.59      14.3  T
   7    -70.1522317 -0.130773E-07  0.360E-04    2.59      39.6  T
     SCC iter.                  ...        0 min,  0.018 sec
     gradient                   ...        0 min,  0.028 sec
 * total energy  :   -69.2087657 Eh     change       -0.3298933E-03 Eh
   gradient norm :     0.0084236 Eh/α   predicted    -0.2673611E-03 ( -18.96%)
   displ. norm   :     0.1519987 α      lambda       -0.1917488E-03
   maximum displ.:     0.0882897 α      in ANC's #5, #4, #2, ...

........................................................................
.............................. CYCLE    6 ..............................
........................................................................

 iter      E             dE          RMSdq      gap      omega  full diag
   1    -70.1523518 -0.701524E+02  0.319E-02    2.59       0.0  T
   2    -70.1523558 -0.401587E-05  0.191E-02    2.58       1.0  T
   3    -70.1523542  0.164981E-05  0.108E-02    2.59       1.3  T
   4    -70.1523575 -0.335951E-05  0.256E-03    2.58       5.6  T
   5    -70.1523578 -0.255932E-06  0.100E-03    2.58      14.3  T
   6    -70.1523578 -0.968066E-08  0.513E-04    2.58      27.9  T
   7    -70.1523578 -0.425985E-08  0.142E-04    2.58     100.3  T
     SCC iter.                  ...        0 min,  0.018 sec
     gradient                   ...        0 min,  0.028 sec
 * total energy  :   -69.2089118 Eh     change       -0.1460502E-03 Eh
   gradient norm :     0.0059362 Eh/α   predicted    -0.9813819E-04 ( -32.81%)
   displ. norm   :     0.2153285 α      lambda       -0.2035932E-03
   maximum displ.:     0.1241139 α      in ANC's #5, #4, #2, ...

........................................................................
.............................. CYCLE    7 ..............................
........................................................................

 iter      E             dE          RMSdq      gap      omega  full diag
   1    -70.1527440 -0.701527E+02  0.431E-02    2.59       0.0  T
   2    -70.1527478 -0.379095E-05  0.251E-02    2.58       1.0  T
   3    -70.1527435  0.434149E-05  0.126E-02    2.59       1.1  T
   4    -70.1527494 -0.590850E-05  0.270E-03    2.58       5.3  T
   5    -70.1527496 -0.242780E-06  0.119E-03    2.58      12.0  T
   6    -70.1527496 -0.103725E-07  0.558E-04    2.58      25.6  T
   7    -70.1527496 -0.593749E-08  0.155E-04    2.58      92.2  T
     SCC iter.                  ...        0 min,  0.018 sec
     gradient                   ...        0 min,  0.028 sec
 * total energy  :   -69.2090620 Eh     change       -0.1502506E-03 Eh
   gradient norm :     0.0040758 Eh/α   predicted    -0.1065309E-03 ( -29.10%)
   displ. norm   :     0.2250265 α      lambda       -0.1468529E-03
   maximum displ.:     0.1276057 α      in ANC's #5, #4, #2, ...

........................................................................
.............................. CYCLE    8 ..............................
........................................................................

 iter      E             dE          RMSdq      gap      omega  full diag
   1    -70.1532926 -0.701533E+02  0.422E-02    2.59       0.0  T
   2    -70.1532944 -0.184168E-05  0.247E-02    2.58       1.0  T
   3    -70.1532914  0.307562E-05  0.950E-03    2.59       1.5  T
   4    -70.1532952 -0.381224E-05  0.208E-03    2.58       6.9  T
   5    -70.1532953 -0.110993E-06  0.101E-03    2.58      14.1  T
   6    -70.1532953 -0.785674E-08  0.435E-04    2.58      32.8  T
   7    -70.1532953 -0.376998E-08  0.192E-04    2.58      74.3  T
     SCC iter.                  ...        0 min,  0.018 sec
     gradient                   ...        0 min,  0.029 sec
 * total energy  :   -69.2091669 Eh     change       -0.1048677E-03 Eh
   gradient norm :     0.0028875 Eh/α   predicted    -0.7715355E-04 ( -26.43%)
   displ. norm   :     0.1941506 α      lambda       -0.8462807E-04
   maximum displ.:     0.1077915 α      in ANC's #5, #4, #2, ...

........................................................................
.............................. CYCLE    9 ..............................
........................................................................

 iter      E             dE          RMSdq      gap      omega  full diag
   1    -70.1538293 -0.701538E+02  0.340E-02    2.58       0.0  T
   2    -70.1538299 -0.648561E-06  0.200E-02    2.58       1.0  T
   3    -70.1538289  0.106206E-05  0.561E-03    2.59       2.5  T
   4    -70.1538302 -0.133450E-05  0.134E-03    2.58      10.6  T
   5    -70.1538302 -0.297527E-07  0.702E-04    2.58      20.4  T
   6    -70.1538302 -0.528748E-08  0.288E-04    2.58      49.5  T
     SCC iter.                  ...        0 min,  0.018 sec
     gradient                   ...        0 min,  0.029 sec
 * total energy  :   -69.2092302 Eh     change       -0.6324647E-04 Eh
   gradient norm :     0.0025981 Eh/α   predicted    -0.4390926E-04 ( -30.57%)
   displ. norm   :     0.2043414 α      lambda       -0.7390508E-04
   maximum displ.:     0.1090866 α      in ANC's #5, #2, #4, ...

........................................................................
.............................. CYCLE   10 ..............................
........................................................................

 iter      E             dE          RMSdq      gap      omega  full diag
   1    -70.1542689 -0.701543E+02  0.336E-02    2.58       0.0  T
   2    -70.1542693 -0.404420E-06  0.198E-02    2.58       1.0  T
   3    -70.1542691  0.285351E-06  0.348E-03    2.58       4.1  T
   4    -70.1542695 -0.444357E-06  0.114E-03    2.58      12.5  T
   5    -70.1542695 -0.144502E-07  0.574E-04    2.58      24.9  T
   6    -70.1542695 -0.409575E-08  0.247E-04    2.58      57.8  T
     SCC iter.                  ...        0 min,  0.017 sec
     gradient                   ...        0 min,  0.029 sec
 * total energy  :   -69.2092893 Eh     change       -0.5913461E-04 Eh
   gradient norm :     0.0031826 Eh/α   predicted    -0.3849791E-04 ( -34.90%)
   displ. norm   :     0.2956384 α      lambda       -0.1002818E-03
   maximum displ.:     0.1521177 α      in ANC's #5, #2, #4, ...

........................................................................
.............................. CYCLE   11 ..............................
........................................................................

 iter      E             dE          RMSdq      gap      omega  full diag
   1    -70.1541340 -0.701541E+02  0.470E-02    2.59       0.0  T
   2    -70.1541347 -0.712809E-06  0.277E-02    2.58       1.0  T
   3    -70.1541343  0.342110E-06  0.417E-03    2.59       3.4  T
   4    -70.1541350 -0.622726E-06  0.154E-03    2.58       9.3  T
   5    -70.1541350 -0.275669E-07  0.771E-04    2.59      18.5  T
   6    -70.1541350 -0.746533E-08  0.302E-04    2.59      47.3  T
     SCC iter.                  ...        0 min,  0.016 sec
     gradient                   ...        0 min,  0.028 sec
 * total energy  :   -69.2093714 Eh     change       -0.8206694E-04 Eh
   gradient norm :     0.0034967 Eh/α   predicted    -0.5452391E-04 ( -33.56%)
   displ. norm   :     0.4081690 α      lambda       -0.1529623E-03
   maximum displ.:     0.1966385 α      in ANC's #5, #8, #2, ...

........................................................................
.............................. CYCLE   12 ..............................
........................................................................

 iter      E             dE          RMSdq      gap      omega  full diag
   1    -70.1541721 -0.701542E+02  0.622E-02    2.58       0.0  T
   2    -70.1541734 -0.132296E-05  0.368E-02    2.59       1.0  T
   3    -70.1541732  0.197499E-06  0.401E-03    2.58       3.6  T
   4    -70.1541738 -0.629974E-06  0.189E-03    2.59       7.6  T
   5    -70.1541739 -0.618649E-07  0.105E-03    2.59      13.6  T
   6    -70.1541739 -0.159134E-07  0.395E-04    2.59      36.2  T
   7    -70.1541739 -0.378461E-08  0.187E-04    2.59      76.5  T
     SCC iter.                  ...        0 min,  0.018 sec
     gradient                   ...        0 min,  0.028 sec
 * total energy  :   -69.2094792 Eh     change       -0.1077901E-03 Eh
   gradient norm :     0.0074298 Eh/α   predicted    -0.8923272E-04 ( -17.22%)
   displ. norm   :     0.4469601 α      lambda       -0.1822563E-03
   maximum displ.:     0.2179921 α      in ANC's #5, #2, #8, ...

........................................................................
.............................. CYCLE   13 ..............................
........................................................................

 iter      E             dE          RMSdq      gap      omega  full diag
   1    -70.1523202 -0.701523E+02  0.673E-02    2.59       0.0  T
   2    -70.1523219 -0.175540E-05  0.397E-02    2.59       1.0  T
   3    -70.1523210  0.929750E-06  0.622E-03    2.59       2.3  T
   4    -70.1523225 -0.154937E-05  0.226E-03    2.59       6.3  T
   5    -70.1523226 -0.883971E-07  0.125E-03    2.59      11.4  T
   6    -70.1523226 -0.152194E-07  0.465E-04    2.59      30.7  T
   7    -70.1523226 -0.564484E-08  0.171E-04    2.59      83.4  T
     SCC iter.                  ...        0 min,  0.018 sec
     gradient                   ...        0 min,  0.029 sec
 * total energy  :   -69.2095966 Eh     change       -0.1174550E-03 Eh
   gradient norm :     0.0058142 Eh/α   predicted    -0.1093359E-03 (  -6.91%)
   displ. norm   :     0.2700346 α      lambda       -0.1977631E-03
   maximum displ.:     0.1152893 α      in ANC's #8, #2, #5, ...

........................................................................
.............................. CYCLE   14 ..............................
........................................................................

 iter      E             dE          RMSdq      gap      omega  full diag
   1    -70.1539865 -0.701540E+02  0.435E-02    2.59       0.0  T
   2    -70.1539876 -0.111064E-05  0.257E-02    2.59       1.0  T
   3    -70.1539870  0.668262E-06  0.539E-03    2.59       2.7  T
   4    -70.1539880 -0.108165E-05  0.183E-03    2.59       7.8  T
   5    -70.1539881 -0.532749E-07  0.101E-03    2.59      14.2  T
   6    -70.1539881 -0.878975E-08  0.369E-04    2.59      38.7  T
   7    -70.1539881 -0.281926E-08  0.206E-04    2.59      69.3  T
     SCC iter.                  ...        0 min,  0.018 sec
     gradient                   ...        0 min,  0.029 sec
 * total energy  :   -69.2097278 Eh     change       -0.1312296E-03 Eh
   gradient norm :     0.0048670 Eh/α   predicted    -0.1060921E-03 ( -19.16%)
   displ. norm   :     0.4602250 α      lambda       -0.1937924E-03
   maximum displ.:     0.2233007 α      in ANC's #5, #2, #8, ...

........................................................................
.............................. CYCLE   15 ..............................
........................................................................

 iter      E             dE          RMSdq      gap      omega  full diag
   1    -70.1524263 -0.701524E+02  0.688E-02    2.59       0.0  T
   2    -70.1524292 -0.290482E-05  0.410E-02    2.59       1.0  T
   3    -70.1524293 -0.592000E-07  0.523E-03    2.59       2.7  T
   4    -70.1524299 -0.579272E-06  0.232E-03    2.59       6.2  T
   5    -70.1524299 -0.648897E-07  0.134E-03    2.59      10.6  T
   6    -70.1524299 -0.187844E-07  0.423E-04    2.59      33.7  T
   7    -70.1524300 -0.385913E-08  0.242E-04    2.59      58.9  T
     SCC iter.                  ...        0 min,  0.028 sec
     gradient                   ...        0 min,  0.029 sec
 * total energy  :   -69.2098572 Eh     change       -0.1293536E-03 Eh
   gradient norm :     0.0063555 Eh/α   predicted    -0.1174247E-03 (  -9.22%)
   displ. norm   :     0.2303656 α      lambda       -0.2095931E-03
   maximum displ.:     0.0992473 α      in ANC's #5, #2, #3, ...

........................................................................
.............................. CYCLE   16 ..............................
........................................................................

 iter      E             dE          RMSdq      gap      omega  full diag
   1    -70.1544270 -0.701544E+02  0.438E-02    2.59       0.0  T
   2    -70.1544284 -0.135451E-05  0.260E-02    2.59       1.0  T
   3    -70.1544283  0.121475E-06  0.418E-03    2.59       3.4  T
   4    -70.1544287 -0.427725E-06  0.168E-03    2.59       8.5  T
   5    -70.1544287 -0.416340E-07  0.860E-04    2.59      16.6  T
   6    -70.1544287 -0.464802E-08  0.359E-04    2.59      39.8  T
     SCC iter.                  ...        0 min,  0.016 sec
     gradient                   ...        0 min,  0.030 sec
 * total energy  :   -69.2099784 Eh     change       -0.1212321E-03 Eh
   gradient norm :     0.0053745 Eh/α   predicted    -0.1103590E-03 (  -8.97%)
   displ. norm   :     0.3178931 α      lambda       -0.1102518E-03
   maximum displ.:     0.1634573 α      in ANC's #5, #2, #4, ...

........................................................................
.............................. CYCLE   17 ..............................
........................................................................

 iter      E             dE          RMSdq      gap      omega  full diag
   1    -70.1531762 -0.701532E+02  0.422E-02    2.59       0.0  T
   2    -70.1531773 -0.111098E-05  0.252E-02    2.59       1.0  T
   3    -70.1531771  0.211613E-06  0.398E-03    2.59       3.6  T
   4    -70.1531776 -0.485751E-06  0.157E-03    2.59       9.1  T
   5    -70.1531777 -0.492829E-07  0.859E-04    2.59      16.6  T
   6    -70.1531777 -0.574460E-08  0.322E-04    2.59      44.4  T
     SCC iter.                  ...        0 min,  0.017 sec
     gradient                   ...        0 min,  0.029 sec
 * total energy  :   -69.2100607 Eh     change       -0.8225388E-04 Eh
   gradient norm :     0.0058732 Eh/α   predicted    -0.6069701E-04 ( -26.21%)
   displ. norm   :     0.2952464 α      lambda       -0.1888281E-03
   maximum displ.:     0.1526606 α      in ANC's #2, #5, #7, ...

........................................................................
.............................. CYCLE   18 ..............................
........................................................................

 iter      E             dE          RMSdq      gap      omega  full diag
   1    -70.1543854 -0.701544E+02  0.432E-02    2.58       0.0  T
   2    -70.1543869 -0.151786E-05  0.259E-02    2.59       1.0  T
   3    -70.1543851  0.176067E-05  0.715E-03    2.58       2.0  T
   4    -70.1543874 -0.228206E-05  0.162E-03    2.59       8.8  T
   5    -70.1543875 -0.572928E-07  0.934E-04    2.59      15.3  T
   6    -70.1543875 -0.457237E-08  0.509E-04    2.59      28.0  T
     SCC iter.                  ...        0 min,  0.015 sec
     gradient                   ...        0 min,  0.028 sec
 * total energy  :   -69.2101721 Eh     change       -0.1114336E-03 Eh
   gradient norm :     0.0037222 Eh/α   predicted    -0.1026488E-03 (  -7.88%)
   displ. norm   :     0.3482832 α      lambda       -0.9390602E-04
   maximum displ.:     0.1772978 α      in ANC's #2, #5, #7, ...

........................................................................
.............................. CYCLE   19 ..............................
........................................................................

 iter      E             dE          RMSdq      gap      omega  full diag
   1    -70.1533216 -0.701533E+02  0.460E-02    2.58       0.0  T
   2    -70.1533225 -0.880513E-06  0.274E-02    2.59       1.0  T
   3    -70.1533226 -0.454142E-07  0.277E-03    2.58       5.2  T
   4    -70.1533228 -0.195366E-06  0.135E-03    2.58      10.6  T
   5    -70.1533228 -0.191537E-07  0.733E-04    2.58      19.5  T
   6    -70.1533228 -0.733878E-08  0.216E-04    2.58      66.2  T
     SCC iter.                  ...        0 min,  0.015 sec
     gradient                   ...        0 min,  0.029 sec
 * total energy  :   -69.2102309 Eh     change       -0.5882304E-04 Eh
   gradient norm :     0.0050527 Eh/α   predicted    -0.5265030E-04 ( -10.49%)
   displ. norm   :     0.1941393 α      lambda       -0.1044765E-03
   maximum displ.:     0.1073090 α      in ANC's #2, #7, #5, ...

........................................................................
.............................. CYCLE   20 ..............................
........................................................................

 iter      E             dE          RMSdq      gap      omega  full diag
   1    -70.1549002 -0.701549E+02  0.305E-02    2.58       0.0  T
   2    -70.1549007 -0.542803E-06  0.180E-02    2.58       1.0  T
   3    -70.1549006  0.122494E-06  0.286E-03    2.58       5.0  T
   4    -70.1549009 -0.248349E-06  0.103E-03    2.58      13.9  T
   5    -70.1549009 -0.173841E-07  0.566E-04    2.58      25.2  T
   6    -70.1549009 -0.415504E-08  0.258E-04    2.58      55.5  T
     SCC iter.                  ...        0 min,  0.015 sec
     gradient                   ...        0 min,  0.028 sec
 * total energy  :   -69.2103026 Eh     change       -0.7169257E-04 Eh
   gradient norm :     0.0035894 Eh/α   predicted    -0.5421214E-04 ( -24.38%)
   displ. norm   :     0.2811590 α      lambda       -0.7472201E-04
   maximum displ.:     0.1574185 α      in ANC's #2, #5, #7, ...
 * RMSD in coord.:     0.6352335 α      energy gain  -0.1108768E-01 Eh

generating ANC from exact Hessian ...
Using Lindh-Hessian (1995)
 Shifting diagonal of input Hessian by    9.8251098271823021E-003
 Lowest  eigenvalues of input Hessian
    0.000000    0.000000    0.000000    0.000000    0.000000    0.000000
    0.010000    0.010056    0.010163    0.010671    0.010914    0.011571
    0.012039    0.012541    0.013047    0.014550    0.014745    0.015595
 Highest eigenvalues
    1.848379    1.911060    1.956530    2.029512    2.149899    2.197646


........................................................................
.............................. CYCLE   21 ..............................
........................................................................

 iter      E             dE          RMSdq      gap      omega  full diag
   1    -70.1548971 -0.701549E+02  0.396E-02    2.59       0.0  T
   2    -70.1548976 -0.580999E-06  0.235E-02    2.59       1.0  T
   3    -70.1548976  0.515908E-07  0.269E-03    2.59       5.3  T
   4    -70.1548978 -0.232357E-06  0.122E-03    2.58      11.7  T
   5    -70.1548978 -0.203240E-07  0.652E-04    2.59      21.9  T
   6    -70.1548978 -0.616245E-08  0.267E-04    2.59      53.5  T
     SCC iter.                  ...        0 min,  0.015 sec
     gradient                   ...        0 min,  0.028 sec
 * total energy  :   -69.2103551 Eh     change       -0.5250790E-04 Eh
   gradient norm :     0.0027058 Eh/α   predicted     0.0000000E+00 (-100.00%)
   displ. norm   :     0.0298177 α      lambda       -0.2392226E-04
   maximum displ.:     0.0140830 α      in ANC's #8, #6, #9, ...

........................................................................
.............................. CYCLE   22 ..............................
........................................................................

 iter      E             dE          RMSdq      gap      omega  full diag
   1    -70.1552685 -0.701553E+02  0.859E-03    2.59       0.0  T
   2    -70.1552685 -0.343341E-07  0.506E-03    2.59       2.8  T
   3    -70.1552685  0.201929E-07  0.823E-04    2.59      17.4  T
   4    -70.1552685 -0.288277E-07  0.243E-04    2.59      58.8  T
     SCC iter.                  ...        0 min,  0.010 sec
     gradient                   ...        0 min,  0.028 sec
 * total energy  :   -69.2103741 Eh     change       -0.1895652E-04 Eh
   gradient norm :     0.0012167 Eh/α   predicted    -0.1207544E-04 ( -36.30%)
   displ. norm   :     0.1184022 α      lambda       -0.3339969E-04
   maximum displ.:     0.0594295 α      in ANC's #6, #8, #9, ...

........................................................................
.............................. CYCLE   23 ..............................
........................................................................

 iter      E             dE          RMSdq      gap      omega  full diag
   1    -70.1557486 -0.701557E+02  0.272E-02    2.59       0.0  T
   2    -70.1557489 -0.294492E-06  0.161E-02    2.59       1.0  T
   3    -70.1557486  0.278943E-06  0.271E-03    2.59       5.3  T
   4    -70.1557490 -0.359470E-06  0.761E-04    2.59      18.8  T
   5    -70.1557490 -0.117296E-07  0.414E-04    2.59      34.5  T
     SCC iter.                  ...        0 min,  0.013 sec
     gradient                   ...        0 min,  0.033 sec
 * total energy  :   -69.2104002 Eh     change       -0.2615418E-04 Eh
   gradient norm :     0.0025204 Eh/α   predicted    -0.1680414E-04 ( -35.75%)
   displ. norm   :     0.0487407 α      lambda       -0.1399892E-04
   maximum displ.:     0.0295541 α      in ANC's #6, #8, #9, ...

........................................................................
.............................. CYCLE   24 ..............................
........................................................................

 iter      E             dE          RMSdq      gap      omega  full diag
   1    -70.1556284 -0.701556E+02  0.101E-02    2.59       0.0  T
   2    -70.1556284 -0.254978E-07  0.604E-03    2.59       2.4  T
   3    -70.1556284  0.191013E-07  0.798E-04    2.59      17.9  T
   4    -70.1556284 -0.284165E-07  0.278E-04    2.59      51.4  T
     SCC iter.                  ...        0 min,  0.010 sec
     gradient                   ...        0 min,  0.028 sec
 * total energy  :   -69.2104134 Eh     change       -0.1315821E-04 Eh
   gradient norm :     0.0021479 Eh/α   predicted    -0.7185538E-05 ( -45.39%)
   displ. norm   :     0.1399423 α      lambda       -0.3950318E-04
   maximum displ.:     0.0813957 α      in ANC's #6, #8, #9, ...

........................................................................
.............................. CYCLE   25 ..............................
........................................................................

 iter      E             dE          RMSdq      gap      omega  full diag
   1    -70.1552257 -0.701552E+02  0.294E-02    2.59       0.0  T
   2    -70.1552258 -0.173184E-06  0.175E-02    2.59       1.0  T
   3    -70.1552256  0.186972E-06  0.243E-03    2.59       5.9  T
   4    -70.1552259 -0.258849E-06  0.729E-04    2.59      19.6  T
   5    -70.1552259 -0.611358E-08  0.392E-04    2.59      36.4  T
     SCC iter.                  ...        0 min,  0.013 sec
     gradient                   ...        0 min,  0.032 sec
 * total energy  :   -69.2104425 Eh     change       -0.2914505E-04 Eh
   gradient norm :     0.0010343 Eh/α   predicted    -0.2014228E-04 ( -30.89%)
   displ. norm   :     0.1876013 α      lambda       -0.1977885E-04
   maximum displ.:     0.1125717 α      in ANC's #6, #9, #8, ...

........................................................................
.............................. CYCLE   26 ..............................
........................................................................

 iter      E             dE          RMSdq      gap      omega  full diag
   1    -70.1548265 -0.701548E+02  0.384E-02    2.59       0.0  T
   2    -70.1548268 -0.267899E-06  0.229E-02    2.59       1.0  T
   3    -70.1548267  0.709942E-07  0.229E-03    2.59       6.2  T
   4    -70.1548269 -0.173279E-06  0.920E-04    2.59      15.5  T
   5    -70.1548269 -0.759125E-08  0.441E-04    2.59      32.4  T
     SCC iter.                  ...        0 min,  0.013 sec
     gradient                   ...        0 min,  0.028 sec
 * total energy  :   -69.2104598 Eh     change       -0.1724837E-04 Eh
   gradient norm :     0.0019185 Eh/α   predicted    -0.1004457E-04 ( -41.77%)
   displ. norm   :     0.0596772 α      lambda       -0.8609517E-05
   maximum displ.:     0.0388756 α      in ANC's #6, #2, #7, ...

........................................................................
.............................. CYCLE   27 ..............................
........................................................................

 iter      E             dE          RMSdq      gap      omega  full diag
   1    -70.1552583 -0.701553E+02  0.113E-02    2.59       0.0  T
   2    -70.1552583 -0.452113E-07  0.668E-03    2.59       2.1  T
   3    -70.1552583  0.684145E-08  0.742E-04    2.59      19.3  T
   4    -70.1552583 -0.191162E-07  0.316E-04    2.59      45.2  T
     SCC iter.                  ...        0 min,  0.010 sec
     gradient                   ...        0 min,  0.029 sec
 * total energy  :   -69.2104705 Eh     change       -0.1072604E-04 Eh
   gradient norm :     0.0011855 Eh/α   predicted    -0.4312746E-05 ( -59.79%)
   displ. norm   :     0.1091852 α      lambda       -0.1254850E-04
   maximum displ.:     0.0693242 α      in ANC's #6, #2, #7, ...

........................................................................
.............................. CYCLE   28 ..............................
........................................................................

 iter      E             dE          RMSdq      gap      omega  full diag
   1    -70.1555445 -0.701555E+02  0.203E-02    2.59       0.0  T
   2    -70.1555447 -0.163673E-06  0.121E-02    2.59       1.2  T
   3    -70.1555446  0.960849E-07  0.193E-03    2.59       7.4  T
   4    -70.1555448 -0.147517E-06  0.633E-04    2.59      22.6  T
   5    -70.1555448 -0.562613E-08  0.344E-04    2.59      41.5  T
     SCC iter.                  ...        0 min,  0.013 sec
     gradient                   ...        0 min,  0.028 sec
 * total energy  :   -69.2104839 Eh     change       -0.1333865E-04 Eh
   gradient norm :     0.0004733 Eh/α   predicted    -0.6310774E-05 ( -52.69%)
   displ. norm   :     0.1023469 α      lambda       -0.6589665E-05
   maximum displ.:     0.0629535 α      in ANC's #6, #2, #7, ...

........................................................................
.............................. CYCLE   29 ..............................
........................................................................

 iter      E             dE          RMSdq      gap      omega  full diag
   1    -70.1556447 -0.701556E+02  0.173E-02    2.59       0.0  T
   2    -70.1556448 -0.116192E-06  0.103E-02    2.59       1.4  T
   3    -70.1556448  0.457944E-07  0.151E-03    2.59       9.5  T
   4    -70.1556449 -0.816129E-07  0.533E-04    2.59      26.8  T
   5    -70.1556449 -0.362157E-08  0.281E-04    2.59      50.9  T
     SCC iter.                  ...        0 min,  0.013 sec
     gradient                   ...        0 min,  0.028 sec
 * total energy  :   -69.2104915 Eh     change       -0.7672053E-05 Eh
   gradient norm :     0.0006619 Eh/α   predicted    -0.3311236E-05 ( -56.84%)
   displ. norm   :     0.1161985 α      lambda       -0.6178918E-05
   maximum displ.:     0.0678831 α      in ANC's #6, #2, #1, ...

........................................................................
.............................. CYCLE   30 ..............................
........................................................................

 iter      E             dE          RMSdq      gap      omega  full diag
   1    -70.1556100 -0.701556E+02  0.186E-02    2.59       0.0  T
   2    -70.1556102 -0.124161E-06  0.110E-02    2.59       1.3  T
   3    -70.1556101  0.533957E-07  0.158E-03    2.59       9.0  T
   4    -70.1556102 -0.916337E-07  0.579E-04    2.59      24.7  T
   5    -70.1556102 -0.520419E-08  0.293E-04    2.59      48.8  T
     SCC iter.                  ...        0 min,  0.013 sec
     gradient                   ...        0 min,  0.028 sec
 * total energy  :   -69.2104988 Eh     change       -0.7246536E-05 Eh
   gradient norm :     0.0005292 Eh/α   predicted    -0.3108436E-05 ( -57.10%)
   displ. norm   :     0.1286099 α      lambda       -0.6047207E-05
   maximum displ.:     0.0690348 α      in ANC's #6, #2, #1, ...

........................................................................
.............................. CYCLE   31 ..............................
........................................................................

 iter      E             dE          RMSdq      gap      omega  full diag
   1    -70.1555670 -0.701556E+02  0.178E-02    2.59       0.0  T
   2    -70.1555671 -0.125748E-06  0.106E-02    2.59       1.4  T
   3    -70.1555671  0.378481E-07  0.149E-03    2.59       9.6  T
   4    -70.1555672 -0.757069E-07  0.601E-04    2.59      23.8  T
   5    -70.1555672 -0.576810E-08  0.307E-04    2.59      46.5  T
     SCC iter.                  ...        0 min,  0.013 sec
     gradient                   ...        0 min,  0.033 sec
 * total energy  :   -69.2105055 Eh     change       -0.6691011E-05 Eh
   gradient norm :     0.0004087 Eh/α   predicted    -0.3050676E-05 ( -54.41%)
   displ. norm   :     0.0922505 α      lambda       -0.4276630E-05
   maximum displ.:     0.0463245 α      in ANC's #2, #1, #6, ...

........................................................................
.............................. CYCLE   32 ..............................
........................................................................

 iter      E             dE          RMSdq      gap      omega  full diag
   1    -70.1555721 -0.701556E+02  0.118E-02    2.59       0.0  T
   2    -70.1555722 -0.582028E-07  0.701E-03    2.59       2.0  T
   3    -70.1555722 -0.375175E-08  0.800E-04    2.59      17.9  T
   4    -70.1555722 -0.166958E-07  0.400E-04    2.59      35.7  T
     SCC iter.                  ...        0 min,  0.010 sec
     gradient                   ...        0 min,  0.028 sec
 * total energy  :   -69.2105105 Eh     change       -0.4999069E-05 Eh
   gradient norm :     0.0004257 Eh/α   predicted    -0.2150189E-05 ( -56.99%)
   displ. norm   :     0.0858669 α      lambda       -0.4593782E-05
   maximum displ.:     0.0443430 α      in ANC's #1, #2, #3, ...

   *** GEOMETRY OPTIMIZATION CONVERGED AFTER 32 ITERATIONS ***

------------------------------------------------------------------------
 total energy gain   :        -0.0112955 Eh       -7.0880 kcal/mol
 total RMSD          :         0.7159121 a0        0.3788 Å
 total power (kW/mol):        -0.9267620 (step)  -16.5653 (real)
------------------------------------------------------------------------

 ANCopt (total)                0 d,  0 h,  0 min,  1.790 sec
 optimizer setup                ...        0 min,  0.000 sec (  0.004%)
 model hessian                  ...        0 min,  0.054 sec (  2.989%)
 ANC generation                 ...        0 min,  0.004 sec (  0.232%)
 coordinate transformation      ...        0 min,  0.001 sec (  0.029%)
 single point calculation       ...        0 min,  1.721 sec ( 96.132%)
 optimization log               ...        0 min,  0.006 sec (  0.348%)
 hessian update                 ...        0 min,  0.001 sec (  0.037%)
 rational function              ...        0 min,  0.003 sec (  0.161%)

================
 final structure:
================
49
 xtb: 6.7.1 (edcfbbe)
C            1.10166228764667        0.40129159179797        2.03626748626684
C            0.87971281907479       -0.57163109401115        0.87398570623642
N            1.72387765141351       -0.23121740068682       -0.25142515329793
C            3.05694891990739       -0.47966005154129       -0.34009407356709
C            3.73690889753505       -1.27477252394341        0.57311742418307
C            5.09941911368257       -1.51122270576033        0.40403262354911
N            5.82494802325232       -1.02852659003632       -0.57002771660822
C            5.20542254610501       -0.26004956299629       -1.48601095634505
C            3.81697469799544        0.04988201867156       -1.43514956976925
C            3.27694480266083        0.84925001684155       -2.46057072689883
C            4.05513174462446        1.32951203925897       -3.47868472547253
C            5.42239450766669        1.02390395289918       -3.50840975899872
Cl           6.38345957661394        1.64642556032073       -4.80448047483834
C            5.99325750078424        0.24759569339129       -2.54040914320065
C           -0.57518863776051       -0.57324254697579        0.39298845594788
C           -1.52570552615455       -1.26470497810181        1.36775295652589
C           -2.95493884752462       -1.31421720155245        0.82415696597643
N           -3.48090625435078        0.00591013337935        0.51544214709126
C           -3.60465985781384        0.90478932056117        1.65301256838610
C           -4.44508269309128        0.39675728083210        2.82939130909342
C           -4.66441531647789       -0.00777360002179       -0.33522249534295
C           -4.52407445019156        1.10652525253798       -1.38207909431253
O           -3.29214942718660        0.99787461319881       -2.04633027844247
H            2.15564123799148        0.43059331917453        2.30246106232822
H            0.53548556861140        0.09422317538275        2.91059891718938
H            0.79180815091733        1.40486462441214        1.75163634929947
H            1.14021803481385       -1.58637846232675        1.19379820037861
H            1.36171189749076        0.50160101845218       -0.83998929643609
H            3.23372193178980       -1.71172178983699        1.41965593950019
H            5.62857129754521       -2.12737709049990        1.12068002175650
H            2.22396385287040        1.09212828622732       -2.47036186204121
H            3.62862201701099        1.93859947754799       -4.25988628181530
H            7.04161398512520       -0.00149599046411       -2.55171472109418
H           -0.90502463466787        0.45589557331951        0.23713079826648
H           -0.61987038985969       -1.09265739950350       -0.56709873826737
H           -1.51210091874830       -0.75674042303883        2.33155879680138
H           -1.19375624423218       -2.29210444898743        1.53181160601077
H           -2.94170075706638       -1.88148501238513       -0.11079433834166
H           -3.59158594151316       -1.86427733988601        1.53593709556597
H           -2.59895693812203        1.14190298259468        2.01032936744696
H           -4.04258539793754        1.83298322043556        1.27892083705134
H           -3.96527429951060       -0.44600854982991        3.32065260257327
H           -5.43356574421799        0.08720929081314        2.49718921558336
H           -4.56357221936812        1.19385107393513        3.55853276330777
H           -4.71468745556185       -0.96396802719495       -0.85955911061267
H           -5.59963637299469        0.12181595371429        0.22430280610072
H           -4.60440769661389        2.09178872215756       -0.89802816239625
H           -5.31030481743704        1.02845208006751       -2.13578220713230
H           -2.65407022473230        0.74260651766174       -1.36303513719945

 Bond Distances (Angstroems)
 ---------------------------
C1-C2=1.5319         C1-H24=1.0875        C1-H25=1.0860        C1-H26=1.0882        C2-C1=1.5319         C2-N3=1.4474         
C2-C15=1.5324        C2-H27=1.0954        N3-C2=1.4474         N3-C4=1.3589         N3-H28=1.0073        C4-N3=1.3589         
C4-C5=1.3887         C4-C9=1.4343         C5-C4=1.3887         C5-C6=1.3932         C5-H29=1.0774        C6-C5=1.3932         
C6-N7=1.3070         C6-H30=1.0832        N7-C6=1.3070         N7-C8=1.3466         C8-N7=1.3466         C8-C9=1.4235         
C8-C14=1.4107        C9-C4=1.4343         C9-C8=1.4235         C9-C10=1.4079        C10-C9=1.4079        C10-C11=1.3685       
C10-H31=1.0807       C11-C10=1.3685       C11-C12=1.4013       C11-H32=1.0785       C12-C11=1.4013       C12-Cl13=1.7294      
C12-C14=1.3659       Cl13-C12=1.7294      C14-C8=1.4107        C14-C12=1.3659       C14-H33=1.0776       C15-C2=1.5324        
C15-C16=1.5270       C15-H34=1.0919       C15-H35=1.0925       C16-C15=1.5270       C16-C17=1.5299       C16-H36=1.0896       
C16-H37=1.0921       C17-C16=1.5299       C17-N18=1.4542       C17-H38=1.0937       C17-H39=1.1021       N18-C17=1.4542       
N18-C19=1.4551       N18-C21=1.4576       C19-N18=1.4551       C19-C20=1.5324       C19-H40=1.0933       C19-H41=1.0924       
C20-C19=1.5324       C20-H42=1.0871       C20-H43=1.0878       C20-H44=1.0868       C21-N18=1.4576       C21-C22=1.5353       
C21-H45=1.0917       C21-H46=1.0975       C22-C21=1.5353       C22-O23=1.4038       C22-H47=1.1007       C22-H48=1.0919       
O23-C22=1.4038       O23-H49=0.9691       H24-C1=1.0875        H25-C1=1.0860        H26-C1=1.0882        H27-C2=1.0954        
H28-N3=1.0073        H29-C5=1.0774        H30-C6=1.0832        H31-C10=1.0807       H32-C11=1.0785       H33-C14=1.0776       
H34-C15=1.0919       H35-C15=1.0925       H36-C16=1.0896       H37-C16=1.0921       H38-C17=1.0937       H39-C17=1.1021       
H40-C19=1.0933       H41-C19=1.0924       H42-C20=1.0871       H43-C20=1.0878       H44-C20=1.0868       H45-C21=1.0917       
H46-C21=1.0975       H47-C22=1.1007       H48-C22=1.0919       H49-O23=0.9691       
 C  H  Rav=1.0894 sigma=0.0065  Rmin=1.0774  Rmax=1.1021    24
 C  C  Rav=1.4522 sigma=0.0669  Rmin=1.3659  Rmax=1.5353    15
 N  H  Rav=1.0073 sigma=0.0000  Rmin=1.0073  Rmax=1.0073     1
 N  C  Rav=1.4038 sigma=0.0593  Rmin=1.3070  Rmax=1.4576     7
 O  H  Rav=0.9691 sigma=0.0000  Rmin=0.9691  Rmax=0.9691     1
 O  C  Rav=1.4038 sigma=0.0000  Rmin=1.4038  Rmax=1.4038     1
 Cl C  Rav=1.7294 sigma=0.0000  Rmin=1.7294  Rmax=1.7294     1

 selected bond angles (degree)
 --------------------
H24-C1-C2=110.08               H25-C1-C2=110.84               H25-C1-H24=108.41              H26-C1-C2=110.24               
H26-C1-H24=108.37              H26-C1-H25=108.84              N3-C2-C1=110.86                C15-C2-C1=112.11               
C15-C2-N3=108.05               H27-C2-C1=109.41               H27-C2-N3=107.83               H27-C2-C15=108.45              
C4-N3-C2=125.44                H28-N3-C2=114.57               H28-N3-C4=116.59               C5-C4-N3=122.83                
C9-C4-N3=120.14                C9-C4-C5=117.00                C6-C5-C4=119.75                H29-C5-C4=121.35               
H29-C5-C6=118.90               N7-C6-C5=124.80                H30-C6-C5=119.61               H30-C6-N7=115.59               
C8-N7-C6=117.54                C9-C8-N7=123.28                C14-C8-N7=117.18               C14-C8-C9=119.54               
C8-C9-C4=117.63                C10-C9-C4=124.23               C10-C9-C8=118.15               C11-C10-C9=121.53              
H31-C10-C9=120.53              H31-C10-C11=117.93             

 selected dihedral angles (degree)
 ---------------------------------
N3-C2-C1-H24=305.01           N3-C2-C1-H25=185.08           N3-C2-C1-H26= 64.50           C15-C2-C1-H24=184.16          
C15-C2-C1-H25= 64.23          C15-C2-C1-H26=303.65          H27-C2-C1-H24= 63.80          H27-C2-C1-H25=303.87          
H27-C2-C1-H26=183.30          C4-N3-C2-C1= 76.09            C4-N3-C2-C15=199.31           C4-N3-C2-H27=316.35           
H28-N3-C2-C1=277.75           H28-N3-C2-C15= 40.97          H28-N3-C2-H27=158.01          C5-C4-N3-C2=  9.75            
C5-C4-N3-H28=167.70           C9-C4-N3-C2=187.62            C9-C4-N3-H28=345.57           C6-C5-C4-N3=178.58            
C6-C5-C4-C9=  0.65            H29-C5-C4-N3=358.18           H29-C5-C4-C9=180.25           N7-C6-C5-C4=  0.37            
N7-C6-C5-H29=180.76           H30-C6-C5-C4=179.67           H30-C6-C5-H29=  0.06          C8-N7-C6-C5=359.13            
C8-N7-C6-H30=179.80           C9-C8-N7-C6=  0.34            C14-C8-N7-C6=180.53           C8-C9-C4-N3=180.92            
C8-C9-C4-C5=358.91            C10-C9-C4-N3=  0.68           C10-C9-C4-C5=178.67           C4-C9-C8-N7=  0.63            
C4-C9-C8-C14=180.44           C10-C9-C8-N7=180.86           C10-C9-C8-C14=  0.67          C11-C10-C9-C4=179.79          
C11-C10-C9-C8=359.55          H31-C10-C9-C4=359.05          H31-C10-C9-C8=178.81          
           -------------------------------------------------
          |                Final Singlepoint                |
           -------------------------------------------------

          ...................................................
          :                      SETUP                      :
          :.................................................:
          :  # basis functions                 124          :
          :  # atomic orbitals                 123          :
          :  # shells                           73          :
          :  # electrons                       126          :
          :  max. iterations                   250          :
          :  Hamiltonian                  GFN2-xTB          :
          :  restarted?                      false          :
          :  GBSA solvation                  false          :
          :  PC potential                    false          :
          :  electronic temp.          300.0000000     K    :
          :  accuracy                    1.0000000          :
          :  -> integral cutoff          0.2500000E+02      :
          :  -> integral neglect         0.1000000E-07      :
          :  -> SCF convergence          0.1000000E-05 Eh   :
          :  -> wf. convergence          0.1000000E-03 e    :
          :  Broyden damping             0.4000000          :
          :  net charge                          0          :
          :  unpaired electrons                  0          :
          ...................................................

 iter      E             dE          RMSdq      gap      omega  full diag
   1    -70.1555722 -0.701556E+02  0.209E-04    2.59       0.0  T
   2    -70.1555722 -0.299082E-09  0.142E-04    2.59     100.8  T
   3    -70.1555722 -0.235602E-09  0.982E-05    2.59     145.5  T

   *** convergence criteria satisfied after 3 iterations ***

         #    Occupation            Energy/Eh            Energy/eV
      -------------------------------------------------------------
         1        2.0000           -1.0482116             -28.5233
       ...           ...                  ...                  ...
        57        2.0000           -0.4111614             -11.1883
        58        2.0000           -0.4104799             -11.1697
        59        2.0000           -0.4089373             -11.1278
        60        2.0000           -0.3924971             -10.6804
        61        2.0000           -0.3679203             -10.0116
        62        2.0000           -0.3630112              -9.8780
        63        2.0000           -0.3580987              -9.7444 (HOMO)
        64                         -0.2630169              -7.1571 (LUMO)
        65                         -0.2345984              -6.3837
        66                         -0.1964891              -5.3467
        67                         -0.1513205              -4.1176
        68                         -0.1302970              -3.5456
       ...                                ...                  ...
       123                          0.6846046              18.6290
      -------------------------------------------------------------
                  HL-Gap            0.0950818 Eh            2.5873 eV
             Fermi-level           -0.3105578 Eh           -8.4507 eV

 SCC (total)                   0 d,  0 h,  0 min,  0.045 sec
 SCC setup                      ...        0 min,  0.000 sec (  0.803%)
 Dispersion                     ...        0 min,  0.000 sec (  0.910%)
 classical contributions        ...        0 min,  0.000 sec (  0.422%)
 integral evaluation            ...        0 min,  0.008 sec ( 18.229%)
 iterations                     ...        0 min,  0.008 sec ( 16.965%)
 molecular gradient             ...        0 min,  0.028 sec ( 62.210%)
 printout                       ...        0 min,  0.000 sec (  0.443%)

         :::::::::::::::::::::::::::::::::::::::::::::::::::::
         ::                     SUMMARY                     ::
         :::::::::::::::::::::::::::::::::::::::::::::::::::::
         :: total energy             -69.210510472372 Eh    ::
         :: gradient norm              0.000423076280 Eh/a0 ::
         :: HOMO-LUMO gap              2.587308521740 eV    ::
         ::.................................................::
         :: SCC energy               -70.155474752551 Eh    ::
         :: -> isotropic ES            0.053548193296 Eh    ::
         :: -> anisotropic ES          0.009183489227 Eh    ::
         :: -> anisotropic XC          0.037515741392 Eh    ::
         :: -> dispersion             -0.049382474695 Eh    ::
         :: repulsion energy           0.944964280179 Eh    ::
         :: add. restraining           0.000000000000 Eh    ::
         :: total charge              -0.000000000000 e     ::
         :::::::::::::::::::::::::::::::::::::::::::::::::::::

           -------------------------------------------------
          |                Property Printout                |
           -------------------------------------------------

    * Orbital Energies and Occupations

         #    Occupation            Energy/Eh            Energy/eV
      -------------------------------------------------------------
         1        2.0000           -1.0482116             -28.5233
       ...           ...                  ...                  ...
        51        2.0000           -0.4511489             -12.2764
        52        2.0000           -0.4462633             -12.1434
        53        2.0000           -0.4436840             -12.0733
        54        2.0000           -0.4415469             -12.0151
        55        2.0000           -0.4354804             -11.8500
        56        2.0000           -0.4291423             -11.6776
        57        2.0000           -0.4111614             -11.1883
        58        2.0000           -0.4104799             -11.1697
        59        2.0000           -0.4089373             -11.1278
        60        2.0000           -0.3924971             -10.6804
        61        2.0000           -0.3679203             -10.0116
        62        2.0000           -0.3630112              -9.8780
        63        2.0000           -0.3580987              -9.7444 (HOMO)
        64                         -0.2630169              -7.1571 (LUMO)
        65                         -0.2345984              -6.3837
        66                         -0.1964891              -5.3467
        67                         -0.1513205              -4.1176
        68                         -0.1302970              -3.5456
        69                         -0.0663827              -1.8064
        70                         -0.0154938              -0.4216
        71                         -0.0070959              -0.1931
        72                          0.0231111               0.6289
        73                          0.0281963               0.7673
        74                          0.0282928               0.7699
       ...                                ...                  ...
       123                          0.6846046              18.6290
      -------------------------------------------------------------
                  HL-Gap            0.0950818 Eh            2.5873 eV
             Fermi-level           -0.3105578 Eh           -8.4507 eV

     #   Z          covCN         q      C6AA      α(0)
     1   6 C        3.754    -0.115    22.756     6.802
     2   6 C        3.786     0.044    19.844     6.345
     3   7 N        2.695    -0.173    24.740     7.387
     4   6 C        2.902     0.083    26.140     8.383
     5   6 C        2.913    -0.083    30.074     8.993
     6   6 C        2.906     0.063    26.583     8.454
     7   7 N        1.843    -0.256    27.510     7.773
     8   6 C        2.981     0.093    25.931     8.353
     9   6 C        2.983    -0.028    28.683     8.785
    10   6 C        2.919    -0.036    28.902     8.816
    11   6 C        2.951    -0.045    29.120     8.851
    12   6 C        2.885     0.098    25.826     8.331
    13  17 Cl       0.969    -0.181   104.850    15.665
    14   6 C        2.962    -0.052    29.297     8.878
    15   6 C        3.807    -0.073    21.885     6.660
    16   6 C        3.802    -0.063    21.702     6.633
    17   6 C        3.748     0.009    20.495     6.457
    18   7 N        2.727    -0.187    25.059     7.435
    19   6 C        3.748     0.006    20.548     6.465
    20   6 C        3.750    -0.108    22.632     6.785
    21   6 C        3.749    -0.005    20.731     6.494
    22   6 C        3.676     0.075    19.548     6.335
    23   8 O        1.655    -0.447    21.793     6.302
    24   1 H        0.925     0.046     2.370     2.408
    25   1 H        0.925     0.044     2.401     2.423
    26   1 H        0.925     0.040     2.448     2.447
    27   1 H        0.924     0.047     2.354     2.399
    28   1 H        0.860     0.165     1.306     1.790
    29   1 H        0.926     0.027     2.634     2.538
    30   1 H        0.925     0.033     2.545     2.495
    31   1 H        0.926     0.034     2.525     2.485
    32   1 H        0.926     0.054     2.275     2.359
    33   1 H        0.926     0.073     2.058     2.243
    34   1 H        0.924     0.043     2.406     2.426
    35   1 H        0.924     0.046     2.367     2.406
    36   1 H        0.925     0.042     2.423     2.434
    37   1 H        0.924     0.036     2.498     2.472
    38   1 H        0.924     0.036     2.498     2.471
    39   1 H        0.923     0.016     2.801     2.617
    40   1 H        0.924     0.035     2.512     2.478
    41   1 H        0.924     0.037     2.496     2.471
    42   1 H        0.925     0.035     2.523     2.484
    43   1 H        0.925     0.033     2.540     2.492
    44   1 H        0.925     0.035     2.511     2.478
    45   1 H        0.924     0.041     2.440     2.443
    46   1 H        0.924     0.020     2.734     2.586
    47   1 H        0.923     0.019     2.748     2.593
    48   1 H        0.924     0.044     2.402     2.424
    49   1 H        0.805     0.302     0.716     1.329

 Mol. C6AA /au·bohr⁶  :      25109.178356
 Mol. C8AA /au·bohr⁸  :     598046.833306
 Mol. α(0) /au        :        243.572013


Wiberg/Mayer (AO) data.
largest (>0.10) Wiberg bond orders for each atom

 ---------------------------------------------------------------------------
     #   Z sym  total        # sym  WBO       # sym  WBO       # sym  WBO
 ---------------------------------------------------------------------------
     1   6 C    3.991 --     2 C    0.995    26 H    0.986    24 H    0.984
                            25 H    0.982
     2   6 C    3.974 --     1 C    0.995    15 C    0.992     3 N    0.989
                            27 H    0.957
     3   7 N    3.405 --     4 C    1.218     2 C    0.989    28 H    0.932
     4   6 C    3.970 --     5 C    1.393     3 N    1.218     9 C    1.189
     5   6 C    3.978 --     4 C    1.393     6 C    1.368    29 H    0.965
     6   6 C    3.982 --     7 N    1.503     5 C    1.368    30 H    0.963
     7   7 N    3.047 --     6 C    1.503     8 C    1.282
     8   6 C    3.983 --     7 N    1.282    14 C    1.270     9 C    1.246
     9   6 C    3.986 --    10 C    1.305     8 C    1.246     4 C    1.189
    10   6 C    3.992 --    11 C    1.537     9 C    1.305    31 H    0.959
                            14 C    0.111
    11   6 C    3.987 --    10 C    1.537    12 C    1.302    32 H    0.968
    12   6 C    3.916 --    14 C    1.512    11 C    1.302    13 Cl   0.969
    13  17 Cl   1.101 --    12 C    0.969
    14   6 C    3.986 --    12 C    1.512     8 C    1.270    33 H    0.963
                            10 C    0.111
    15   6 C    3.994 --    16 C    1.008     2 C    0.992    35 H    0.974
                            34 H    0.972
    16   6 C    3.996 --    15 C    1.008    17 C    1.002    37 H    0.976
                            36 H    0.971
    17   6 C    3.987 --    18 N    1.003    16 C    1.002    38 H    0.971
                            39 H    0.964
    18   7 N    3.149 --    19 C    1.004    21 C    1.003    17 C    1.003
    19   6 C    3.986 --    20 C    1.005    18 N    1.004    41 H    0.972
                            40 H    0.970
    20   6 C    3.997 --    19 C    1.005    42 H    0.986    44 H    0.986
                            43 H    0.985
    21   6 C    3.987 --    18 N    1.003    22 C    0.990    45 H    0.972
                            46 H    0.966
    22   6 C    3.964 --    23 O    1.009    21 C    0.990    48 H    0.973
                            47 H    0.966
    23   8 O    1.951 --    22 C    1.009    49 H    0.877
    24   1 H    0.998 --     1 C    0.984
    25   1 H    0.997 --     1 C    0.982
    26   1 H    0.998 --     1 C    0.986
    27   1 H    0.997 --     2 C    0.957
    28   1 H    0.972 --     3 N    0.932
    29   1 H    0.999 --     5 C    0.965
    30   1 H    0.998 --     6 C    0.963
    31   1 H    0.999 --    10 C    0.959
    32   1 H    0.997 --    11 C    0.968
    33   1 H    0.994 --    14 C    0.963
    34   1 H    0.998 --    15 C    0.972
    35   1 H    0.998 --    15 C    0.974
    36   1 H    0.998 --    16 C    0.971
    37   1 H    0.998 --    16 C    0.976
    38   1 H    0.999 --    17 C    0.971
    39   1 H    0.999 --    17 C    0.964
    40   1 H    0.999 --    19 C    0.970
    41   1 H    0.999 --    19 C    0.972
    42   1 H    0.999 --    20 C    0.986
    43   1 H    0.999 --    20 C    0.985
    44   1 H    0.999 --    20 C    0.986
    45   1 H    0.998 --    21 C    0.972
    46   1 H    1.000 --    21 C    0.966
    47   1 H    1.000 --    22 C    0.966
    48   1 H    0.998 --    22 C    0.973
    49   1 H    0.909 --    23 O    0.877
 ---------------------------------------------------------------------------

Topologies differ in total number of bonds
Writing topology from bond orders to xtbtopo.mol

molecular dipole:
                 x           y           z       tot (Debye)
 q only:       -2.045      -0.265       1.720
   full:       -2.586      -0.198       2.010       8.339
molecular quadrupole (traceless):
                xx          xy          yy          xz          yz          zz
 q only:      -17.729      -1.633      16.008      13.706       5.260       1.722
  q+dip:      -20.459       1.620      16.738       8.919       1.963       3.721
   full:      -21.596       2.940      17.612       8.677       4.050       3.984

           -------------------------------------------------
          |                Geometry Summary                 |
           -------------------------------------------------

      molecular mass/u    :      335.8721578
   center of mass at/Å    :        1.2990484       0.1334448      -0.7928414
  moments of inertia/u·Å² :        0.1200346E+04   0.6155832E+04   0.7093038E+04
rotational constants/cm⁻¹ :        0.1404398E-01   0.2738481E-02   0.2376645E-02

 * 50 selected distances

     #   Z          #   Z                                           value/Å
     1   6 C        2   6 C                                       1.5319071
     2   6 C        3   7 N                                       1.4474273
     3   7 N        4   6 C                                       1.3589206
     4   6 C        5   6 C                                       1.3887062
     5   6 C        6   6 C                                       1.3931736
     6   6 C        7   7 N                                       1.3069742
     7   7 N        8   6 C                                       1.3466233
     4   6 C        9   6 C                                       1.4342946
     8   6 C        9   6 C                                       1.4235281
     9   6 C       10   6 C                                       1.4078744
    10   6 C       11   6 C                                       1.3684966
    11   6 C       12   6 C                                       1.4013164
    12   6 C       13  17 Cl                                      1.7294447 (max)
     8   6 C       14   6 C                                       1.4107245
    12   6 C       14   6 C                                       1.3658567
     2   6 C       15   6 C                                       1.5323510
    15   6 C       16   6 C                                       1.5270131
    16   6 C       17   6 C                                       1.5299204
    17   6 C       18   7 N                                       1.4541950
    18   7 N       19   6 C                                       1.4551170
    19   6 C       20   6 C                                       1.5324081
    18   7 N       21   6 C                                       1.4575705
    21   6 C       22   6 C                                       1.5353393
    22   6 C       23   8 O                                       1.4038070
     1   6 C       24   1 H                                       1.0874693
     1   6 C       25   1 H                                       1.0859571
     1   6 C       26   1 H                                       1.0882020
     2   6 C       27   1 H                                       1.0953791
     3   7 N       28   1 H                                       1.0072710
     5   6 C       29   1 H                                       1.0773808
     6   6 C       30   1 H                                       1.0831583
    10   6 C       31   1 H                                       1.0806733
    11   6 C       32   1 H                                       1.0785055
    14   6 C       33   1 H                                       1.0776020
    15   6 C       34   1 H                                       1.0918832
    15   6 C       35   1 H                                       1.0924998
    16   6 C       36   1 H                                       1.0895572
    16   6 C       37   1 H                                       1.0920877
    17   6 C       38   1 H                                       1.0936646
    17   6 C       39   1 H                                       1.1020512
    19   6 C       40   1 H                                       1.0933146
    19   6 C       41   1 H                                       1.0923679
    20   6 C       42   1 H                                       1.0871100
    20   6 C       43   1 H                                       1.0877854
    20   6 C       44   1 H                                       1.0867593
    21   6 C       45   1 H                                       1.0916795
    21   6 C       46   1 H                                       1.0974975
    22   6 C       47   1 H                                       1.1006830
    22   6 C       48   1 H                                       1.0919351
    23   8 O       49   1 H                                       0.9691230 (min)

 * 7 distinct bonds (by element types)

   Z      Z             #   av. dist./Å        max./Å        min./Å
   1 H    6 C          24     1.0893835     1.1020512     1.0773808
   6 C    6 C          15     1.4521940     1.5353393     1.3658567
   1 H    7 N           1     1.0072710     1.0072710     1.0072710
   6 C    7 N           7     1.4038326     1.4575705     1.3069742
   1 H    8 O           1     0.9691230     0.9691230     0.9691230
   6 C    8 O           1     1.4038070     1.4038070     1.4038070
   6 C   17 Cl          1     1.7294447     1.7294447     1.7294447


optimized geometry written to: xtbopt.xyz


           -------------------------------------------------
          | TOTAL ENERGY              -69.210510472372 Eh   |
          | GRADIENT NORM               0.000423076280 Eh/α |
          | HOMO-LUMO GAP               2.587308521740 eV   |
           -------------------------------------------------

------------------------------------------------------------------------
 * finished run on 2025/05/15 at 16:05:43.099     
------------------------------------------------------------------------
 total:
 * wall-time:     0 d,  0 h,  0 min,  1.928 sec
 *  cpu-time:     0 d,  0 h,  0 min,  1.887 sec
 * ratio c/w:     0.979 speedup
 SCF:
 * wall-time:     0 d,  0 h,  0 min,  0.075 sec
 *  cpu-time:     0 d,  0 h,  0 min,  0.074 sec
 * ratio c/w:     0.995 speedup
 ANC optimizer:
 * wall-time:     0 d,  0 h,  0 min,  1.838 sec
 *  cpu-time:     0 d,  0 h,  0 min,  1.799 sec
[...]
     DOI: 10.1039/c7sc00601b
   * J. Koopman and S. Grimme, ACS Omega 2019, 4, 12, 15120-15133.
     DOI: 10.1021/acsomega.9b02011
   
   for metadynamics refer to:
   * S. Grimme, J. Chem. Theory Comput., 2019, 155, 2847-2862
     DOI: 10.1021/acs.jctc.9b00143
   
   for SPH calculations refer to:
   * S. Spicher and S. Grimme, J. Chem. Theory Comput., 2021, 17, 1701-1714
     DOI: 10.1021/acs.jctc.0c01306
   
   for ONIOM refer to:
   * C. Plett, A. Katbashev, S. Ehlert, S. Grimme, M. Bursch,
     Phys. Chem. Chem. Phys., 2023, 25, 17860-17868. DOI: 10.1039/D3CP02178E
   
   for DIPRO refer to:
   * J. Kohn, N. Gildemeister, S. Grimme, D. Fazzi, A. Hansen,
     J. Chem. Phys., 2023, just accepted.
   
   for PTB refer to:
   * S. Grimme, M. Mueller, A. Hansen, J. Chem. Phys., 2023, 158, 124111.
     DOI: 10.1063/5.0137838
   
   with help from (in alphabetical order)
   P. Atkinson, C. Bannwarth, F. Bohle, G. Brandenburg, E. Caldeweyher
   M. Checinski, S. Dohm, S. Ehlert, S. Ehrlich, I. Gerasimov, C. Hölzer
   A. Katbashev, J. Kohn, J. Koopman, C. Lavigne, S. Lehtola, F. März, M. Müller,
   F. Musil, H. Neugebauer, J. Pisarek, C. Plett, P. Pracht, F. Pultar,
   J. Seibert, P. Shushkov, S. Spicher, M. Stahn, M. Steiner, T. Strunk,
   J. Stückrath, T. Rose, and J. Unsleber
   
 * started run on 2025/05/15 at 16:05:44.846     
   ID    Z sym.   atoms
    1    6 C      1, 2, 4-6, 8-12, 14-17, 19-22
    2    7 N      3, 7, 18
    3   17 Cl     13
    4    8 O      23
    5    1 H      24-49

           -------------------------------------------------
          |                Calculation Setup                |
           -------------------------------------------------

          program call               : xtb /rds/general/user/hgt20/home/callum/QDESCP/Hydroxychloroquine_rdkit_conf_4/Hydroxychloroquine_rdkit_conf_4.xyz --acc 1 --gfn 2 --chrg 0 --uhf 2 --etemp 300 --input /rds/general/user/hgt20/home/callum/QDESCP/Hydroxychloroquine_rdkit_conf_4/Hydroxychloroquine_rdkit_conf_4_xtb.inp -P 1
          hostname                   : login-c
          coordinate file            : /rds/general/user/hgt20/home/callum/QDESCP/Hydroxychloroquine_rdkit_conf_4/Hydroxychloroquine_rdkit_conf_4.xyz
          omp threads                :                     1


           -------------------------------------------------
          |                 G F N 2 - x T B                 |
           -------------------------------------------------

        Reference                      10.1021/acs.jctc.8b01176
      * Hamiltonian:
        H0-scaling (s, p, d)           1.850000    2.230000    2.230000
        zeta-weighting                 0.500000
      * Dispersion:
        s8                             2.700000
        a1                             0.520000
        a2                             5.000000
        s9                             5.000000
      * Repulsion:
        kExp                           1.500000    1.000000
        rExp                           1.000000
      * Coulomb:
        alpha                          2.000000
        third order                    shell-resolved
        anisotropic                    true
        a3                             3.000000
        a5                             4.000000
        cn-shift                       1.200000
        cn-exp                         4.000000
        max-rad                        5.000000


          ...................................................
          :                      SETUP                      :
          :.................................................:
          :  # basis functions                 124          :
          :  # atomic orbitals                 123          :
          :  # shells                           73          :
          :  # electrons                       126          :
          :  max. iterations                   250          :
          :  Hamiltonian                  GFN2-xTB          :
          :  restarted?                      false          :
          :  GBSA solvation                  false          :
          :  PC potential                    false          :
          :  electronic temp.          300.0000000     K    :
          :  accuracy                    1.0000000          :
          :  -> integral cutoff          0.2500000E+02      :
          :  -> integral neglect         0.1000000E-07      :
          :  -> SCF convergence          0.1000000E-05 Eh   :
          :  -> wf. convergence          0.1000000E-03 e    :
          :  Broyden damping             0.4000000          :
          :  net charge                          0          :
          :  unpaired electrons                  2          :
          ...................................................

 iter      E             dE          RMSdq      gap      omega  full diag
   1    -69.8647798 -0.698648E+02  0.335E+00    0.48       0.0  T
   2    -69.9175974 -0.528176E-01  0.239E+00    0.88       1.0  T
   3    -69.9518532 -0.342559E-01  0.177E+00    0.68       1.0  T
   4    -70.0028773 -0.510240E-01  0.930E-01    0.75       1.0  T
   5    -70.0131935 -0.103163E-01  0.731E-01    0.71       1.0  T
   6    -70.0314654 -0.182718E-01  0.579E-01    0.70       1.0  T
   7    -70.0433795 -0.119142E-01  0.335E-01    0.69       1.0  T
   8    -69.9570674  0.863121E-01  0.846E-01    0.70       1.0  T
   9    -70.0284253 -0.713578E-01  0.588E-01    0.71       1.0  T
  10    -70.0450165 -0.165913E-01  0.249E-01    0.70       1.0  T
  11    -70.0470748 -0.205821E-02  0.746E-02    0.70       1.0  T
  12    -70.0467303  0.344452E-03  0.990E-02    0.70       1.0  T
  13    -70.0471225 -0.392171E-03  0.619E-02    0.70       1.0  T
  14    -70.0472339 -0.111391E-03  0.511E-02    0.70       1.0  T
  15    -70.0474965 -0.262630E-03  0.153E-02    0.70       1.0  T
  16    -70.0475098 -0.133413E-04  0.571E-03    0.70       2.5  T
  17    -70.0475084  0.139363E-05  0.670E-03    0.70       2.1  T
  18    -70.0475130 -0.455043E-05  0.192E-03    0.70       7.4  T
  19    -70.0475133 -0.270294E-06  0.128E-03    0.70      11.2  T
  20    -70.0475133 -0.260620E-07  0.107E-03    0.70      13.3  T
  21    -70.0475134 -0.772609E-07  0.641E-04    0.70      22.3  T
  22    -70.0475133  0.671489E-07  0.959E-04    0.70      14.9  T

   *** convergence criteria satisfied after 22 iterations ***

         #    Occupation            Energy/Eh            Energy/eV
      -------------------------------------------------------------
         1        2.0000           -1.0384403             -28.2574
       ...           ...                  ...                  ...
        58        2.0000           -0.4025632             -10.9543
        59        2.0000           -0.4002282             -10.8908
        60        2.0000           -0.3825815             -10.4106
        61        1.9747           -0.3717904             -10.1169
        62        1.7686           -0.3694616             -10.0536
        63        1.2566           -0.3673105              -9.9950
        64        1.0000           -0.2532839              -6.8922 (HOMO)
        65        0.0000           -0.2274892              -6.1903 (LUMO)
        66                         -0.1884869              -5.1290
        67                         -0.1429650              -3.8903
        68                         -0.1189924              -3.2379
        69                         -0.0589828              -1.6050
       ...                                ...                  ...
       123                          0.6930572              18.8590
      -------------------------------------------------------------
                  HL-Gap            0.0257947 Eh            0.7019 eV
             Fermi-level           -0.3043537 Eh           -8.2819 eV

 transition dipole moment (au) for excitation:          63          64
     X       Y       Z   
  -1.6722   0.2596   0.2156  total (au/Debye):    1.706   4.336
 dE (eV)             :    3.103
 oscillator strength :  0.31286E+00

 SCC (total)                   0 d,  0 h,  0 min,  0.103 sec
 SCC setup                      ...        0 min,  0.000 sec (  0.410%)
 Dispersion                     ...        0 min,  0.001 sec (  0.542%)
 classical contributions        ...        0 min,  0.000 sec (  0.195%)
 integral evaluation            ...        0 min,  0.009 sec (  8.406%)
 iterations                     ...        0 min,  0.057 sec ( 55.479%)
 molecular gradient             ...        0 min,  0.028 sec ( 27.592%)
 printout                       ...        0 min,  0.008 sec (  7.369%)

         :::::::::::::::::::::::::::::::::::::::::::::::::::::
         ::                     SUMMARY                     ::
         :::::::::::::::::::::::::::::::::::::::::::::::::::::
         :: total energy             -69.102451591863 Eh    ::
         :: gradient norm              0.108927522815 Eh/a0 ::
         :: HOMO-LUMO gap              0.701908867978 eV    ::
         ::.................................................::
         :: SCC energy               -70.047415872042 Eh    ::
         :: -> isotropic ES            0.050343043332 Eh    ::
         :: -> anisotropic ES          0.009434460029 Eh    ::
         :: -> anisotropic XC          0.033489798567 Eh    ::
         :: -> dispersion             -0.049322043418 Eh    ::
         :: repulsion energy           0.944964280179 Eh    ::
         :: add. restraining           0.000000000000 Eh    ::
         :: total charge               0.000000000335 e     ::
         :::::::::::::::::::::::::::::::::::::::::::::::::::::

           -------------------------------------------------
          |                Property Printout                |
           -------------------------------------------------

    * Orbital Energies and Occupations

         #    Occupation            Energy/Eh            Energy/eV
      -------------------------------------------------------------
         1        2.0000           -1.0384403             -28.2574
       ...           ...                  ...                  ...
        52        2.0000           -0.4507543             -12.2656
        53        2.0000           -0.4478862             -12.1876
        54        2.0000           -0.4340721             -11.8117
        55        2.0000           -0.4261310             -11.5956
        56        2.0000           -0.4230919             -11.5129
        57        2.0000           -0.4156562             -11.3106
        58        2.0000           -0.4025632             -10.9543
        59        2.0000           -0.4002282             -10.8908
        60        2.0000           -0.3825815             -10.4106
        61        1.9747           -0.3717904             -10.1169
        62        1.7686           -0.3694616             -10.0536
        63        1.2566           -0.3673105              -9.9950
        64        1.0000           -0.2532839              -6.8922 (HOMO)
        65        0.0000           -0.2274892              -6.1903 (LUMO)
        66                         -0.1884869              -5.1290
        67                         -0.1429650              -3.8903
        68                         -0.1189924              -3.2379
        69                         -0.0589828              -1.6050
        70                         -0.0175619              -0.4779
        71                         -0.0141476              -0.3850
        72                          0.0327726               0.8918
        73                          0.0365190               0.9937
        74                          0.0384641               1.0467
        75                          0.0385478               1.0489
       ...                                ...                  ...
       123                          0.6930572              18.8590
      -------------------------------------------------------------
                  HL-Gap            0.0257947 Eh            0.7019 eV
             Fermi-level           -0.3043537 Eh           -8.2819 eV

     #   Z          covCN         q      C6AA      α(0)
     1   6 C        3.754    -0.114    22.742     6.800
     2   6 C        3.786     0.044    19.858     6.347
     3   7 N        2.695    -0.151    24.263     7.316
     4   6 C        2.902     0.045    26.992     8.519
     5   6 C        2.913    -0.058    29.450     8.899
     6   6 C        2.906     0.035    27.226     8.556
     7   7 N        1.843    -0.205    26.282     7.598
     8   6 C        2.981     0.091    25.979     8.361
     9   6 C        2.983    -0.022    28.543     8.764
    10   6 C        2.919    -0.062    29.531     8.911
    11   6 C        2.951    -0.046    29.136     8.853
    12   6 C        2.885     0.085    26.102     8.376
    13  17 Cl       0.969    -0.190   105.126    15.686
    14   6 C        2.962    -0.065    29.605     8.925
    15   6 C        3.807    -0.073    21.893     6.661
    16   6 C        3.802    -0.063    21.710     6.634
    17   6 C        3.748     0.007    20.527     6.462
    18   7 N        2.727    -0.177    24.821     7.399
    19   6 C        3.748     0.004    20.573     6.469
    20   6 C        3.750    -0.109    22.644     6.787
    21   6 C        3.749    -0.007    20.762     6.499
    22   6 C        3.676     0.074    19.553     6.335
    23   8 O        1.655    -0.446    21.754     6.296
    24   1 H        0.925     0.049     2.330     2.387
    25   1 H        0.925     0.045     2.379     2.412
    26   1 H        0.925     0.043     2.413     2.429
    27   1 H        0.924     0.051     2.308     2.376
    28   1 H        0.860     0.170     1.275     1.769
    29   1 H        0.926     0.031     2.567     2.505
    30   1 H        0.925     0.032     2.554     2.499
    31   1 H        0.926     0.022     2.705     2.572
    32   1 H        0.926     0.044     2.393     2.419
    33   1 H        0.926     0.060     2.195     2.317
    34   1 H        0.924     0.044     2.393     2.419
    35   1 H        0.924     0.048     2.342     2.393
    36   1 H        0.925     0.043     2.409     2.427
    37   1 H        0.924     0.038     2.472     2.459
    38   1 H        0.924     0.039     2.458     2.452
    39   1 H        0.923     0.020     2.728     2.583
    40   1 H        0.924     0.038     2.477     2.461
    41   1 H        0.924     0.039     2.461     2.453
    42   1 H        0.925     0.036     2.504     2.475
    43   1 H        0.925     0.035     2.520     2.482
    44   1 H        0.925     0.038     2.477     2.461
    45   1 H        0.924     0.043     2.407     2.426
    46   1 H        0.924     0.024     2.679     2.560
    47   1 H        0.923     0.021     2.725     2.582
    48   1 H        0.924     0.046     2.374     2.409
    49   1 H        0.805     0.302     0.716     1.329

 Mol. C6AA /au·bohr⁶  :      25090.808557
 Mol. C8AA /au·bohr⁸  :     598041.717690
 Mol. α(0) /au        :        243.509584


Wiberg/Mayer (AO) data.
largest (>0.10) Wiberg bond orders for each atom

 ---------------------------------------------------------------------------
     #   Z sym  total        # sym  WBO       # sym  WBO       # sym  WBO
 ---------------------------------------------------------------------------
     1   6 C    3.982 --     2 C    0.987    26 H    0.986    24 H    0.983
                            25 H    0.981
     2   6 C    3.971 --     3 N    0.995    15 C    0.990     1 C    0.987
                            27 H    0.955
     3   7 N    3.344 --     4 C    1.202     2 C    0.995    28 H    0.929
     4   6 C    3.874 --     5 C    1.233     3 N    1.202     9 C    1.185
     5   6 C    3.865 --     6 C    1.452     4 C    1.233    29 H    0.962
     6   6 C    3.947 --     5 C    1.452     7 N    1.333    30 H    0.958
     7   7 N    2.881 --     6 C    1.333     8 C    1.280
     8   6 C    3.959 --     7 N    1.280    14 C    1.266     9 C    1.228
     9   6 C    3.953 --    10 C    1.312     8 C    1.228     4 C    1.185
    10   6 C    3.899 --    11 C    1.342     9 C    1.312    31 H    0.956
    11   6 C    3.947 --    12 C    1.418    10 C    1.342    32 H    0.969
    12   6 C    3.888 --    11 C    1.418    14 C    1.330    13 Cl   0.960
    13  17 Cl   1.084 --    12 C    0.960
    14   6 C    3.854 --    12 C    1.330     8 C    1.266    33 H    0.964
    15   6 C    3.991 --    16 C    1.007     2 C    0.990    35 H    0.974
                            34 H    0.972
    16   6 C    3.994 --    15 C    1.007    17 C    1.001    37 H    0.975
                            36 H    0.971
    17   6 C    3.983 --    18 N    1.003    16 C    1.001    38 H    0.970
                            39 H    0.962
    18   7 N    3.141 --    19 C    1.003    17 C    1.003    21 C    1.002
    19   6 C    3.984 --    20 C    1.004    18 N    1.003    41 H    0.971
                            40 H    0.969
    20   6 C    3.993 --    19 C    1.004    42 H    0.986    44 H    0.985
                            43 H    0.984
    21   6 C    3.984 --    18 N    1.002    22 C    0.989    45 H    0.972
                            46 H    0.965
    22   6 C    3.962 --    23 O    1.010    21 C    0.989    48 H    0.972
                            47 H    0.965
    23   8 O    1.952 --    22 C    1.010    49 H    0.878
    24   1 H    0.997 --     1 C    0.983
    25   1 H    0.996 --     1 C    0.981
    26   1 H    0.998 --     1 C    0.986
    27   1 H    0.995 --     2 C    0.955
    28   1 H    0.970 --     3 N    0.929
    29   1 H    0.995 --     5 C    0.962
    30   1 H    0.989 --     6 C    0.958
    31   1 H    0.995 --    10 C    0.956
    32   1 H    0.997 --    11 C    0.969
    33   1 H    0.994 --    14 C    0.964
    34   1 H    0.998 --    15 C    0.972
    35   1 H    0.997 --    15 C    0.974
    36   1 H    0.998 --    16 C    0.971
    37   1 H    0.998 --    16 C    0.975
    38   1 H    0.998 --    17 C    0.970
    39   1 H    0.994 --    17 C    0.962
    40   1 H    0.998 --    19 C    0.969
    41   1 H    0.998 --    19 C    0.971
    42   1 H    0.999 --    20 C    0.986
    43   1 H    0.999 --    20 C    0.984
    44   1 H    0.998 --    20 C    0.985
    45   1 H    0.998 --    21 C    0.972
    46   1 H    0.997 --    21 C    0.965
    47   1 H    0.999 --    22 C    0.965
    48   1 H    0.998 --    22 C    0.972
    49   1 H    0.909 --    23 O    0.878
 ---------------------------------------------------------------------------

Topologies differ in total number of bonds
Writing topology from bond orders to xtbtopo.mol

molecular dipole:
                 x           y           z       tot (Debye)
 q only:       -2.742      -0.490       2.305
   full:       -3.210      -0.462       2.636      10.623
molecular quadrupole (traceless):
                xx          xy          yy          xz          yz          zz
 q only:      -18.319      -4.436      18.281      19.767       6.842       0.038
  q+dip:      -19.188      -2.293      18.724      16.181       4.208       0.464
   full:      -20.298      -1.014      19.420      15.873       5.930       0.878


           -------------------------------------------------
          | TOTAL ENERGY              -69.102451591863 Eh   |
          | GRADIENT NORM               0.108927522815 Eh/α |
          | HOMO-LUMO GAP               0.701908867978 eV   |
           -------------------------------------------------

------------------------------------------------------------------------
 * finished run on 2025/05/15 at 16:05:44.963     
------------------------------------------------------------------------
 total:
 * wall-time:     0 d,  0 h,  0 min,  0.117 sec
 *  cpu-time:     0 d,  0 h,  0 min,  0.115 sec
 * ratio c/w:     0.983 speedup
 SCF:
 * wall-time:     0 d,  0 h,  0 min,  0.103 sec
 *  cpu-time:     0 d,  0 h,  0 min,  0.102 sec
 * ratio c/w:     0.995 speedup


