49
 energy: -69.210510472372 gnorm: 0.000423076280 xtb: 6.7.1 (edcfbbe)
C            1.10166228764667        0.40129159179797        2.03626748626684
C            0.87971281907479       -0.57163109401115        0.87398570623642
N            1.72387765141351       -0.23121740068682       -0.25142515329793
C            3.05694891990739       -0.47966005154129       -0.34009407356709
C            3.73690889753505       -1.27477252394341        0.57311742418307
C            5.09941911368257       -1.51122270576033        0.40403262354911
N            5.82494802325232       -1.02852659003632       -0.57002771660822
C            5.20542254610501       -0.26004956299629       -1.48601095634505
C            3.81697469799544        0.04988201867156       -1.43514956976925
C            3.27694480266083        0.84925001684155       -2.46057072689883
C            4.05513174462446        1.32951203925897       -3.47868472547253
C            5.42239450766669        1.02390395289918       -3.50840975899872
Cl           6.38345957661394        1.64642556032073       -4.80448047483834
C            5.99325750078424        0.24759569339129       -2.54040914320065
C           -0.57518863776051       -0.57324254697579        0.39298845594788
C           -1.52570552615455       -1.26470497810181        1.36775295652589
C           -2.95493884752462       -1.31421720155245        0.82415696597643
N           -3.48090625435078        0.00591013337935        0.51544214709126
C           -3.60465985781384        0.90478932056117        1.65301256838610
C           -4.44508269309128        0.39675728083210        2.82939130909342
C           -4.66441531647789       -0.00777360002179       -0.33522249534295
C           -4.52407445019156        1.10652525253798       -1.38207909431253
O           -3.29214942718660        0.99787461319881       -2.04633027844247
H            2.15564123799148        0.43059331917453        2.30246106232822
H            0.53548556861140        0.09422317538275        2.91059891718938
H            0.79180815091733        1.40486462441214        1.75163634929947
H            1.14021803481385       -1.58637846232675        1.19379820037861
H            1.36171189749076        0.50160101845218       -0.83998929643609
H            3.23372193178980       -1.71172178983699        1.41965593950019
H            5.62857129754521       -2.12737709049990        1.12068002175650
H            2.22396385287040        1.09212828622732       -2.47036186204121
H            3.62862201701099        1.93859947754799       -4.25988628181530
H            7.04161398512520       -0.00149599046411       -2.55171472109418
H           -0.90502463466787        0.45589557331951        0.23713079826648
H           -0.61987038985969       -1.09265739950350       -0.56709873826737
H           -1.51210091874830       -0.75674042303883        2.33155879680138
H           -1.19375624423218       -2.29210444898743        1.53181160601077
H           -2.94170075706638       -1.88148501238513       -0.11079433834166
H           -3.59158594151316       -1.86427733988601        1.53593709556597
H           -2.59895693812203        1.14190298259468        2.01032936744696
H           -4.04258539793754        1.83298322043556        1.27892083705134
H           -3.96527429951060       -0.44600854982991        3.32065260257327
H           -5.43356574421799        0.08720929081314        2.49718921558336
H           -4.56357221936812        1.19385107393513        3.55853276330777
H           -4.71468745556185       -0.96396802719495       -0.85955911061267
H           -5.59963637299469        0.12181595371429        0.22430280610072
H           -4.60440769661389        2.09178872215756       -0.89802816239625
H           -5.31030481743704        1.02845208006751       -2.13578220713230
H           -2.65407022473230        0.74260651766174       -1.36303513719945
