54
 energy: -87.154295183589 gnorm: 0.000614863633 xtb: 6.7.1 (edcfbbe)
O           -4.16781057086458       -0.75450253244365       -3.59367229083966
C           -3.34561025615898       -0.94564391997608       -2.71041714139408
C           -2.85370388695579        0.16045793615530       -1.91268094083914
C           -1.74625464847295        0.35230128098282       -1.15157491413226
C           -1.59892037606282        1.74590151183497       -0.55649849837124
N           -1.21845606744011        1.73463056332948        0.84034218444493
C           -1.98792852272617        2.29186225140820        1.80520726369410
C           -1.38831566438318        2.16399313351695        3.19194528555220
O           -3.04977172733054        2.83038926574577        1.58117564913491
C           -0.63914388262327        2.59906937445318       -1.41203343215006
C            0.55223707043933        1.80028831916222       -1.95508195801296
C           -2.93399764705602       -2.33174618225794       -2.37331086722653
O           -3.84943951176098       -3.19895394775672       -2.83991712972631
C           -3.70589913996126       -4.58065344045268       -2.62171673713477
C           -1.78034899707371       -2.71143163844970       -1.75327054652645
C           -0.73904808326056       -1.92386795013511       -1.22597554685530
C           -0.68695061495210       -0.58751738816866       -0.93473516474871
C            0.57561627522665       -0.09989767431717       -0.33529677455395
C            1.16598701728966       -0.77228056108282        0.74259871630886
O            0.57047744516571       -1.91004071839478        1.24602314928465
C           -0.06732775951205       -1.74939680576733        2.49705343495902
C            2.35863841377759       -0.31426763724736        1.32199463421084
O            2.79648193630012       -1.03045181165156        2.40202208499724
C            4.18147338048064       -1.14942906553320        2.64719002399382
C            1.20860021368989        1.03513924808549       -0.84641007695097
C            2.39031065723289        1.48086095052082       -0.28137427524481
C            2.97596118326320        0.83603526117131        0.80116861241169
O            4.12050236135328        1.27328620578106        1.41000796145180
C            4.81096276020109        2.36375244116251        0.85006863927795
H           -3.51608324023456        1.01326958282085       -2.01921509124037
H           -2.57959551740416        2.23498257343595       -0.55410544509116
H           -0.33886069331025        1.31034175393861        1.08702705127681
H           -0.33241832832989        2.42377463631580        3.18384636981694
H           -1.49353372603474        1.13760862983984        3.53907218806310
H           -1.92230896613079        2.81898114558086        3.87406655031101
H           -0.28343274905331        3.42853180417103       -0.79773671757656
H           -1.19470890782683        3.01481330398544       -2.25335832881060
H            0.19786340652343        1.10774230284892       -2.72132609028414
H            1.26305615523389        2.48626853609402       -2.41760651061967
H           -4.60592815625116       -5.03442592455476       -3.03334686075261
H           -3.63539196183783       -4.81446222183585       -1.55458914482086
H           -2.83010655595015       -4.98114160150904       -3.14266397137015
H           -1.58680725492626       -3.77507430370602       -1.69634290688830
H            0.14887536902974       -2.48680876390906       -0.97182035098303
H           -0.38635603358329       -2.74477257539672        2.79958633229781
H           -0.94672142474604       -1.10077736151236        2.40019889940412
H            0.61368730571951       -1.34000742555217        3.24644788728578
H            4.58748149320310       -0.25204321688018        3.11854275260426
H            4.73316258244027       -1.35605832664895        1.72729151795916
H            4.28032139072024       -1.99619368366794        3.32642023302821
H            2.85190646207285        2.36353233272422       -0.69372314064410
H            4.21832969859106        3.28292039154781        0.89429328937227
H            5.70438755594218        2.48506851896172        1.46076810156923
H            5.10476073830578        2.16614342321081       -0.18535795889071
