----- Optimization -----
      -----------------------------------------------------------      
     |                   =====================                   |     
     |                           x T B                           |     
     |                   =====================                   |     
     |                         S. Grimme                         |     
     |          Mulliken Center for Theoretical Chemistry        |     
     |                    University of Bonn                     |     
      -----------------------------------------------------------      

   * xtb version 6.7.1 (edcfbbe) compiled by 'conda@3ef47c1a292c' on 2024-11-25

   xtb is free software: you can redistribute it and/or modify it under
   the terms of the GNU Lesser General Public License as published by
   the Free Software Foundation, either version 3 of the License, or
   (at your option) any later version.
   
   xtb is distributed in the hope that it will be useful,
   but WITHOUT ANY WARRANTY; without even the implied warranty of
   MERCHANTABILITY or FITNESS FOR A PARTICULAR PURPOSE.  See the
   GNU Lesser General Public License for more details.
   
   Cite this work as:
   * C. Bannwarth, E. Caldeweyher, S. Ehlert, A. Hansen, P. Pracht,
     J. Seibert, S. Spicher, S. Grimme, WIREs Comput. Mol. Sci., 2020, 11,
     e01493. DOI: 10.1002/wcms.1493
   
   for GFN2-xTB:
   * C. Bannwarth, S. Ehlert and S. Grimme., J. Chem. Theory Comput., 2019,
     15, 1652-1671. DOI: 10.1021/acs.jctc.8b01176
   for GFN1-xTB:
   * S. Grimme, C. Bannwarth, P. Shushkov, J. Chem. Theory Comput., 2017,
     13, 1989-2009. DOI: 10.1021/acs.jctc.7b00118
   for GFN0-xTB:
   * P. Pracht, E. Caldeweyher, S. Ehlert, S. Grimme, ChemRxiv, 2019, preprint.
     DOI: 10.26434/chemrxiv.8326202.v1
   for GFN-FF:
   * S. Spicher and S. Grimme, Angew. Chem. Int. Ed., 2020, 59, 15665-15673.
     DOI: 10.1002/anie.202004239
   
   for ALPB and GBSA implicit solvation:
   * S. Ehlert, M. Stahn, S. Spicher, S. Grimme, J. Chem. Theory Comput.,
     2021, 17, 4250-4261. DOI: 10.1021/acs.jctc.1c00471
   
   for ddCOSMO and CPCM-X implicit solvation:
   * M. Stahn, S. Ehlert, S. Grimme, J. Phys. Chem. A,
     2023, XX, XXXX-XXXX. DOI: 10.1021/acs.jpca.3c04382
   
   for DFT-D4:
   * E. Caldeweyher, C. Bannwarth and S. Grimme, J. Chem. Phys., 2017,
     147, 034112. DOI: 10.1063/1.4993215
   * E. Caldeweyher, S. Ehlert, A. Hansen, H. Neugebauer, S. Spicher,
     C. Bannwarth and S. Grimme, J. Chem. Phys., 2019, 150, 154122.
     DOI: 10.1063/1.5090222
   * E. Caldeweyher, J.-M. Mewes, S. Ehlert and S. Grimme, Phys. Chem. Chem. Phys.
     2020, 22, 8499-8512. DOI: 10.1039/D0CP00502A
   
   for sTDA-xTB:
   * S. Grimme and C. Bannwarth, J. Chem. Phys., 2016, 145, 054103.
     DOI: 10.1063/1.4959605
   
   in the mass-spec context:
   * V. Asgeirsson, C. Bauer and S. Grimme, Chem. Sci., 2017, 8, 4879.
     DOI: 10.1039/c7sc00601b
   * J. Koopman and S. Grimme, ACS Omega 2019, 4, 12, 15120-15133.
     DOI: 10.1021/acsomega.9b02011
   
   for metadynamics refer to:
   * S. Grimme, J. Chem. Theory Comput., 2019, 155, 2847-2862
     DOI: 10.1021/acs.jctc.9b00143
   
   for SPH calculations refer to:
   * S. Spicher and S. Grimme, J. Chem. Theory Comput., 2021, 17, 1701-1714
     DOI: 10.1021/acs.jctc.0c01306
   
   for ONIOM refer to:
   * C. Plett, A. Katbashev, S. Ehlert, S. Grimme, M. Bursch,
     Phys. Chem. Chem. Phys., 2023, 25, 17860-17868. DOI: 10.1039/D3CP02178E
   
   for DIPRO refer to:
   * J. Kohn, N. Gildemeister, S. Grimme, D. Fazzi, A. Hansen,
     J. Chem. Phys., 2023, just accepted.
   
   for PTB refer to:
   * S. Grimme, M. Mueller, A. Hansen, J. Chem. Phys., 2023, 158, 124111.
     DOI: 10.1063/5.0137838
   
   with help from (in alphabetical order)
   P. Atkinson, C. Bannwarth, F. Bohle, G. Brandenburg, E. Caldeweyher
   M. Checinski, S. Dohm, S. Ehlert, S. Ehrlich, I. Gerasimov, C. Hölzer
   A. Katbashev, J. Kohn, J. Koopman, C. Lavigne, S. Lehtola, F. März, M. Müller,
   F. Musil, H. Neugebauer, J. Pisarek, C. Plett, P. Pracht, F. Pultar,
   J. Seibert, P. Shushkov, S. Spicher, M. Stahn, M. Steiner, T. Strunk,
   J. Stückrath, T. Rose, and J. Unsleber
   
 * started run on 2025/05/15 at 16:08:11.042     
   ID    Z sym.   atoms
    1    8 O      1, 9, 13, 20, 23, 28
    2    6 C      2-5, 7, 8, 10-12, 14-19, 21, 22, 24-27, 29
    3    7 N      6
    4    1 H      30-54

           -------------------------------------------------
          |                Calculation Setup                |
           -------------------------------------------------

          program call               : xtb /rds/general/user/hgt20/home/callum/QDESCP/Colchicine_rdkit_conf_10/Colchicine_rdkit_conf_10.xyz --opt normal --acc 1 --gfn 2 --chrg 0 --uhf 0 -P 1
          hostname                   : login-c
          coordinate file            : /rds/general/user/hgt20/home/callum/QDESCP/Colchicine_rdkit_conf_10/Colchicine_rdkit_conf_10.xyz
          omp threads                :                     1


           -------------------------------------------------
          |                 G F N 2 - x T B                 |
           -------------------------------------------------

        Reference                      10.1021/acs.jctc.8b01176
      * Hamiltonian:
        H0-scaling (s, p, d)           1.850000    2.230000    2.230000
        zeta-weighting                 0.500000
      * Dispersion:
        s8                             2.700000
        a1                             0.520000
        a2                             5.000000
        s9                             5.000000
      * Repulsion:
        kExp                           1.500000    1.000000
        rExp                           1.000000
      * Coulomb:
        alpha                          2.000000
        third order                    shell-resolved
        anisotropic                    true
        a3                             3.000000
        a5                             4.000000
        cn-shift                       1.200000
        cn-exp                         4.000000
        max-rad                        5.000000


          ...................................................
          :                      SETUP                      :
          :.................................................:
          :  # basis functions                 141          :
          :  # atomic orbitals                 141          :
          :  # shells                           83          :
          :  # electrons                       154          :
          :  max. iterations                   250          :
          :  Hamiltonian                  GFN2-xTB          :
          :  restarted?                      false          :
          :  GBSA solvation                  false          :
          :  PC potential                    false          :
          :  electronic temp.          300.0000000     K    :
          :  accuracy                    1.0000000          :
          :  -> integral cutoff          0.2500000E+02      :
          :  -> integral neglect         0.1000000E-07      :
          :  -> SCF convergence          0.1000000E-05 Eh   :
          :  -> wf. convergence          0.1000000E-03 e    :
          :  Broyden damping             0.4000000          :
          :  net charge                          0          :
          :  unpaired electrons                  0          :
          ...................................................

 iter      E             dE          RMSdq      gap      omega  full diag
   1    -88.0482277 -0.880482E+02  0.442E+00    2.44       0.0  T
   2    -88.1843982 -0.136170E+00  0.237E+00    2.23       1.0  T
   3    -88.1732934  0.111048E-01  0.129E+00    2.34       1.0  T
   4    -88.1880131 -0.147197E-01  0.587E-01    2.30       1.0  T
   5    -88.2008388 -0.128257E-01  0.145E-01    2.28       1.0  T
   6    -88.2014925 -0.653677E-03  0.719E-02    2.28       1.0  T
   7    -88.2015350 -0.424600E-04  0.356E-02    2.29       1.0  T
   8    -88.2015540 -0.190591E-04  0.148E-02    2.29       1.0  T
   9    -88.2015642 -0.102270E-04  0.575E-03    2.29       2.4  T
  10    -88.2015653 -0.104152E-05  0.271E-03    2.29       5.0  T
  11    -88.2015655 -0.162707E-06  0.106E-03    2.29      12.8  T
  12    -88.2015655 -0.531477E-08  0.446E-04    2.29      30.5  T
  13    -88.2015655 -0.378006E-08  0.166E-04    2.29      81.9  T

   *** convergence criteria satisfied after 13 iterations ***

         #    Occupation            Energy/Eh            Energy/eV
      -------------------------------------------------------------
         1        2.0000           -0.7275436             -19.7975
       ...           ...                  ...                  ...
        71        2.0000           -0.4098346             -11.1522
        72        2.0000           -0.4019476             -10.9376
        73        2.0000           -0.4008274             -10.9071
        74        2.0000           -0.3942712             -10.7287
        75        2.0000           -0.3856256             -10.4934
        76        2.0000           -0.3830291             -10.4228
        77        2.0000           -0.3738174             -10.1721 (HOMO)
        78                         -0.2897640              -7.8849 (LUMO)
        79                         -0.2640063              -7.1840
        80                         -0.2394949              -6.5170
        81                         -0.2312760              -6.2933
        82                         -0.2111144              -5.7447
       ...                                ...                  ...
       141                          0.8012412              21.8029
      -------------------------------------------------------------
                  HL-Gap            0.0840534 Eh            2.2872 eV
             Fermi-level           -0.3317907 Eh           -9.0285 eV

 SCC (total)                   0 d,  0 h,  0 min,  0.098 sec
 SCC setup                      ...        0 min,  0.001 sec (  0.563%)
 Dispersion                     ...        0 min,  0.001 sec (  0.800%)
 classical contributions        ...        0 min,  0.000 sec (  0.245%)
 integral evaluation            ...        0 min,  0.012 sec ( 12.431%)
 iterations                     ...        0 min,  0.045 sec ( 45.873%)
 molecular gradient             ...        0 min,  0.039 sec ( 39.814%)
 printout                       ...        0 min,  0.000 sec (  0.267%)

         :::::::::::::::::::::::::::::::::::::::::::::::::::::
         ::                     SUMMARY                     ::
         :::::::::::::::::::::::::::::::::::::::::::::::::::::
         :: total energy             -87.116996555652 Eh    ::
         :: gradient norm              0.152567338320 Eh/a0 ::
         :: HOMO-LUMO gap              2.287210516689 eV    ::
         ::.................................................::
         :: SCC energy               -88.199820859144 Eh    ::
         :: -> isotropic ES            0.126747799843 Eh    ::
         :: -> anisotropic ES          0.012546837713 Eh    ::
         :: -> anisotropic XC          0.018870426572 Eh    ::
         :: -> dispersion             -0.062982747288 Eh    ::
         :: repulsion energy           1.082824303492 Eh    ::
         :: add. restraining           0.000000000000 Eh    ::
         :: total charge               0.000000000000 e     ::
         :::::::::::::::::::::::::::::::::::::::::::::::::::::

      ----------------------------------------------------------- 
     |                   =====================                   |
     |                        A N C O P T                        |
     |                   =====================                   |
     |               Approximate Normal Coordinate               |
     |                Rational Function Optimizer                |
      ----------------------------------------------------------- 
      ----------------------------------------------------------- 
     |                   =====================                   |
     |                        A N C O P T                        |
     |                   =====================                   |
     |               Approximate Normal Coordinate               |
     |                Rational Function Optimizer                |
      ----------------------------------------------------------- 

          ...................................................
          :                      SETUP                      :
          :.................................................:
          :   optimization level            normal          :
          :   max. optcycles                   200          :
          :   ANC micro-cycles                  20          :
          :   degrees of freedom               156          :
          :.................................................:
          :   RF solver                   davidson          :
          :   write xtbopt.log                true          :
          :   linear?                        false          :
          :   energy convergence         0.5000000E-05 Eh   :
          :   grad. convergence          0.1000000E-02 Eh/α :
          :   maxmium RF displ.          1.0000000          :
          :   Hlow (freq-cutoff)         0.1000000E-01      :
          :   Hmax (freq-cutoff)         5.0000000          :
          :   S6 in model hess.         20.0000000          :
          ...................................................

generating ANC from exact Hessian ...
Using Lindh-Hessian (1995)
 Shifting diagonal of input Hessian by    9.7463298421347298E-003
 Lowest  eigenvalues of input Hessian
    0.000000    0.000000    0.000000    0.000000    0.000000    0.000000
    0.010000    0.010103    0.010281    0.010612    0.010763    0.011253
    0.011910    0.012275    0.012607    0.012719    0.013423    0.013950
 Highest eigenvalues
    2.026983    2.049205    2.104823    2.128507    2.250747    2.313447


........................................................................
.............................. CYCLE    1 ..............................
........................................................................

 iter      E             dE          RMSdq      gap      omega  full diag
   1    -88.2015655 -0.882016E+02  0.720E-05    2.29       0.0  T
   2    -88.2015655 -0.738964E-10  0.493E-05    2.29     276.0  T
   3    -88.2015655 -0.676295E-10  0.302E-05    2.29     450.9  T
     SCC iter.                  ...        0 min,  0.011 sec
     gradient                   ...        0 min,  0.039 sec
 * total energy  :   -87.1169966 Eh     change       -0.4500720E-09 Eh
   gradient norm :     0.1525673 Eh/α   predicted     0.0000000E+00 (-100.00%)
   displ. norm   :     0.3798092 α      lambda       -0.3198157E-01
   maximum displ.:     0.1021252 α      in ANC's #34, #48, #29, ...

........................................................................
.............................. CYCLE    2 ..............................
........................................................................

 iter      E             dE          RMSdq      gap      omega  full diag
   1    -88.2250953 -0.882251E+02  0.247E-01    2.33       0.0  T
   2    -88.2252674 -0.172075E-03  0.165E-01    2.35       1.0  T
   3    -88.2250475  0.219900E-03  0.963E-02    2.35       1.0  T
   4    -88.2254220 -0.374554E-03  0.196E-02    2.35       1.0  T
   5    -88.2254435 -0.214704E-04  0.793E-03    2.35       1.7  T
   6    -88.2254468 -0.328905E-05  0.280E-03    2.35       4.9  T
   7    -88.2254469 -0.964418E-07  0.159E-03    2.35       8.6  T
   8    -88.2254469 -0.153853E-07  0.533E-04    2.35      25.5  T
   9    -88.2254469 -0.694737E-08  0.302E-04    2.35      45.1  T
     SCC iter.                  ...        0 min,  0.035 sec
     gradient                   ...        0 min,  0.039 sec
 * total energy  :   -87.1386614 Eh     change       -0.2166484E-01 Eh
   gradient norm :     0.0555169 Eh/α   predicted    -0.1831285E-01 ( -15.47%)
   displ. norm   :     0.3880205 α      lambda       -0.9818267E-02
   maximum displ.:     0.1537061 α      in ANC's #29, #25, #34, ...

........................................................................
.............................. CYCLE    3 ..............................
........................................................................

 iter      E             dE          RMSdq      gap      omega  full diag
   1    -88.2425917 -0.882426E+02  0.184E-01    2.41       0.0  T
   2    -88.2426660 -0.743128E-04  0.117E-01    2.41       1.0  T
   3    -88.2425385  0.127536E-03  0.721E-02    2.41       1.0  T
   4    -88.2427325 -0.194005E-03  0.115E-02    2.41       1.2  T
   5    -88.2427387 -0.622098E-05  0.589E-03    2.41       2.3  T
   6    -88.2427408 -0.214198E-05  0.186E-03    2.41       7.3  T
   7    -88.2427409 -0.279665E-07  0.104E-03    2.41      13.1  T
   8    -88.2427409 -0.111181E-07  0.376E-04    2.41      36.2  T
   9    -88.2427409 -0.339374E-08  0.194E-04    2.41      70.1  T
     SCC iter.                  ...        0 min,  0.030 sec
     gradient                   ...        0 min,  0.039 sec
 * total energy  :   -87.1448141 Eh     change       -0.6152722E-02 Eh
   gradient norm :     0.0140229 Eh/α   predicted    -0.5656092E-02 (  -8.07%)
   displ. norm   :     0.3372428 α      lambda       -0.2558797E-02
   maximum displ.:     0.1301028 α      in ANC's #29, #9, #25, ...

........................................................................
.............................. CYCLE    4 ..............................
........................................................................

 iter      E             dE          RMSdq      gap      omega  full diag
   1    -88.2466158 -0.882466E+02  0.126E-01    2.45       0.0  T
   2    -88.2466757 -0.599314E-04  0.778E-02    2.44       1.0  T
   3    -88.2466190  0.567177E-04  0.429E-02    2.45       1.0  T
   4    -88.2466869 -0.679046E-04  0.132E-02    2.44       1.0  T
   5    -88.2466966 -0.970383E-05  0.256E-03    2.44       5.3  T
   6    -88.2466968 -0.188402E-06  0.145E-03    2.44       9.4  T
   7    -88.2466969 -0.715767E-07  0.713E-04    2.44      19.1  T
   8    -88.2466969 -0.498878E-08  0.274E-04    2.44      49.6  T
     SCC iter.                  ...        0 min,  0.027 sec
     gradient                   ...        0 min,  0.039 sec
 * total energy  :   -87.1465892 Eh     change       -0.1775038E-02 Eh
   gradient norm :     0.0174101 Eh/α   predicted    -0.1425025E-02 ( -19.72%)
   displ. norm   :     0.3753751 α      lambda       -0.1670910E-02
   maximum displ.:     0.1789793 α      in ANC's #9, #29, #27, ...

........................................................................
.............................. CYCLE    5 ..............................
........................................................................

 iter      E             dE          RMSdq      gap      omega  full diag
   1    -88.2493237 -0.882493E+02  0.120E-01    2.45       0.0  T
   2    -88.2493391 -0.153844E-04  0.720E-02    2.45       1.0  T
   3    -88.2492703  0.688793E-04  0.385E-02    2.46       1.0  T
   4    -88.2493493 -0.790675E-04  0.643E-03    2.45       2.1  T
   5    -88.2493513 -0.196796E-05  0.232E-03    2.45       5.9  T
   6    -88.2493514 -0.947334E-07  0.142E-03    2.45       9.6  T
   7    -88.2493514 -0.444402E-07  0.684E-04    2.45      19.9  T
   8    -88.2493514 -0.100748E-07  0.250E-04    2.45      54.4  T
     SCC iter.                  ...        0 min,  0.026 sec
     gradient                   ...        0 min,  0.039 sec
 * total energy  :   -87.1477687 Eh     change       -0.1179530E-02 Eh
   gradient norm :     0.0157981 Eh/α   predicted    -0.9531863E-03 ( -19.19%)
   displ. norm   :     0.3563055 α      lambda       -0.1048603E-02
   maximum displ.:     0.1824800 α      in ANC's #9, #5, #1, ...

........................................................................
.............................. CYCLE    6 ..............................
........................................................................

 iter      E             dE          RMSdq      gap      omega  full diag
   1    -88.2496988 -0.882497E+02  0.110E-01    2.45       0.0  T
   2    -88.2497102 -0.113943E-04  0.673E-02    2.44       1.0  T
   3    -88.2496160  0.941660E-04  0.416E-02    2.45       1.0  T
   4    -88.2497271 -0.111088E-03  0.593E-03    2.45       2.3  T
   5    -88.2497287 -0.162102E-05  0.225E-03    2.44       6.0  T
   6    -88.2497288 -0.920317E-07  0.136E-03    2.44      10.0  T
   7    -88.2497288 -0.468091E-07  0.551E-04    2.44      24.7  T
   8    -88.2497288 -0.374342E-08  0.249E-04    2.44      54.7  T
     SCC iter.                  ...        0 min,  0.026 sec
     gradient                   ...        0 min,  0.039 sec
 * total energy  :   -87.1485262 Eh     change       -0.7575477E-03 Eh
   gradient norm :     0.0132237 Eh/α   predicted    -0.5908937E-03 ( -22.00%)
   displ. norm   :     0.3483771 α      lambda       -0.7714299E-03
   maximum displ.:     0.1715807 α      in ANC's #9, #5, #1, ...

........................................................................
.............................. CYCLE    7 ..............................
........................................................................

 iter      E             dE          RMSdq      gap      omega  full diag
   1    -88.2506938 -0.882507E+02  0.965E-02    2.43       0.0  T
   2    -88.2506994 -0.555867E-05  0.573E-02    2.43       1.0  T
   3    -88.2506845  0.148854E-04  0.178E-02    2.43       1.0  T
   4    -88.2507016 -0.171495E-04  0.359E-03    2.43       3.8  T
   5    -88.2507021 -0.446585E-06  0.188E-03    2.43       7.2  T
   6    -88.2507021 -0.621363E-07  0.107E-03    2.43      12.7  T
   7    -88.2507022 -0.258258E-07  0.368E-04    2.43      37.0  T
   8    -88.2507022 -0.311603E-08  0.156E-04    2.43      87.0  T
     SCC iter.                  ...        0 min,  0.031 sec
     gradient                   ...        0 min,  0.039 sec
 * total energy  :   -87.1490742 Eh     change       -0.5479673E-03 Eh
   gradient norm :     0.0080684 Eh/α   predicted    -0.4325296E-03 ( -21.07%)
   displ. norm   :     0.3746110 α      lambda       -0.6118282E-03
   maximum displ.:     0.1468265 α      in ANC's #5, #9, #1, ...

........................................................................
.............................. CYCLE    8 ..............................
........................................................................

 iter      E             dE          RMSdq      gap      omega  full diag
   1    -88.2494745 -0.882495E+02  0.100E-01    2.43       0.0  T
   2    -88.2494867 -0.122603E-04  0.607E-02    2.42       1.0  T
   3    -88.2494246  0.621030E-04  0.325E-02    2.43       1.0  T
   4    -88.2494952 -0.705291E-04  0.637E-03    2.42       2.1  T
   5    -88.2494972 -0.204607E-05  0.215E-03    2.42       6.3  T
   6    -88.2494973 -0.632630E-07  0.130E-03    2.42      10.5  T
   7    -88.2494973 -0.360322E-07  0.604E-04    2.42      22.5  T
   8    -88.2494973 -0.665712E-08  0.219E-04    2.42      62.1  T
     SCC iter.                  ...        0 min,  0.026 sec
     gradient                   ...        0 min,  0.042 sec
 * total energy  :   -87.1495076 Eh     change       -0.4334152E-03 Eh
   gradient norm :     0.0113704 Eh/α   predicted    -0.3488503E-03 ( -19.51%)
   displ. norm   :     0.3804242 α      lambda       -0.6073699E-03
   maximum displ.:     0.1600330 α      in ANC's #5, #1, #9, ...

........................................................................
.............................. CYCLE    9 ..............................
........................................................................

 iter      E             dE          RMSdq      gap      omega  full diag
   1    -88.2508056 -0.882508E+02  0.899E-02    2.42       0.0  T
   2    -88.2508180 -0.124257E-04  0.543E-02    2.42       1.0  T
   3    -88.2507883  0.297166E-04  0.243E-02    2.42       1.0  T
   4    -88.2508218 -0.335037E-04  0.644E-03    2.42       2.1  T
   5    -88.2508240 -0.219887E-05  0.207E-03    2.42       6.6  T
   6    -88.2508241 -0.741307E-07  0.121E-03    2.42      11.3  T
   7    -88.2508241 -0.352614E-07  0.450E-04    2.42      30.2  T
   8    -88.2508241 -0.339942E-08  0.206E-04    2.42      66.0  T
     SCC iter.                  ...        0 min,  0.027 sec
     gradient                   ...        0 min,  0.044 sec
 * total energy  :   -87.1499246 Eh     change       -0.4169421E-03 Eh
   gradient norm :     0.0101634 Eh/α   predicted    -0.3476739E-03 ( -16.61%)
   displ. norm   :     0.3984403 α      lambda       -0.4489420E-03
   maximum displ.:     0.1953311 α      in ANC's #5, #1, #23, ...

........................................................................
.............................. CYCLE   10 ..............................
........................................................................

 iter      E             dE          RMSdq      gap      omega  full diag
   1    -88.2494438 -0.882494E+02  0.970E-02    2.43       0.0  T
   2    -88.2494547 -0.108669E-04  0.583E-02    2.43       1.0  T
   3    -88.2494248  0.298934E-04  0.227E-02    2.43       1.0  T
   4    -88.2494576 -0.327836E-04  0.607E-03    2.43       2.2  T
   5    -88.2494597 -0.212523E-05  0.219E-03    2.43       6.2  T
   6    -88.2494598 -0.114437E-06  0.114E-03    2.43      11.9  T
   7    -88.2494598 -0.158287E-07  0.536E-04    2.43      25.4  T
   8    -88.2494598 -0.524651E-08  0.177E-04    2.43      76.9  T
     SCC iter.                  ...        0 min,  0.027 sec
     gradient                   ...        0 min,  0.039 sec
 * total energy  :   -87.1502537 Eh     change       -0.3291015E-03 Eh
   gradient norm :     0.0070308 Eh/α   predicted    -0.2601091E-03 ( -20.96%)
   displ. norm   :     0.3704904 α      lambda       -0.4080040E-03
   maximum displ.:     0.1953653 α      in ANC's #5, #1, #6, ...

........................................................................
.............................. CYCLE   11 ..............................
........................................................................

 iter      E             dE          RMSdq      gap      omega  full diag
   1    -88.2516105 -0.882516E+02  0.851E-02    2.44       0.0  T
   2    -88.2516170 -0.654545E-05  0.509E-02    2.44       1.0  T
   3    -88.2515992  0.177898E-04  0.190E-02    2.44       1.0  T
   4    -88.2516199 -0.206851E-04  0.358E-03    2.44       3.8  T
   5    -88.2516204 -0.451766E-06  0.180E-03    2.44       7.6  T
   6    -88.2516204 -0.829665E-07  0.948E-04    2.44      14.4  T
   7    -88.2516205 -0.189561E-07  0.368E-04    2.44      36.9  T
     SCC iter.                  ...        0 min,  0.023 sec
     gradient                   ...        0 min,  0.039 sec
 * total energy  :   -87.1505457 Eh     change       -0.2920793E-03 Eh
   gradient norm :     0.0050830 Eh/α   predicted    -0.2320077E-03 ( -20.57%)
   displ. norm   :     0.4378264 α      lambda       -0.3281497E-03
   maximum displ.:     0.2390729 α      in ANC's #5, #1, #6, ...

........................................................................
.............................. CYCLE   12 ..............................
........................................................................

 iter      E             dE          RMSdq      gap      omega  full diag
   1    -88.2490348 -0.882490E+02  0.105E-01    2.44       0.0  T
   2    -88.2490418 -0.704447E-05  0.626E-02    2.44       1.0  T
   3    -88.2490132  0.286022E-04  0.213E-02    2.44       1.0  T
   4    -88.2490445 -0.313031E-04  0.504E-03    2.44       2.7  T
   5    -88.2490459 -0.135480E-05  0.203E-03    2.44       6.7  T
   6    -88.2490459 -0.719211E-07  0.107E-03    2.44      12.7  T
   7    -88.2490459 -0.164374E-07  0.368E-04    2.44      37.0  T
   8    -88.2490459 -0.244496E-08  0.125E-04    2.44     108.7  T
     SCC iter.                  ...        0 min,  0.036 sec
     gradient                   ...        0 min,  0.039 sec
 * total energy  :   -87.1507673 Eh     change       -0.2215469E-03 Eh
   gradient norm :     0.0098961 Eh/α   predicted    -0.1955345E-03 ( -11.74%)
   displ. norm   :     0.3786022 α      lambda       -0.3732314E-03
   maximum displ.:     0.2152871 α      in ANC's #5, #1, #6, ...

........................................................................
.............................. CYCLE   13 ..............................
........................................................................

 iter      E             dE          RMSdq      gap      omega  full diag
   1    -88.2519227 -0.882519E+02  0.824E-02    2.44       0.0  T
   2    -88.2519275 -0.487332E-05  0.490E-02    2.44       1.0  T
   3    -88.2519227  0.478026E-05  0.109E-02    2.44       1.2  T
   4    -88.2519286 -0.585731E-05  0.282E-03    2.44       4.8  T
   5    -88.2519289 -0.251492E-06  0.137E-03    2.44       9.9  T
   6    -88.2519289 -0.102276E-07  0.811E-04    2.44      16.8  T
   7    -88.2519289 -0.212023E-07  0.326E-04    2.44      41.7  T
     SCC iter.                  ...        0 min,  0.036 sec
     gradient                   ...        0 min,  0.039 sec
 * total energy  :   -87.1510017 Eh     change       -0.2343771E-03 Eh
   gradient norm :     0.0088847 Eh/α   predicted    -0.2133670E-03 (  -8.96%)
   displ. norm   :     0.3605117 α      lambda       -0.2509849E-03
   maximum displ.:     0.2065364 α      in ANC's #5, #1, #6, ...

........................................................................
.............................. CYCLE   14 ..............................
........................................................................

 iter      E             dE          RMSdq      gap      omega  full diag
   1    -88.2508461 -0.882508E+02  0.831E-02    2.44       0.0  T
   2    -88.2508490 -0.287820E-05  0.493E-02    2.44       1.0  T
   3    -88.2508451  0.391329E-05  0.850E-03    2.44       1.6  T
   4    -88.2508495 -0.438487E-05  0.296E-03    2.44       4.6  T
   5    -88.2508499 -0.437311E-06  0.136E-03    2.44      10.0  T
   6    -88.2508499 -0.256578E-07  0.749E-04    2.44      18.2  T
   7    -88.2508500 -0.140052E-07  0.235E-04    2.44      57.9  T
     SCC iter.                  ...        0 min,  0.023 sec
     gradient                   ...        0 min,  0.048 sec
 * total energy  :   -87.1511948 Eh     change       -0.1931106E-03 Eh
   gradient norm :     0.0080065 Eh/α   predicted    -0.1418034E-03 ( -26.57%)
   displ. norm   :     0.4022445 α      lambda       -0.3067938E-03
   maximum displ.:     0.2442911 α      in ANC's #5, #1, #6, ...

........................................................................
.............................. CYCLE   15 ..............................
........................................................................

 iter      E             dE          RMSdq      gap      omega  full diag
   1    -88.2503234 -0.882503E+02  0.923E-02    2.42       0.0  T
   2    -88.2503262 -0.281249E-05  0.548E-02    2.42       1.0  T
   3    -88.2503210  0.526775E-05  0.102E-02    2.42       1.3  T
   4    -88.2503270 -0.606516E-05  0.292E-03    2.42       4.7  T
   5    -88.2503273 -0.315165E-06  0.132E-03    2.42      10.3  T
   6    -88.2503273 -0.185949E-08  0.698E-04    2.42      19.5  T
   7    -88.2503274 -0.144986E-07  0.222E-04    2.42      61.2  T
     SCC iter.                  ...        0 min,  0.023 sec
     gradient                   ...        0 min,  0.048 sec
 * total energy  :   -87.1513989 Eh     change       -0.2041327E-03 Eh
   gradient norm :     0.0059095 Eh/α   predicted    -0.1782189E-03 ( -12.69%)
   displ. norm   :     0.2961177 α      lambda       -0.2082624E-03
   maximum displ.:     0.1682640 α      in ANC's #5, #6, #3, ...

........................................................................
.............................. CYCLE   16 ..............................
........................................................................

 iter      E             dE          RMSdq      gap      omega  full diag
   1    -88.2522148 -0.882522E+02  0.707E-02    2.41       0.0  T
   2    -88.2522159 -0.110398E-05  0.421E-02    2.41       1.0  T
   3    -88.2522090  0.690106E-05  0.108E-02    2.41       1.3  T
   4    -88.2522167 -0.772091E-05  0.196E-03    2.41       7.0  T
   5    -88.2522168 -0.756990E-07  0.111E-03    2.41      12.3  T
   6    -88.2522168 -0.113137E-07  0.520E-04    2.41      26.1  T
   7    -88.2522168 -0.918699E-08  0.212E-04    2.41      64.2  T
     SCC iter.                  ...        0 min,  0.023 sec
     gradient                   ...        0 min,  0.039 sec
 * total energy  :   -87.1514998 Eh     change       -0.1008662E-03 Eh
   gradient norm :     0.0081556 Eh/α   predicted    -0.1132633E-03 (  12.29%)
   displ. norm   :     0.3186223 α      lambda       -0.1644421E-03
   maximum displ.:     0.1979710 α      in ANC's #5, #3, #1, ...

........................................................................
.............................. CYCLE   17 ..............................
........................................................................

 iter      E             dE          RMSdq      gap      omega  full diag
   1    -88.2491576 -0.882492E+02  0.732E-02    2.41       0.0  T
   2    -88.2491624 -0.482085E-05  0.434E-02    2.41       1.0  T
   3    -88.2491580  0.442759E-05  0.102E-02    2.41       1.3  T
   4    -88.2491630 -0.498551E-05  0.335E-03    2.41       4.1  T
   5    -88.2491635 -0.551601E-06  0.122E-03    2.41      11.2  T
   6    -88.2491636 -0.128894E-07  0.715E-04    2.41      19.0  T
   7    -88.2491636 -0.108457E-07  0.258E-04    2.41      52.8  T
     SCC iter.                  ...        0 min,  0.023 sec
     gradient                   ...        0 min,  0.039 sec
 * total energy  :   -87.1516021 Eh     change       -0.1023276E-03 Eh
   gradient norm :     0.0068414 Eh/α   predicted    -0.9057619E-04 ( -11.48%)
   displ. norm   :     0.1528909 α      lambda       -0.1506147E-03
   maximum displ.:     0.0833832 α      in ANC's #5, #3, #2, ...

........................................................................
.............................. CYCLE   18 ..............................
........................................................................

 iter      E             dE          RMSdq      gap      omega  full diag
   1    -88.2536902 -0.882537E+02  0.372E-02    2.41       0.0  T
   2    -88.2536940 -0.375901E-05  0.229E-02    2.42       1.0  T
   3    -88.2536854  0.858918E-05  0.136E-02    2.41       1.0  T
   4    -88.2536954 -0.100449E-04  0.397E-03    2.42       3.4  T
   5    -88.2536964 -0.947911E-06  0.710E-04    2.42      19.2  T
   6    -88.2536964 -0.682027E-08  0.416E-04    2.42      32.7  T
     SCC iter.                  ...        0 min,  0.020 sec
     gradient                   ...        0 min,  0.039 sec
 * total energy  :   -87.1516742 Eh     change       -0.7209246E-04 Eh
   gradient norm :     0.0063679 Eh/α   predicted    -0.7707183E-04 (   6.91%)
   displ. norm   :     0.2915713 α      lambda       -0.1226945E-03
   maximum displ.:     0.1759166 α      in ANC's #5, #3, #1, ...

........................................................................
.............................. CYCLE   19 ..............................
........................................................................

 iter      E             dE          RMSdq      gap      omega  full diag
   1    -88.2513092 -0.882513E+02  0.674E-02    2.42       0.0  T
   2    -88.2513119 -0.267514E-05  0.403E-02    2.42       1.0  T
   3    -88.2512999  0.119744E-04  0.133E-02    2.42       1.0  T
   4    -88.2513130 -0.130228E-04  0.318E-03    2.42       4.3  T
   5    -88.2513135 -0.519023E-06  0.117E-03    2.42      11.6  T
   6    -88.2513135 -0.150920E-07  0.646E-04    2.42      21.1  T
   7    -88.2513135 -0.827011E-08  0.308E-04    2.42      44.2  T
     SCC iter.                  ...        0 min,  0.023 sec
     gradient                   ...        0 min,  0.039 sec
 * total energy  :   -87.1517554 Eh     change       -0.8119074E-04 Eh
   gradient norm :     0.0048937 Eh/α   predicted    -0.6656358E-04 ( -18.02%)
   displ. norm   :     0.2046210 α      lambda       -0.7924208E-04
   maximum displ.:     0.1161943 α      in ANC's #5, #3, #2, ...

........................................................................
.............................. CYCLE   20 ..............................
........................................................................

 iter      E             dE          RMSdq      gap      omega  full diag
   1    -88.2513110 -0.882513E+02  0.479E-02    2.42       0.0  T
   2    -88.2513117 -0.693622E-06  0.285E-02    2.42       1.0  T
   3    -88.2513104  0.133951E-05  0.473E-03    2.42       2.9  T
   4    -88.2513119 -0.152736E-05  0.156E-03    2.42       8.7  T
   5    -88.2513120 -0.966252E-07  0.804E-04    2.42      16.9  T
   6    -88.2513120 -0.102488E-07  0.373E-04    2.42      36.4  T
     SCC iter.                  ...        0 min,  0.020 sec
     gradient                   ...        0 min,  0.038 sec
 * total energy  :   -87.1518089 Eh     change       -0.5348026E-04 Eh
   gradient norm :     0.0037331 Eh/α   predicted    -0.4128216E-04 ( -22.81%)
   displ. norm   :     0.1931991 α      lambda       -0.7691555E-04
   maximum displ.:     0.1039537 α      in ANC's #5, #3, #2, ...
 * RMSD in coord.:     0.6976023 α      energy gain  -0.3481231E-01 Eh

generating ANC from exact Hessian ...
Using Lindh-Hessian (1995)
 Shifting diagonal of input Hessian by    9.7014629506085425E-003
 Lowest  eigenvalues of input Hessian
    0.000000    0.000000    0.000000    0.000000    0.000000    0.000000
    0.010000    0.010098    0.010226    0.010631    0.010691    0.011165
    0.011990    0.012288    0.012894    0.013309    0.013846    0.014201
 Highest eigenvalues
    1.969687    2.078301    2.107636    2.126376    2.254566    2.342689


........................................................................
.............................. CYCLE   21 ..............................
........................................................................

 iter      E             dE          RMSdq      gap      omega  full diag
   1    -88.2521436 -0.882521E+02  0.465E-02    2.42       0.0  T
   2    -88.2521451 -0.142005E-05  0.279E-02    2.42       1.0  T
   3    -88.2521349  0.101321E-04  0.126E-02    2.42       1.1  T
   4    -88.2521461 -0.111663E-04  0.233E-03    2.42       5.8  T
   5    -88.2521464 -0.278821E-06  0.842E-04    2.42      16.2  T
   6    -88.2521464 -0.542825E-08  0.493E-04    2.42      27.6  T
     SCC iter.                  ...        0 min,  0.020 sec
     gradient                   ...        0 min,  0.038 sec
 * total energy  :   -87.1518621 Eh     change       -0.5327223E-04 Eh
   gradient norm :     0.0052699 Eh/α   predicted     0.0000000E+00 (-100.00%)
   displ. norm   :     0.0397386 α      lambda       -0.3967594E-04
   maximum displ.:     0.0218542 α      in ANC's #2, #22, #30, ...

........................................................................
.............................. CYCLE   22 ..............................
........................................................................

 iter      E             dE          RMSdq      gap      omega  full diag
   1    -88.2526974 -0.882527E+02  0.124E-02    2.41       0.0  T
   2    -88.2526978 -0.443275E-06  0.803E-03    2.42       1.7  T
   3    -88.2526969  0.930898E-06  0.471E-03    2.42       2.9  T
   4    -88.2526981 -0.119083E-05  0.131E-03    2.42      10.4  T
   5    -88.2526982 -0.101511E-06  0.292E-04    2.42      46.6  T
   6    -88.2526982 -0.143221E-08  0.184E-04    2.42      74.1  T
     SCC iter.                  ...        0 min,  0.020 sec
     gradient                   ...        0 min,  0.039 sec
 * total energy  :   -87.1519030 Eh     change       -0.4082673E-04 Eh
   gradient norm :     0.0018260 Eh/α   predicted    -0.2720629E-04 ( -33.36%)
   displ. norm   :     0.1352867 α      lambda       -0.5957075E-04
   maximum displ.:     0.0790699 α      in ANC's #2, #22, #9, ...

........................................................................
.............................. CYCLE   23 ..............................
........................................................................

 iter      E             dE          RMSdq      gap      omega  full diag
   1    -88.2532737 -0.882533E+02  0.342E-02    2.41       0.0  T
   2    -88.2532748 -0.103347E-05  0.204E-02    2.41       1.0  T
   3    -88.2532717  0.306382E-05  0.783E-03    2.41       1.7  T
   4    -88.2532751 -0.337984E-05  0.197E-03    2.41       6.9  T
   5    -88.2532753 -0.211731E-06  0.658E-04    2.41      20.7  T
   6    -88.2532753 -0.275726E-08  0.376E-04    2.41      36.2  T
     SCC iter.                  ...        0 min,  0.021 sec
     gradient                   ...        0 min,  0.039 sec
 * total energy  :   -87.1519533 Eh     change       -0.5034349E-04 Eh
   gradient norm :     0.0045058 Eh/α   predicted    -0.3002869E-04 ( -40.35%)
   displ. norm   :     0.0726899 α      lambda       -0.3315220E-04
   maximum displ.:     0.0452666 α      in ANC's #2, #22, #9, ...

........................................................................
.............................. CYCLE   24 ..............................
........................................................................

 iter      E             dE          RMSdq      gap      omega  full diag
   1    -88.2531188 -0.882531E+02  0.155E-02    2.41       0.0  T
   2    -88.2531190 -0.172495E-06  0.943E-03    2.41       1.4  T
   3    -88.2531175  0.147247E-05  0.489E-03    2.41       2.8  T
   4    -88.2531192 -0.165632E-05  0.763E-04    2.41      17.8  T
   5    -88.2531192 -0.257439E-07  0.318E-04    2.41      42.8  T
   6    -88.2531192 -0.120768E-08  0.192E-04    2.41      70.8  T
     SCC iter.                  ...        0 min,  0.020 sec
     gradient                   ...        0 min,  0.038 sec
 * total energy  :   -87.1519830 Eh     change       -0.2971843E-04 Eh
   gradient norm :     0.0036700 Eh/α   predicted    -0.1666401E-04 ( -43.93%)
   displ. norm   :     0.2229760 α      lambda       -0.9382531E-04
   maximum displ.:     0.1351749 α      in ANC's #2, #9, #5, ...

........................................................................
.............................. CYCLE   25 ..............................
........................................................................

 iter      E             dE          RMSdq      gap      omega  full diag
   1    -88.2524245 -0.882524E+02  0.482E-02    2.41       0.0  T
   2    -88.2524264 -0.184914E-05  0.293E-02    2.41       1.0  T
   3    -88.2524113  0.150589E-04  0.157E-02    2.41       1.0  T
   4    -88.2524283 -0.169832E-04  0.251E-03    2.41       5.4  T
   5    -88.2524286 -0.303938E-06  0.986E-04    2.41      13.8  T
   6    -88.2524286 -0.129153E-07  0.600E-04    2.41      22.7  T
     SCC iter.                  ...        0 min,  0.020 sec
     gradient                   ...        0 min,  0.040 sec
 * total energy  :   -87.1520518 Eh     change       -0.6873042E-04 Eh
   gradient norm :     0.0021986 Eh/α   predicted    -0.4926013E-04 ( -28.33%)
   displ. norm   :     0.1993357 α      lambda       -0.5365224E-04
   maximum displ.:     0.1258506 α      in ANC's #2, #5, #9, ...

........................................................................
.............................. CYCLE   26 ..............................
........................................................................

 iter      E             dE          RMSdq      gap      omega  full diag
   1    -88.2519615 -0.882520E+02  0.417E-02    2.41       0.0  T
   2    -88.2519626 -0.113011E-05  0.251E-02    2.41       1.0  T
   3    -88.2519540  0.859705E-05  0.117E-02    2.41       1.2  T
   4    -88.2519635 -0.953121E-05  0.201E-03    2.41       6.8  T
   5    -88.2519637 -0.198244E-06  0.796E-04    2.41      17.1  T
   6    -88.2519638 -0.736787E-08  0.472E-04    2.41      28.8  T
     SCC iter.                  ...        0 min,  0.022 sec
     gradient                   ...        0 min,  0.039 sec
 * total energy  :   -87.1520931 Eh     change       -0.4134452E-04 Eh
   gradient norm :     0.0035898 Eh/α   predicted    -0.2789249E-04 ( -32.54%)
   displ. norm   :     0.1738661 α      lambda       -0.5124590E-04
   maximum displ.:     0.1127980 α      in ANC's #2, #5, #9, ...

........................................................................
.............................. CYCLE   27 ..............................
........................................................................

 iter      E             dE          RMSdq      gap      omega  full diag
   1    -88.2521268 -0.882521E+02  0.361E-02    2.41       0.0  T
   2    -88.2521273 -0.438616E-06  0.215E-02    2.40       1.0  T
   3    -88.2521258  0.150281E-05  0.519E-03    2.41       2.6  T
   4    -88.2521274 -0.168675E-05  0.124E-03    2.41      10.9  T
   5    -88.2521275 -0.606949E-07  0.605E-04    2.41      22.5  T
   6    -88.2521275 -0.487097E-08  0.313E-04    2.41      43.4  T
     SCC iter.                  ...        0 min,  0.020 sec
     gradient                   ...        0 min,  0.038 sec
 * total energy  :   -87.1521383 Eh     change       -0.4521555E-04 Eh
   gradient norm :     0.0038030 Eh/α   predicted    -0.2640195E-04 ( -41.61%)
   displ. norm   :     0.2653800 α      lambda       -0.9189131E-04
   maximum displ.:     0.1715060 α      in ANC's #2, #5, #9, ...

........................................................................
.............................. CYCLE   28 ..............................
........................................................................

 iter      E             dE          RMSdq      gap      omega  full diag
   1    -88.2524967 -0.882525E+02  0.558E-02    2.40       0.0  T
   2    -88.2524973 -0.643211E-06  0.333E-02    2.40       1.0  T
   3    -88.2524962  0.106426E-05  0.509E-03    2.40       2.7  T
   4    -88.2524976 -0.135744E-05  0.132E-03    2.40      10.3  T
   5    -88.2524976 -0.213950E-07  0.848E-04    2.40      16.0  T
   6    -88.2524976 -0.147890E-07  0.387E-04    2.40      35.2  T
     SCC iter.                  ...        0 min,  0.020 sec
     gradient                   ...        0 min,  0.047 sec
 * total energy  :   -87.1522179 Eh     change       -0.7955658E-04 Eh
   gradient norm :     0.0034162 Eh/α   predicted    -0.4918203E-04 ( -38.18%)
   displ. norm   :     0.4088082 α      lambda       -0.1274292E-03
   maximum displ.:     0.2616897 α      in ANC's #2, #5, #6, ...

........................................................................
.............................. CYCLE   29 ..............................
........................................................................

 iter      E             dE          RMSdq      gap      omega  full diag
   1    -88.2517647 -0.882518E+02  0.866E-02    2.40       0.0  T
   2    -88.2517661 -0.136995E-05  0.517E-02    2.40       1.0  T
   3    -88.2517637  0.244771E-05  0.802E-03    2.40       1.7  T
   4    -88.2517668 -0.313414E-05  0.202E-03    2.40       6.7  T
   5    -88.2517668 -0.437531E-07  0.129E-03    2.40      10.6  T
   6    -88.2517669 -0.298997E-07  0.538E-04    2.40      25.3  T
   7    -88.2517669 -0.613609E-08  0.209E-04    2.40      65.2  T
     SCC iter.                  ...        0 min,  0.023 sec
     gradient                   ...        0 min,  0.039 sec
 * total energy  :   -87.1523232 Eh     change       -0.1053291E-03 Eh
   gradient norm :     0.0045821 Eh/α   predicted    -0.7436766E-04 ( -29.39%)
   displ. norm   :     0.4289929 α      lambda       -0.1307338E-03
   maximum displ.:     0.2769952 α      in ANC's #2, #5, #6, ...

........................................................................
.............................. CYCLE   30 ..............................
........................................................................

 iter      E             dE          RMSdq      gap      omega  full diag
   1    -88.2512559 -0.882513E+02  0.911E-02    2.40       0.0  T
   2    -88.2512570 -0.112511E-05  0.544E-02    2.40       1.0  T
   3    -88.2512518  0.528629E-05  0.101E-02    2.40       1.3  T
   4    -88.2512579 -0.611175E-05  0.221E-03    2.40       6.2  T
   5    -88.2512580 -0.891844E-07  0.143E-03    2.40       9.5  T
   6    -88.2512580 -0.429065E-07  0.418E-04    2.40      32.6  T
   7    -88.2512580 -0.271760E-08  0.189E-04    2.40      72.1  T
     SCC iter.                  ...        0 min,  0.023 sec
     gradient                   ...        0 min,  0.038 sec
 * total energy  :   -87.1524253 Eh     change       -0.1020506E-03 Eh
   gradient norm :     0.0056383 Eh/α   predicted    -0.7740542E-04 ( -24.15%)
   displ. norm   :     0.3957029 α      lambda       -0.1300193E-03
   maximum displ.:     0.2584813 α      in ANC's #2, #5, #6, ...

........................................................................
.............................. CYCLE   31 ..............................
........................................................................

 iter      E             dE          RMSdq      gap      omega  full diag
   1    -88.2513885 -0.882514E+02  0.839E-02    2.39       0.0  T
   2    -88.2513894 -0.926539E-06  0.501E-02    2.39       1.0  T
   3    -88.2513838  0.562973E-05  0.101E-02    2.39       1.3  T
   4    -88.2513902 -0.638037E-05  0.207E-03    2.39       6.6  T
   5    -88.2513903 -0.937631E-07  0.129E-03    2.39      10.6  T
   6    -88.2513903 -0.267018E-07  0.388E-04    2.39      35.0  T
   7    -88.2513903 -0.303253E-08  0.169E-04    2.39      80.7  T
     SCC iter.                  ...        0 min,  0.041 sec
     gradient                   ...        0 min,  0.038 sec
 * total energy  :   -87.1525286 Eh     change       -0.1033538E-03 Eh
   gradient norm :     0.0055613 Eh/α   predicted    -0.7519015E-04 ( -27.25%)
   displ. norm   :     0.4367774 α      lambda       -0.1606005E-03
   maximum displ.:     0.2877474 α      in ANC's #2, #5, #6, ...

........................................................................
.............................. CYCLE   32 ..............................
........................................................................

 iter      E             dE          RMSdq      gap      omega  full diag
   1    -88.2513867 -0.882514E+02  0.935E-02    2.38       0.0  T
   2    -88.2513878 -0.116406E-05  0.557E-02    2.39       1.0  T
   3    -88.2513838  0.405022E-05  0.950E-03    2.39       1.4  T
   4    -88.2513887 -0.489548E-05  0.206E-03    2.39       6.6  T
   5    -88.2513887 -0.324634E-07  0.133E-03    2.39      10.3  T
   6    -88.2513887 -0.297976E-07  0.408E-04    2.39      33.3  T
   7    -88.2513887 -0.391718E-08  0.186E-04    2.39      73.3  T
     SCC iter.                  ...        0 min,  0.044 sec
     gradient                   ...        0 min,  0.038 sec
 * total energy  :   -87.1526549 Eh     change       -0.1263228E-03 Eh
   gradient norm :     0.0044055 Eh/α   predicted    -0.9561991E-04 ( -24.31%)
   displ. norm   :     0.3690797 α      lambda       -0.1689051E-03
   maximum displ.:     0.2436039 α      in ANC's #2, #5, #6, ...

........................................................................
.............................. CYCLE   33 ..............................
........................................................................

 iter      E             dE          RMSdq      gap      omega  full diag
   1    -88.2547241 -0.882547E+02  0.847E-02    2.38       0.0  T
   2    -88.2547264 -0.222520E-05  0.506E-02    2.38       1.0  T
   3    -88.2547140  0.124077E-04  0.134E-02    2.38       1.0  T
   4    -88.2547273 -0.133608E-04  0.315E-03    2.38       4.3  T
   5    -88.2547278 -0.490048E-06  0.126E-03    2.38      10.8  T
   6    -88.2547278 -0.512873E-08  0.540E-04    2.38      25.2  T
   7    -88.2547278 -0.434898E-08  0.226E-04    2.38      60.1  T
     SCC iter.                  ...        0 min,  0.038 sec
     gradient                   ...        0 min,  0.038 sec
 * total energy  :   -87.1527474 Eh     change       -0.9243209E-04 Eh
   gradient norm :     0.0062076 Eh/α   predicted    -0.9595742E-04 (   3.81%)
   displ. norm   :     0.6991084 α      lambda       -0.2344785E-03
   maximum displ.:     0.4582159 α      in ANC's #2, #5, #6, ...

........................................................................
.............................. CYCLE   34 ..............................
........................................................................

 iter      E             dE          RMSdq      gap      omega  full diag
   1    -88.2467730 -0.882468E+02  0.157E-01    2.37       0.0  T
   2    -88.2467846 -0.116455E-04  0.936E-02    2.37       1.0  T
   3    -88.2466860  0.986201E-04  0.385E-02    2.38       1.0  T
   4    -88.2467941 -0.108107E-03  0.643E-03    2.37       2.1  T
   5    -88.2467959 -0.181451E-05  0.273E-03    2.37       5.0  T
   6    -88.2467960 -0.794755E-07  0.164E-03    2.37       8.3  T
   7    -88.2467961 -0.553583E-07  0.651E-04    2.37      20.9  T
   8    -88.2467961 -0.120679E-07  0.243E-04    2.37      56.0  T
     SCC iter.                  ...        0 min,  0.026 sec
     gradient                   ...        0 min,  0.051 sec
 * total energy  :   -87.1527592 Eh     change       -0.1183148E-04 Eh
   gradient norm :     0.0119319 Eh/α   predicted    -0.1745721E-03 (1375.49%)
   displ. norm   :     0.2276497 α      lambda       -0.2514359E-03
   maximum displ.:     0.1408469 α      in ANC's #2, #5, #6, ...

........................................................................
.............................. CYCLE   35 ..............................
........................................................................

 iter      E             dE          RMSdq      gap      omega  full diag
   1    -88.2524137 -0.882524E+02  0.502E-02    2.38       0.0  T
   2    -88.2524166 -0.286467E-05  0.304E-02    2.38       1.0  T
   3    -88.2523992  0.173075E-04  0.170E-02    2.38       1.0  T
   4    -88.2524189 -0.196869E-04  0.313E-03    2.38       4.4  T
   5    -88.2524194 -0.454147E-06  0.115E-03    2.38      11.9  T
   6    -88.2524194 -0.218882E-07  0.705E-04    2.38      19.3  T
   7    -88.2524194 -0.934885E-08  0.318E-04    2.38      42.8  T
     SCC iter.                  ...        0 min,  0.023 sec
     gradient                   ...        0 min,  0.054 sec
 * total energy  :   -87.1528910 Eh     change       -0.1318216E-03 Eh
   gradient norm :     0.0037993 Eh/α   predicted    -0.1322361E-03 (   0.31%)
   displ. norm   :     0.1959395 α      lambda       -0.8454354E-04
   maximum displ.:     0.1313344 α      in ANC's #2, #5, #6, ...

........................................................................
.............................. CYCLE   36 ..............................
........................................................................

 iter      E             dE          RMSdq      gap      omega  full diag
   1    -88.2533574 -0.882534E+02  0.483E-02    2.38       0.0  T
   2    -88.2533579 -0.545213E-06  0.288E-02    2.38       1.0  T
   3    -88.2533566  0.130554E-05  0.518E-03    2.38       2.6  T
   4    -88.2533582 -0.158766E-05  0.116E-03    2.38      11.7  T
   5    -88.2533582 -0.128697E-07  0.719E-04    2.38      18.9  T
   6    -88.2533582 -0.449447E-08  0.337E-04    2.38      40.4  T
     SCC iter.                  ...        0 min,  0.020 sec
     gradient                   ...        0 min,  0.060 sec
 * total energy  :   -87.1529619 Eh     change       -0.7089734E-04 Eh
   gradient norm :     0.0033885 Eh/α   predicted    -0.4390760E-04 ( -38.07%)
   displ. norm   :     0.5423663 α      lambda       -0.2508944E-03
   maximum displ.:     0.3483209 α      in ANC's #2, #5, #6, ...

........................................................................
.............................. CYCLE   37 ..............................
........................................................................

 iter      E             dE          RMSdq      gap      omega  full diag
   1    -88.2536037 -0.882536E+02  0.136E-01    2.40       0.0  T
   2    -88.2536096 -0.598002E-05  0.810E-02    2.40       1.0  T
   3    -88.2535658  0.438043E-04  0.271E-02    2.40       1.0  T
   4    -88.2536141 -0.482709E-04  0.499E-03    2.40       2.7  T
   5    -88.2536151 -0.104370E-05  0.246E-03    2.40       5.5  T
   6    -88.2536152 -0.954125E-07  0.114E-03    2.40      11.9  T
   7    -88.2536153 -0.200021E-07  0.335E-04    2.40      40.7  T
   8    -88.2536153 -0.303871E-08  0.126E-04    2.40     107.9  T
     SCC iter.                  ...        0 min,  0.026 sec
     gradient                   ...        0 min,  0.066 sec
 * total energy  :   -87.1531343 Eh     change       -0.1724261E-03 Eh
   gradient norm :     0.0045000 Eh/α   predicted    -0.1623580E-03 (  -5.84%)
   displ. norm   :     0.5680031 α      lambda       -0.1427656E-03
   maximum displ.:     0.3797838 α      in ANC's #2, #5, #6, ...

........................................................................
.............................. CYCLE   38 ..............................
........................................................................

 iter      E             dE          RMSdq      gap      omega  full diag
   1    -88.2486676 -0.882487E+02  0.133E-01    2.40       0.0  T
   2    -88.2486739 -0.636205E-05  0.791E-02    2.40       1.0  T
   3    -88.2486390  0.349658E-04  0.238E-02    2.40       1.0  T
   4    -88.2486776 -0.385983E-04  0.485E-03    2.40       2.8  T
   5    -88.2486785 -0.915145E-06  0.250E-03    2.40       5.5  T
   6    -88.2486786 -0.128512E-06  0.122E-03    2.40      11.2  T
   7    -88.2486786 -0.195945E-07  0.361E-04    2.40      37.7  T
   8    -88.2486786 -0.304240E-08  0.132E-04    2.40     102.9  T
     SCC iter.                  ...        0 min,  0.026 sec
     gradient                   ...        0 min,  0.065 sec
 * total energy  :   -87.1531739 Eh     change       -0.3958508E-04 Eh
   gradient norm :     0.0100050 Eh/α   predicted    -0.9441841E-04 ( 138.52%)
   displ. norm   :     0.0809720 α      lambda       -0.1643177E-03
   maximum displ.:     0.0436234 α      in ANC's #4, #1, #3, ...

........................................................................
.............................. CYCLE   39 ..............................
........................................................................

 iter      E             dE          RMSdq      gap      omega  full diag
   1    -88.2519878 -0.882520E+02  0.193E-02    2.40       0.0  T
   2    -88.2519884 -0.601260E-06  0.119E-02    2.40       1.1  T
   3    -88.2519869  0.155697E-05  0.542E-03    2.40       2.5  T
   4    -88.2519887 -0.179792E-05  0.140E-03    2.40       9.8  T
   5    -88.2519888 -0.675915E-07  0.726E-04    2.40      18.7  T
   6    -88.2519888 -0.123594E-07  0.424E-04    2.40      32.1  T
     SCC iter.                  ...        0 min,  0.020 sec
     gradient                   ...        0 min,  0.055 sec
 * total energy  :   -87.1532709 Eh     change       -0.9697236E-04 Eh
   gradient norm :     0.0058221 Eh/α   predicted    -0.8269637E-04 ( -14.72%)
   displ. norm   :     0.2477344 α      lambda       -0.1107687E-03
   maximum displ.:     0.1551973 α      in ANC's #2, #5, #10, ...

........................................................................
.............................. CYCLE   40 ..............................
........................................................................

 iter      E             dE          RMSdq      gap      omega  full diag
   1    -88.2536235 -0.882536E+02  0.578E-02    2.40       0.0  T
   2    -88.2536266 -0.313570E-05  0.350E-02    2.40       1.0  T
   3    -88.2536132  0.133797E-04  0.154E-02    2.40       1.0  T
   4    -88.2536283 -0.150800E-04  0.310E-03    2.40       4.4  T
   5    -88.2536287 -0.443019E-06  0.129E-03    2.40      10.5  T
   6    -88.2536288 -0.354291E-07  0.718E-04    2.40      18.9  T
   7    -88.2536288 -0.105454E-07  0.333E-04    2.40      40.9  T
     SCC iter.                  ...        0 min,  0.023 sec
     gradient                   ...        0 min,  0.053 sec
 * total energy  :   -87.1533405 Eh     change       -0.6957351E-04 Eh
   gradient norm :     0.0035719 Eh/α   predicted    -0.5878264E-04 ( -15.51%)
   displ. norm   :     0.4687538 α      lambda       -0.1491205E-03
   maximum displ.:     0.3027780 α      in ANC's #2, #5, #6, ...

........................................................................
.............................. CYCLE   41 ..............................
........................................................................

 iter      E             dE          RMSdq      gap      omega  full diag
   1    -88.2527248 -0.882527E+02  0.107E-01    2.41       0.0  T
   2    -88.2527326 -0.784623E-05  0.635E-02    2.40       1.0  T
   3    -88.2527012  0.314441E-04  0.233E-02    2.40       1.0  T
   4    -88.2527359 -0.347536E-04  0.519E-03    2.40       2.6  T
   5    -88.2527373 -0.133809E-05  0.221E-03    2.40       6.2  T
   6    -88.2527374 -0.109790E-06  0.118E-03    2.40      11.5  T
   7    -88.2527374 -0.204241E-07  0.470E-04    2.40      28.9  T
   8    -88.2527374 -0.390220E-08  0.164E-04    2.40      83.1  T
     SCC iter.                  ...        0 min,  0.026 sec
     gradient                   ...        0 min,  0.038 sec
 * total energy  :   -87.1534310 Eh     change       -0.9051692E-04 Eh
   gradient norm :     0.0076399 Eh/α   predicted    -0.9093630E-04 (   0.46%)
   displ. norm   :     0.2798319 α      lambda       -0.1307459E-03
   maximum displ.:     0.1768283 α      in ANC's #2, #5, #6, ...

........................................................................
.............................. CYCLE   42 ..............................
........................................................................

 iter      E             dE          RMSdq      gap      omega  full diag
   1    -88.2526558 -0.882527E+02  0.610E-02    2.40       0.0  T
   2    -88.2526602 -0.434162E-05  0.374E-02    2.40       1.0  T
   3    -88.2526336  0.265724E-04  0.205E-02    2.40       1.0  T
   4    -88.2526634 -0.297996E-04  0.401E-03    2.40       3.4  T
   5    -88.2526643 -0.836803E-06  0.129E-03    2.40      10.5  T
   6    -88.2526643 -0.281482E-07  0.740E-04    2.40      18.4  T
   7    -88.2526643 -0.983034E-08  0.344E-04    2.40      39.6  T
     SCC iter.                  ...        0 min,  0.023 sec
     gradient                   ...        0 min,  0.039 sec
 * total energy  :   -87.1534644 Eh     change       -0.3342769E-04 Eh
   gradient norm :     0.0069823 Eh/α   predicted    -0.7049457E-04 ( 110.89%)
   displ. norm   :     0.1288014 α      lambda       -0.1132961E-03
   maximum displ.:     0.0759007 α      in ANC's #2, #5, #30, ...
 * RMSD in coord.:     0.7597064 α      energy gain  -0.1655548E-02 Eh

generating ANC from exact Hessian ...
Using Lindh-Hessian (1995)
 Shifting diagonal of input Hessian by    9.7027117326044503E-003
 Lowest  eigenvalues of input Hessian
    0.000000    0.000000    0.000000    0.000000    0.000000    0.000000
    0.010000    0.010082    0.010250    0.010621    0.010762    0.011283
    0.012090    0.012107    0.012927    0.013130    0.013734    0.014224
 Highest eigenvalues
    1.972638    2.076148    2.104016    2.129081    2.258161    2.341869


........................................................................
.............................. CYCLE   43 ..............................
........................................................................

 iter      E             dE          RMSdq      gap      omega  full diag
   1    -88.2533715 -0.882534E+02  0.329E-02    2.40       0.0  T
   2    -88.2533724 -0.865819E-06  0.197E-02    2.40       1.0  T
   3    -88.2533692  0.318005E-05  0.838E-03    2.40       1.6  T
   4    -88.2533729 -0.367428E-05  0.165E-03    2.40       8.2  T
   5    -88.2533730 -0.109456E-06  0.866E-04    2.40      15.7  T
   6    -88.2533730 -0.182699E-07  0.404E-04    2.40      33.7  T
     SCC iter.                  ...        0 min,  0.020 sec
     gradient                   ...        0 min,  0.066 sec
 * total energy  :   -87.1535343 Eh     change       -0.6990503E-04 Eh
   gradient norm :     0.0042675 Eh/α   predicted     0.0000000E+00 (-100.00%)
   displ. norm   :     0.0350342 α      lambda       -0.3830757E-04
   maximum displ.:     0.0143853 α      in ANC's #3, #17, #5, ...

........................................................................
.............................. CYCLE   44 ..............................
........................................................................

 iter      E             dE          RMSdq      gap      omega  full diag
   1    -88.2537610 -0.882538E+02  0.138E-02    2.40       0.0  T
   2    -88.2537613 -0.243665E-06  0.844E-03    2.40       1.6  T
   3    -88.2537605  0.822635E-06  0.371E-03    2.40       3.7  T
   4    -88.2537614 -0.904068E-06  0.939E-04    2.40      14.5  T
   5    -88.2537614 -0.495827E-07  0.271E-04    2.40      50.1  T
     SCC iter.                  ...        0 min,  0.016 sec
     gradient                   ...        0 min,  0.038 sec
 * total energy  :   -87.1535688 Eh     change       -0.3446242E-04 Eh
   gradient norm :     0.0021144 Eh/α   predicted    -0.2219287E-04 ( -35.60%)
   displ. norm   :     0.0896826 α      lambda       -0.5875722E-04
   maximum displ.:     0.0391631 α      in ANC's #3, #17, #5, ...

........................................................................
.............................. CYCLE   45 ..............................
........................................................................

 iter      E             dE          RMSdq      gap      omega  full diag
   1    -88.2540730 -0.882541E+02  0.291E-02    2.41       0.0  T
   2    -88.2540735 -0.561365E-06  0.173E-02    2.41       1.0  T
   3    -88.2540728  0.763412E-06  0.436E-03    2.41       3.1  T
   4    -88.2540736 -0.897241E-06  0.119E-03    2.41      11.4  T
   5    -88.2540737 -0.486831E-07  0.516E-04    2.41      26.4  T
   6    -88.2540737 -0.213620E-08  0.288E-04    2.41      47.2  T
     SCC iter.                  ...        0 min,  0.020 sec
     gradient                   ...        0 min,  0.039 sec
 * total energy  :   -87.1536079 Eh     change       -0.3916321E-04 Eh
   gradient norm :     0.0017793 Eh/α   predicted    -0.2961528E-04 ( -24.38%)
   displ. norm   :     0.1377108 α      lambda       -0.3146476E-04
   maximum displ.:     0.0604429 α      in ANC's #3, #5, #17, ...

........................................................................
.............................. CYCLE   46 ..............................
........................................................................

 iter      E             dE          RMSdq      gap      omega  full diag
   1    -88.2539351 -0.882539E+02  0.415E-02    2.41       0.0  T
   2    -88.2539355 -0.421395E-06  0.245E-02    2.41       1.0  T
   3    -88.2539332  0.235321E-05  0.631E-03    2.41       2.2  T
   4    -88.2539358 -0.261662E-05  0.138E-03    2.41       9.9  T
   5    -88.2539358 -0.688916E-07  0.700E-04    2.41      19.5  T
   6    -88.2539359 -0.330900E-08  0.360E-04    2.41      37.8  T
     SCC iter.                  ...        0 min,  0.035 sec
     gradient                   ...        0 min,  0.039 sec
 * total energy  :   -87.1536403 Eh     change       -0.3233774E-04 Eh
   gradient norm :     0.0034131 Eh/α   predicted    -0.1617367E-04 ( -49.99%)
   displ. norm   :     0.1063680 α      lambda       -0.3382392E-04
   maximum displ.:     0.0448306 α      in ANC's #3, #5, #4, ...

........................................................................
.............................. CYCLE   47 ..............................
........................................................................

 iter      E             dE          RMSdq      gap      omega  full diag
   1    -88.2538548 -0.882539E+02  0.314E-02    2.41       0.0  T
   2    -88.2538550 -0.141683E-06  0.185E-02    2.41       1.0  T
   3    -88.2538547  0.281021E-06  0.254E-03    2.41       5.3  T
   4    -88.2538550 -0.366747E-06  0.803E-04    2.41      16.9  T
   5    -88.2538551 -0.963345E-08  0.481E-04    2.41      28.3  T
     SCC iter.                  ...        0 min,  0.038 sec
     gradient                   ...        0 min,  0.038 sec
 * total energy  :   -87.1536689 Eh     change       -0.2858684E-04 Eh
   gradient norm :     0.0030957 Eh/α   predicted    -0.1710387E-04 ( -40.17%)
   displ. norm   :     0.2421218 α      lambda       -0.6653515E-04
   maximum displ.:     0.0987404 α      in ANC's #3, #5, #6, ...

........................................................................
.............................. CYCLE   48 ..............................
........................................................................

 iter      E             dE          RMSdq      gap      omega  full diag
   1    -88.2533015 -0.882533E+02  0.693E-02    2.41       0.0  T
   2    -88.2533023 -0.788421E-06  0.410E-02    2.41       1.0  T
   3    -88.2533000  0.227437E-05  0.645E-03    2.41       2.1  T
   4    -88.2533027 -0.270941E-05  0.192E-03    2.41       7.1  T
   5    -88.2533028 -0.971285E-07  0.106E-03    2.41      12.8  T
   6    -88.2533028 -0.104190E-07  0.465E-04    2.41      29.3  T
   7    -88.2533028 -0.661690E-08  0.143E-04    2.41      95.3  T
     SCC iter.                  ...        0 min,  0.044 sec
     gradient                   ...        0 min,  0.039 sec
 * total energy  :   -87.1537119 Eh     change       -0.4301751E-04 Eh
   gradient norm :     0.0031367 Eh/α   predicted    -0.3530230E-04 ( -17.94%)
   displ. norm   :     0.1265633 α      lambda       -0.2887665E-04
   maximum displ.:     0.0534723 α      in ANC's #6, #3, #5, ...

........................................................................
.............................. CYCLE   49 ..............................
........................................................................

 iter      E             dE          RMSdq      gap      omega  full diag
   1    -88.2534824 -0.882535E+02  0.338E-02    2.41       0.0  T
   2    -88.2534827 -0.344671E-06  0.201E-02    2.41       1.0  T
   3    -88.2534821  0.627421E-06  0.335E-03    2.41       4.1  T
   4    -88.2534828 -0.705156E-06  0.117E-03    2.41      11.6  T
   5    -88.2534828 -0.621327E-07  0.540E-04    2.41      25.2  T
   6    -88.2534828 -0.228879E-08  0.269E-04    2.41      50.5  T
     SCC iter.                  ...        0 min,  0.047 sec
     gradient                   ...        0 min,  0.039 sec
 * total energy  :   -87.1537352 Eh     change       -0.2334462E-04 Eh
   gradient norm :     0.0022449 Eh/α   predicted    -0.1467100E-04 ( -37.15%)
   displ. norm   :     0.1771400 α      lambda       -0.4719735E-04
   maximum displ.:     0.0848429 α      in ANC's #6, #2, #5, ...

........................................................................
.............................. CYCLE   50 ..............................
........................................................................

 iter      E             dE          RMSdq      gap      omega  full diag
   1    -88.2540406 -0.882540E+02  0.442E-02    2.41       0.0  T
   2    -88.2540413 -0.645469E-06  0.262E-02    2.41       1.0  T
   3    -88.2540389  0.233465E-05  0.612E-03    2.41       2.2  T
   4    -88.2540415 -0.256847E-05  0.159E-03    2.41       8.6  T
   5    -88.2540416 -0.110453E-06  0.720E-04    2.41      18.9  T
   6    -88.2540416 -0.442640E-08  0.379E-04    2.41      35.9  T
     SCC iter.                  ...        0 min,  0.020 sec
     gradient                   ...        0 min,  0.063 sec
 * total energy  :   -87.1537718 Eh     change       -0.3652202E-04 Eh
   gradient norm :     0.0021713 Eh/α   predicted    -0.2434237E-04 ( -33.35%)
   displ. norm   :     0.2330426 α      lambda       -0.4532474E-04
   maximum displ.:     0.1144502 α      in ANC's #6, #2, #5, ...

........................................................................
.............................. CYCLE   51 ..............................
........................................................................

 iter      E             dE          RMSdq      gap      omega  full diag
   1    -88.2536975 -0.882537E+02  0.587E-02    2.41       0.0  T
   2    -88.2536981 -0.563692E-06  0.347E-02    2.41       1.0  T
   3    -88.2536975  0.550060E-06  0.431E-03    2.41       3.2  T
   4    -88.2536984 -0.833905E-06  0.128E-03    2.41      10.6  T
   5    -88.2536984  0.995499E-09  0.833E-04    2.41      16.3  T
   6    -88.2536984 -0.212593E-07  0.354E-04    2.41      38.4  T
     SCC iter.                  ...        0 min,  0.020 sec
     gradient                   ...        0 min,  0.060 sec
 * total energy  :   -87.1538085 Eh     change       -0.3673429E-04 Eh
   gradient norm :     0.0028155 Eh/α   predicted    -0.2390313E-04 ( -34.93%)
   displ. norm   :     0.2397135 α      lambda       -0.4833678E-04
   maximum displ.:     0.1241644 α      in ANC's #6, #2, #5, ...

........................................................................
.............................. CYCLE   52 ..............................
........................................................................

 iter      E             dE          RMSdq      gap      omega  full diag
   1    -88.2536546 -0.882537E+02  0.592E-02    2.41       0.0  T
   2    -88.2536553 -0.660311E-06  0.350E-02    2.41       1.0  T
   3    -88.2536540  0.123312E-05  0.575E-03    2.41       2.4  T
   4    -88.2536556 -0.159949E-05  0.123E-03    2.41      11.0  T
   5    -88.2536556 -0.621304E-08  0.741E-04    2.41      18.4  T
   6    -88.2536556 -0.811842E-08  0.263E-04    2.41      51.8  T
     SCC iter.                  ...        0 min,  0.020 sec
     gradient                   ...        0 min,  0.054 sec
 * total energy  :   -87.1538477 Eh     change       -0.3921162E-04 Eh
   gradient norm :     0.0028022 Eh/α   predicted    -0.2555903E-04 ( -34.82%)
   displ. norm   :     0.2913149 α      lambda       -0.5153759E-04
   maximum displ.:     0.1508871 α      in ANC's #6, #2, #5, ...

........................................................................
.............................. CYCLE   53 ..............................
........................................................................

 iter      E             dE          RMSdq      gap      omega  full diag
   1    -88.2528180 -0.882528E+02  0.733E-02    2.41       0.0  T
   2    -88.2528190 -0.103636E-05  0.433E-02    2.41       1.0  T
   3    -88.2528132  0.587540E-05  0.102E-02    2.41       1.3  T
   4    -88.2528197 -0.656664E-05  0.211E-03    2.41       6.5  T
   5    -88.2528199 -0.162166E-06  0.116E-03    2.41      11.7  T
   6    -88.2528199 -0.202053E-07  0.457E-04    2.41      29.8  T
   7    -88.2528199 -0.378296E-08  0.157E-04    2.41      86.5  T
     SCC iter.                  ...        0 min,  0.023 sec
     gradient                   ...        0 min,  0.051 sec
 * total energy  :   -87.1538882 Eh     change       -0.4052017E-04 Eh
   gradient norm :     0.0026449 Eh/α   predicted    -0.2795685E-04 ( -31.01%)
   displ. norm   :     0.3180520 α      lambda       -0.6218938E-04
   maximum displ.:     0.1739255 α      in ANC's #6, #2, #5, ...

........................................................................
.............................. CYCLE   54 ..............................
........................................................................

 iter      E             dE          RMSdq      gap      omega  full diag
   1    -88.2532549 -0.882533E+02  0.789E-02    2.42       0.0  T
   2    -88.2532564 -0.153493E-05  0.466E-02    2.42       1.0  T
   3    -88.2532527  0.372008E-05  0.973E-03    2.42       1.4  T
   4    -88.2532572 -0.454594E-05  0.166E-03    2.42       8.2  T
   5    -88.2532573 -0.251844E-07  0.102E-03    2.42      13.3  T
   6    -88.2532573 -0.101607E-07  0.432E-04    2.42      31.5  T
   7    -88.2532573 -0.430624E-08  0.175E-04    2.42      77.8  T
     SCC iter.                  ...        0 min,  0.023 sec
     gradient                   ...        0 min,  0.038 sec
 * total energy  :   -87.1539287 Eh     change       -0.4045736E-04 Eh
   gradient norm :     0.0025543 Eh/α   predicted    -0.3424040E-04 ( -15.37%)
   displ. norm   :     0.2473328 α      lambda       -0.3601866E-04
   maximum displ.:     0.1279065 α      in ANC's #6, #2, #5, ...

........................................................................
.............................. CYCLE   55 ..............................
........................................................................

 iter      E             dE          RMSdq      gap      omega  full diag
   1    -88.2523277 -0.882523E+02  0.637E-02    2.42       0.0  T
   2    -88.2523286 -0.937585E-06  0.376E-02    2.42       1.0  T
   3    -88.2523186  0.100009E-04  0.126E-02    2.42       1.1  T
   4    -88.2523296 -0.109649E-04  0.209E-03    2.42       6.5  T
   5    -88.2523298 -0.183028E-06  0.997E-04    2.42      13.7  T
   6    -88.2523298 -0.940321E-08  0.460E-04    2.42      29.6  T
     SCC iter.                  ...        0 min,  0.020 sec
     gradient                   ...        0 min,  0.039 sec
 * total energy  :   -87.1539518 Eh     change       -0.2309065E-04 Eh
   gradient norm :     0.0038973 Eh/α   predicted    -0.1911186E-04 ( -17.23%)
   displ. norm   :     0.1315622 α      lambda       -0.4244666E-04
   maximum displ.:     0.0795382 α      in ANC's #2, #6, #5, ...

........................................................................
.............................. CYCLE   56 ..............................
........................................................................

 iter      E             dE          RMSdq      gap      omega  full diag
   1    -88.2545957 -0.882546E+02  0.334E-02    2.43       0.0  T
   2    -88.2545962 -0.539030E-06  0.198E-02    2.43       1.0  T
   3    -88.2545947  0.149063E-05  0.547E-03    2.43       2.5  T
   4    -88.2545964 -0.167718E-05  0.123E-03    2.43      11.0  T
   5    -88.2545964 -0.644938E-07  0.554E-04    2.43      24.6  T
   6    -88.2545964 -0.362142E-08  0.301E-04    2.43      45.3  T
     SCC iter.                  ...        0 min,  0.041 sec
     gradient                   ...        0 min,  0.039 sec
 * total energy  :   -87.1539762 Eh     change       -0.2441188E-04 Eh
   gradient norm :     0.0025489 Eh/α   predicted    -0.2159083E-04 ( -11.56%)
   displ. norm   :     0.1573633 α      lambda       -0.2236416E-04
   maximum displ.:     0.0929117 α      in ANC's #2, #6, #5, ...

........................................................................
.............................. CYCLE   57 ..............................
........................................................................

 iter      E             dE          RMSdq      gap      omega  full diag
   1    -88.2539020 -0.882539E+02  0.394E-02    2.43       0.0  T
   2    -88.2539024 -0.478973E-06  0.233E-02    2.43       1.0  T
   3    -88.2539014  0.107431E-05  0.533E-03    2.43       2.6  T
[...]
     DOI: 10.1021/acsomega.9b02011
   
   for metadynamics refer to:
   * S. Grimme, J. Chem. Theory Comput., 2019, 155, 2847-2862
     DOI: 10.1021/acs.jctc.9b00143
   
   for SPH calculations refer to:
   * S. Spicher and S. Grimme, J. Chem. Theory Comput., 2021, 17, 1701-1714
     DOI: 10.1021/acs.jctc.0c01306
   
   for ONIOM refer to:
   * C. Plett, A. Katbashev, S. Ehlert, S. Grimme, M. Bursch,
     Phys. Chem. Chem. Phys., 2023, 25, 17860-17868. DOI: 10.1039/D3CP02178E
   
   for DIPRO refer to:
   * J. Kohn, N. Gildemeister, S. Grimme, D. Fazzi, A. Hansen,
     J. Chem. Phys., 2023, just accepted.
   
   for PTB refer to:
   * S. Grimme, M. Mueller, A. Hansen, J. Chem. Phys., 2023, 158, 124111.
     DOI: 10.1063/5.0137838
   
   with help from (in alphabetical order)
   P. Atkinson, C. Bannwarth, F. Bohle, G. Brandenburg, E. Caldeweyher
   M. Checinski, S. Dohm, S. Ehlert, S. Ehrlich, I. Gerasimov, C. Hölzer
   A. Katbashev, J. Kohn, J. Koopman, C. Lavigne, S. Lehtola, F. März, M. Müller,
   F. Musil, H. Neugebauer, J. Pisarek, C. Plett, P. Pracht, F. Pultar,
   J. Seibert, P. Shushkov, S. Spicher, M. Stahn, M. Steiner, T. Strunk,
   J. Stückrath, T. Rose, and J. Unsleber
   
 * started run on 2025/05/15 at 16:08:20.653     
   ID    Z sym.   atoms
    1    8 O      1, 9, 13, 20, 23, 28
    2    6 C      2-5, 7, 8, 10-12, 14-19, 21, 22, 24-27, 29
    3    7 N      6
    4    1 H      30-54

           -------------------------------------------------
          |                Calculation Setup                |
           -------------------------------------------------

          program call               : xtb /rds/general/user/hgt20/home/callum/QDESCP/Colchicine_rdkit_conf_10/Colchicine_rdkit_conf_10.xyz --acc 1 --gfn 2 --chrg 0 --uhf 2 --etemp 300 --input /rds/general/user/hgt20/home/callum/QDESCP/Colchicine_rdkit_conf_10/Colchicine_rdkit_conf_10_xtb.inp -P 1
          hostname                   : login-c
          coordinate file            : /rds/general/user/hgt20/home/callum/QDESCP/Colchicine_rdkit_conf_10/Colchicine_rdkit_conf_10.xyz
          omp threads                :                     1


           -------------------------------------------------
          |                 G F N 2 - x T B                 |
           -------------------------------------------------

        Reference                      10.1021/acs.jctc.8b01176
      * Hamiltonian:
        H0-scaling (s, p, d)           1.850000    2.230000    2.230000
        zeta-weighting                 0.500000
      * Dispersion:
        s8                             2.700000
        a1                             0.520000
        a2                             5.000000
        s9                             5.000000
      * Repulsion:
        kExp                           1.500000    1.000000
        rExp                           1.000000
      * Coulomb:
        alpha                          2.000000
        third order                    shell-resolved
        anisotropic                    true
        a3                             3.000000
        a5                             4.000000
        cn-shift                       1.200000
        cn-exp                         4.000000
        max-rad                        5.000000


          ...................................................
          :                      SETUP                      :
          :.................................................:
          :  # basis functions                 141          :
          :  # atomic orbitals                 141          :
          :  # shells                           83          :
          :  # electrons                       154          :
          :  max. iterations                   250          :
          :  Hamiltonian                  GFN2-xTB          :
          :  restarted?                      false          :
          :  GBSA solvation                  false          :
          :  PC potential                    false          :
          :  electronic temp.          300.0000000     K    :
          :  accuracy                    1.0000000          :
          :  -> integral cutoff          0.2500000E+02      :
          :  -> integral neglect         0.1000000E-07      :
          :  -> SCF convergence          0.1000000E-05 Eh   :
          :  -> wf. convergence          0.1000000E-03 e    :
          :  Broyden damping             0.4000000          :
          :  net charge                          0          :
          :  unpaired electrons                  2          :
          ...................................................

 iter      E             dE          RMSdq      gap      omega  full diag
   1    -87.9665370 -0.879665E+02  0.430E+00    0.20       0.0  T
   2    -87.9272628  0.392742E-01  0.275E+00    0.15       1.0  T
   3    -87.7690748  0.158188E+00  0.222E+00    0.29       1.0  T
   4    -88.1375304 -0.368456E+00  0.787E-01    0.26       1.0  T
   5    -88.1524473 -0.149169E-01  0.345E-01    0.09       1.0  T
   6    -88.1582364 -0.578913E-02  0.245E-01    0.23       1.0  T
   7    -88.1600931 -0.185665E-02  0.121E-01    0.13       1.0  T
   8    -88.1600703  0.228090E-04  0.656E-02    0.16       1.0  T
   9    -88.1603680 -0.297711E-03  0.191E-02    0.15       1.0  T
  10    -88.1603855 -0.174634E-04  0.697E-03    0.15       2.0  T
  11    -88.1603857 -0.198236E-06  0.540E-03    0.15       2.5  T
  12    -88.1603862 -0.498327E-06  0.389E-03    0.15       3.5  T
  13    -88.1603868 -0.612759E-06  0.103E-03    0.15      13.2  T
  14    -88.1603868 -0.377632E-07  0.483E-04    0.15      28.2  T
  15    -88.1603868 -0.519375E-08  0.244E-04    0.15      55.7  T

   *** convergence criteria satisfied after 15 iterations ***

         #    Occupation            Energy/Eh            Energy/eV
      -------------------------------------------------------------
         1        2.0000           -0.7386643             -20.1001
       ...           ...                  ...                  ...
        72        2.0000           -0.4038141             -10.9883
        73        2.0000           -0.3971265             -10.8064
        74        2.0000           -0.3909146             -10.6373
        75        1.9999           -0.3839932             -10.4490
        76        1.9984           -0.3810950             -10.3701
        77        1.0016           -0.3688610             -10.0372
        78        0.9447           -0.2718971              -7.3987 (HOMO)
        79        0.0553           -0.2665051              -7.2520 (LUMO)
        80                         -0.2385413              -6.4910
        81                         -0.2294453              -6.2435
        82                         -0.2002771              -5.4498
        83                         -0.1370879              -3.7304
       ...                                ...                  ...
       141                          0.7068245              19.2337
      -------------------------------------------------------------
                  HL-Gap            0.0053920 Eh            0.1467 eV
             Fermi-level           -0.3220785 Eh           -8.7642 eV

 transition dipole moment (au) for excitation:          77          78
     X       Y       Z   
   1.0707   1.5461   0.7395  total (au/Debye):    2.021   5.136
 dE (eV)             :    2.639
 oscillator strength :  0.37331E+00

 SCC (total)                   0 d,  0 h,  0 min,  0.147 sec
 SCC setup                      ...        0 min,  0.001 sec (  0.354%)
 Dispersion                     ...        0 min,  0.001 sec (  0.526%)
 classical contributions        ...        0 min,  0.000 sec (  0.158%)
 integral evaluation            ...        0 min,  0.012 sec (  8.194%)
 iterations                     ...        0 min,  0.057 sec ( 38.993%)
 molecular gradient             ...        0 min,  0.066 sec ( 44.568%)
 printout                       ...        0 min,  0.011 sec (  7.202%)

         :::::::::::::::::::::::::::::::::::::::::::::::::::::
         ::                     SUMMARY                     ::
         :::::::::::::::::::::::::::::::::::::::::::::::::::::
         :: total energy             -87.060024060593 Eh    ::
         :: gradient norm              0.136009801908 Eh/a0 ::
         :: HOMO-LUMO gap              0.146724804245 eV    ::
         ::.................................................::
         :: SCC energy               -88.158807414231 Eh    ::
         :: -> isotropic ES            0.120801951676 Eh    ::
         :: -> anisotropic ES          0.009620421085 Eh    ::
         :: -> anisotropic XC          0.017074095764 Eh    ::
         :: -> dispersion             -0.063781993150 Eh    ::
         :: repulsion energy           1.098783353639 Eh    ::
         :: add. restraining           0.000000000000 Eh    ::
         :: total charge               0.000000000000 e     ::
         :::::::::::::::::::::::::::::::::::::::::::::::::::::

           -------------------------------------------------
          |                Property Printout                |
           -------------------------------------------------

    * Orbital Energies and Occupations

         #    Occupation            Energy/Eh            Energy/eV
      -------------------------------------------------------------
         1        2.0000           -0.7386643             -20.1001
       ...           ...                  ...                  ...
        66        2.0000           -0.4438763             -12.0785
        67        2.0000           -0.4383720             -11.9287
        68        2.0000           -0.4353246             -11.8458
        69        2.0000           -0.4295151             -11.6877
        70        2.0000           -0.4177287             -11.3670
        71        2.0000           -0.4125470             -11.2260
        72        2.0000           -0.4038141             -10.9883
        73        2.0000           -0.3971265             -10.8064
        74        2.0000           -0.3909146             -10.6373
        75        1.9999           -0.3839932             -10.4490
        76        1.9984           -0.3810950             -10.3701
        77        1.0016           -0.3688610             -10.0372
        78        0.9447           -0.2718971              -7.3987 (HOMO)
        79        0.0553           -0.2665051              -7.2520 (LUMO)
        80                         -0.2385413              -6.4910
        81                         -0.2294453              -6.2435
        82                         -0.2002771              -5.4498
        83                         -0.1370879              -3.7304
        84                         -0.1272412              -3.4624
        85                         -0.1040897              -2.8324
        86                         -0.0116506              -0.3170
        87                         -0.0000650              -0.0018
        88                          0.0146250               0.3980
        89                          0.0248159               0.6753
       ...                                ...                  ...
       141                          0.7068245              19.2337
      -------------------------------------------------------------
                  HL-Gap            0.0053920 Eh            0.1467 eV
             Fermi-level           -0.3220785 Eh           -8.7642 eV

     #   Z          covCN         q      C6AA      α(0)
     1   8 O        0.859    -0.354    20.790     6.113
     2   6 C        2.818     0.217    23.416     7.929
     3   6 C        2.904    -0.080    30.009     8.982
     4   6 C        2.949     0.009    27.824     8.652
     5   6 C        3.802     0.034    20.003     6.368
     6   7 N        2.690    -0.194    25.203     7.456
     7   6 C        2.749     0.278    22.297     7.732
     8   6 C        3.757    -0.142    23.285     6.880
     9   8 O        0.858    -0.433    22.357     6.339
    10   6 C        3.806    -0.064    21.724     6.635
    11   6 C        3.809    -0.063    21.701     6.631
    12   6 C        2.838     0.100    25.766     8.319
    13   8 O        1.708    -0.209    17.470     5.643
    14   6 C        3.642     0.029    20.430     6.499
    15   6 C        2.891    -0.057    29.404     8.890
    16   6 C        2.907    -0.047    29.164     8.855
    17   6 C        2.955     0.015    27.688     8.631
    18   6 C        2.984    -0.026    28.652     8.780
    19   6 C        2.874     0.106    25.662     8.304
    20   8 O        1.703    -0.288    18.791     5.853
    21   6 C        3.651     0.040    20.217     6.458
    22   6 C        2.855     0.097    25.851     8.333
    23   8 O        1.705    -0.264    18.379     5.788
    24   6 C        3.639     0.037    20.310     6.482
    25   6 C        2.974     0.002    27.988     8.678
    26   6 C        2.921    -0.087    30.175     9.008
    27   6 C        2.857     0.109    25.584     8.290
    28   8 O        1.704    -0.262    18.339     5.782
    29   6 C        3.642     0.035    20.326     6.482
    30   1 H        0.925     0.065     2.140     2.288
    31   1 H        0.924     0.085     1.933     2.174
    32   1 H        0.860     0.169     1.281     1.773
    33   1 H        0.925     0.047     2.363     2.404
    34   1 H        0.925     0.056     2.250     2.346
    35   1 H        0.925     0.071     2.072     2.251
    36   1 H        0.924     0.047     2.359     2.402
    37   1 H        0.924     0.052     2.297     2.370
    38   1 H        0.924     0.051     2.310     2.377
    39   1 H        0.924     0.044     2.391     2.418
    40   1 H        0.925     0.074     2.040     2.233
    41   1 H        0.924     0.052     2.293     2.368
    42   1 H        0.924     0.053     2.287     2.365
    43   1 H        0.925     0.046     2.367     2.406
    44   1 H        0.925     0.055     2.258     2.350
    45   1 H        0.925     0.061     2.186     2.312
    46   1 H        0.924     0.028     2.619     2.531
    47   1 H        0.924     0.049     2.337     2.391
    48   1 H        0.924     0.054     2.276     2.359
    49   1 H        0.924     0.042     2.428     2.437
    50   1 H        0.925     0.060     2.198     2.319
    51   1 H        0.926     0.049     2.331     2.387
    52   1 H        0.924     0.045     2.384     2.415
    53   1 H        0.925     0.065     2.140     2.287
    54   1 H        0.924     0.045     2.382     2.413

 Mol. C6AA /au·bohr⁶  :      31594.637044
 Mol. C8AA /au·bohr⁸  :     737078.915946
 Mol. α(0) /au        :        273.169649


Wiberg/Mayer (AO) data.
largest (>0.10) Wiberg bond orders for each atom

 ---------------------------------------------------------------------------
     #   Z sym  total        # sym  WBO       # sym  WBO       # sym  WBO
 ---------------------------------------------------------------------------
     1   8 O    1.989 --     2 C    1.716
     2   6 C    3.917 --     1 O    1.716     3 C    1.077    12 C    1.020
     3   6 C    3.836 --     4 C    1.487     2 C    1.077    30 H    0.953
     4   6 C    3.955 --     3 C    1.487    17 C    1.273     5 C    0.980
     5   6 C    3.966 --     6 N    0.984     4 C    0.980    10 C    0.968
                            31 H    0.948
     6   7 N    3.431 --     7 C    1.241     5 C    0.984    32 H    0.924
                             9 O    0.195
     7   6 C    3.950 --     9 O    1.695     6 N    1.241     8 C    0.976
     8   6 C    3.993 --    35 H    0.983    33 H    0.978     7 C    0.976
                            34 H    0.967
     9   8 O    2.010 --     7 C    1.695     6 N    0.195
    10   6 C    3.985 --    11 C    0.985    36 H    0.975    37 H    0.974
                             5 C    0.968
    11   6 C    3.995 --    25 C    1.018    10 C    0.985    39 H    0.974
                            38 H    0.965
    12   6 C    3.755 --    15 C    1.311    13 O    1.149     2 C    1.020
    13   8 O    2.301 --    12 C    1.149    14 C    0.984
    14   6 C    3.939 --    13 O    0.984    40 H    0.977    41 H    0.971
                            42 H    0.968
    15   6 C    3.942 --    16 C    1.456    12 C    1.311    43 H    0.956
    16   6 C    3.880 --    15 C    1.456    17 C    1.199    44 H    0.963
    17   6 C    3.877 --     4 C    1.273    16 C    1.199    18 C    1.108
    18   6 C    3.963 --    19 C    1.294    25 C    1.287    17 C    1.108
    19   6 C    3.930 --    22 C    1.360    18 C    1.294    20 O    1.019
    20   8 O    2.127 --    19 C    1.019    21 C    0.967
    21   6 C    3.944 --    45 H    0.980    46 H    0.978    47 H    0.977
                            20 O    0.967
    22   6 C    3.923 --    19 C    1.360    27 C    1.271    23 O    1.056
    23   8 O    2.205 --    22 C    1.056    24 C    0.973
    24   6 C    3.940 --    49 H    0.981    50 H    0.979    48 H    0.975
                            23 O    0.973
    25   6 C    3.964 --    26 C    1.441    18 C    1.287    11 C    1.018
    26   6 C    3.973 --    25 C    1.441    27 C    1.350    51 H    0.960
    27   6 C    3.876 --    26 C    1.350    22 C    1.271    28 O    1.059
    28   8 O    2.206 --    27 C    1.059    29 C    0.983
    29   6 C    3.943 --    28 O    0.983    53 H    0.979    54 H    0.975
                            52 H    0.975
    30   1 H    0.994 --     3 C    0.953
    31   1 H    0.992 --     5 C    0.948
    32   1 H    0.972 --     6 N    0.924
    33   1 H    0.998 --     8 C    0.978
    34   1 H    0.997 --     8 C    0.967
    35   1 H    0.995 --     8 C    0.983
    36   1 H    0.997 --    10 C    0.975
    37   1 H    0.996 --    10 C    0.974
    38   1 H    0.997 --    11 C    0.965
    39   1 H    0.997 --    11 C    0.974
    40   1 H    0.994 --    14 C    0.977
    41   1 H    0.995 --    14 C    0.971
    42   1 H    0.994 --    14 C    0.968
    43   1 H    0.997 --    15 C    0.956
    44   1 H    0.996 --    16 C    0.963
    45   1 H    0.996 --    21 C    0.980
    46   1 H    0.999 --    21 C    0.978
    47   1 H    0.998 --    21 C    0.977
    48   1 H    0.996 --    24 C    0.975
    49   1 H    0.998 --    24 C    0.981
    50   1 H    0.995 --    24 C    0.979
    51   1 H    0.997 --    26 C    0.960
    52   1 H    0.996 --    29 C    0.975
    53   1 H    0.995 --    29 C    0.979
    54   1 H    0.995 --    29 C    0.975
 ---------------------------------------------------------------------------

Topologies differ in total number of bonds
Writing topology from bond orders to xtbtopo.mol

molecular dipole:
                 x           y           z       tot (Debye)
 q only:        2.938      -0.646       0.725
   full:        3.626      -0.690       0.967       9.698
molecular quadrupole (traceless):
                xx          xy          yy          xz          yz          zz
 q only:      -11.302      25.185      17.158      -7.992      -2.619      -5.856
  q+dip:      -12.834      29.132      20.706      -9.256      -1.327      -7.872
   full:      -13.565      29.579      20.072     -12.388      -1.405      -6.507


           -------------------------------------------------
          | TOTAL ENERGY              -87.060024060593 Eh   |
          | GRADIENT NORM               0.136009801908 Eh/α |
          | HOMO-LUMO GAP               0.146724804245 eV   |
           -------------------------------------------------

------------------------------------------------------------------------
 * finished run on 2025/05/15 at 16:08:20.819     
------------------------------------------------------------------------
 total:
 * wall-time:     0 d,  0 h,  0 min,  0.166 sec
 *  cpu-time:     0 d,  0 h,  0 min,  0.130 sec
 * ratio c/w:     0.788 speedup
 SCF:
 * wall-time:     0 d,  0 h,  0 min,  0.148 sec
 *  cpu-time:     0 d,  0 h,  0 min,  0.114 sec
 * ratio c/w:     0.772 speedup


