----- Optimization -----
      -----------------------------------------------------------      
     |                   =====================                   |     
     |                           x T B                           |     
     |                   =====================                   |     
     |                         S. Grimme                         |     
     |          Mulliken Center for Theoretical Chemistry        |     
     |                    University of Bonn                     |     
      -----------------------------------------------------------      

   * xtb version 6.7.1 (edcfbbe) compiled by 'conda@3ef47c1a292c' on 2024-11-25

   xtb is free software: you can redistribute it and/or modify it under
   the terms of the GNU Lesser General Public License as published by
   the Free Software Foundation, either version 3 of the License, or
   (at your option) any later version.
   
   xtb is distributed in the hope that it will be useful,
   but WITHOUT ANY WARRANTY; without even the implied warranty of
   MERCHANTABILITY or FITNESS FOR A PARTICULAR PURPOSE.  See the
   GNU Lesser General Public License for more details.
   
   Cite this work as:
   * C. Bannwarth, E. Caldeweyher, S. Ehlert, A. Hansen, P. Pracht,
     J. Seibert, S. Spicher, S. Grimme, WIREs Comput. Mol. Sci., 2020, 11,
     e01493. DOI: 10.1002/wcms.1493
   
   for GFN2-xTB:
   * C. Bannwarth, S. Ehlert and S. Grimme., J. Chem. Theory Comput., 2019,
     15, 1652-1671. DOI: 10.1021/acs.jctc.8b01176
   for GFN1-xTB:
   * S. Grimme, C. Bannwarth, P. Shushkov, J. Chem. Theory Comput., 2017,
     13, 1989-2009. DOI: 10.1021/acs.jctc.7b00118
   for GFN0-xTB:
   * P. Pracht, E. Caldeweyher, S. Ehlert, S. Grimme, ChemRxiv, 2019, preprint.
     DOI: 10.26434/chemrxiv.8326202.v1
   for GFN-FF:
   * S. Spicher and S. Grimme, Angew. Chem. Int. Ed., 2020, 59, 15665-15673.
     DOI: 10.1002/anie.202004239
   
   for ALPB and GBSA implicit solvation:
   * S. Ehlert, M. Stahn, S. Spicher, S. Grimme, J. Chem. Theory Comput.,
     2021, 17, 4250-4261. DOI: 10.1021/acs.jctc.1c00471
   
   for ddCOSMO and CPCM-X implicit solvation:
   * M. Stahn, S. Ehlert, S. Grimme, J. Phys. Chem. A,
     2023, XX, XXXX-XXXX. DOI: 10.1021/acs.jpca.3c04382
   
   for DFT-D4:
   * E. Caldeweyher, C. Bannwarth and S. Grimme, J. Chem. Phys., 2017,
     147, 034112. DOI: 10.1063/1.4993215
   * E. Caldeweyher, S. Ehlert, A. Hansen, H. Neugebauer, S. Spicher,
     C. Bannwarth and S. Grimme, J. Chem. Phys., 2019, 150, 154122.
     DOI: 10.1063/1.5090222
   * E. Caldeweyher, J.-M. Mewes, S. Ehlert and S. Grimme, Phys. Chem. Chem. Phys.
     2020, 22, 8499-8512. DOI: 10.1039/D0CP00502A
   
   for sTDA-xTB:
   * S. Grimme and C. Bannwarth, J. Chem. Phys., 2016, 145, 054103.
     DOI: 10.1063/1.4959605
   
   in the mass-spec context:
   * V. Asgeirsson, C. Bauer and S. Grimme, Chem. Sci., 2017, 8, 4879.
     DOI: 10.1039/c7sc00601b
   * J. Koopman and S. Grimme, ACS Omega 2019, 4, 12, 15120-15133.
     DOI: 10.1021/acsomega.9b02011
   
   for metadynamics refer to:
   * S. Grimme, J. Chem. Theory Comput., 2019, 155, 2847-2862
     DOI: 10.1021/acs.jctc.9b00143
   
   for SPH calculations refer to:
   * S. Spicher and S. Grimme, J. Chem. Theory Comput., 2021, 17, 1701-1714
     DOI: 10.1021/acs.jctc.0c01306
   
   for ONIOM refer to:
   * C. Plett, A. Katbashev, S. Ehlert, S. Grimme, M. Bursch,
     Phys. Chem. Chem. Phys., 2023, 25, 17860-17868. DOI: 10.1039/D3CP02178E
   
   for DIPRO refer to:
   * J. Kohn, N. Gildemeister, S. Grimme, D. Fazzi, A. Hansen,
     J. Chem. Phys., 2023, just accepted.
   
   for PTB refer to:
   * S. Grimme, M. Mueller, A. Hansen, J. Chem. Phys., 2023, 158, 124111.
     DOI: 10.1063/5.0137838
   
   with help from (in alphabetical order)
   P. Atkinson, C. Bannwarth, F. Bohle, G. Brandenburg, E. Caldeweyher
   M. Checinski, S. Dohm, S. Ehlert, S. Ehrlich, I. Gerasimov, C. Hölzer
   A. Katbashev, J. Kohn, J. Koopman, C. Lavigne, S. Lehtola, F. März, M. Müller,
   F. Musil, H. Neugebauer, J. Pisarek, C. Plett, P. Pracht, F. Pultar,
   J. Seibert, P. Shushkov, S. Spicher, M. Stahn, M. Steiner, T. Strunk,
   J. Stückrath, T. Rose, and J. Unsleber
   
 * started run on 2025/05/15 at 16:11:18.001     
   ID    Z sym.   atoms
    1    6 C      1, 2, 4-6, 8-12, 14-17, 19-22
    2    7 N      3, 7, 18
    3   17 Cl     13
    4    8 O      23
    5    1 H      24-49

           -------------------------------------------------
          |                Calculation Setup                |
           -------------------------------------------------

          program call               : xtb /rds/general/user/hgt20/home/callum/QDESCP/Hydroxychloroquine_rdkit_conf_11/Hydroxychloroquine_rdkit_conf_11.xyz --opt normal --acc 1 --gfn 2 --chrg 0 --uhf 0 -P 1
          hostname                   : login-c
          coordinate file            : /rds/general/user/hgt20/home/callum/QDESCP/Hydroxychloroquine_rdkit_conf_11/Hydroxychloroquine_rdkit_conf_11.xyz
          omp threads                :                     1


           -------------------------------------------------
          |                 G F N 2 - x T B                 |
           -------------------------------------------------

        Reference                      10.1021/acs.jctc.8b01176
      * Hamiltonian:
        H0-scaling (s, p, d)           1.850000    2.230000    2.230000
        zeta-weighting                 0.500000
      * Dispersion:
        s8                             2.700000
        a1                             0.520000
        a2                             5.000000
        s9                             5.000000
      * Repulsion:
        kExp                           1.500000    1.000000
        rExp                           1.000000
      * Coulomb:
        alpha                          2.000000
        third order                    shell-resolved
        anisotropic                    true
        a3                             3.000000
        a5                             4.000000
        cn-shift                       1.200000
        cn-exp                         4.000000
        max-rad                        5.000000


          ...................................................
          :                      SETUP                      :
          :.................................................:
          :  # basis functions                 124          :
          :  # atomic orbitals                 123          :
          :  # shells                           73          :
          :  # electrons                       126          :
          :  max. iterations                   250          :
          :  Hamiltonian                  GFN2-xTB          :
          :  restarted?                      false          :
          :  GBSA solvation                  false          :
          :  PC potential                    false          :
          :  electronic temp.          300.0000000     K    :
          :  accuracy                    1.0000000          :
          :  -> integral cutoff          0.2500000E+02      :
          :  -> integral neglect         0.1000000E-07      :
          :  -> SCF convergence          0.1000000E-05 Eh   :
          :  -> wf. convergence          0.1000000E-03 e    :
          :  Broyden damping             0.4000000          :
          :  net charge                          0          :
          :  unpaired electrons                  0          :
          ...................................................

 iter      E             dE          RMSdq      gap      omega  full diag
   1    -70.0031096 -0.700031E+02  0.361E+00    2.44       0.0  T
   2    -70.0815044 -0.783948E-01  0.223E+00    2.34       1.0  T
   3    -70.0648827  0.166216E-01  0.119E+00    2.70       1.0  T
   4    -70.0952141 -0.303314E-01  0.392E-01    2.29       1.0  T
   5    -70.0997039 -0.448972E-02  0.122E-01    2.37       1.0  T
   6    -70.1001840 -0.480131E-03  0.557E-02    2.35       1.0  T
   7    -70.1002397 -0.556573E-04  0.273E-02    2.36       1.0  T
   8    -70.1002480 -0.838558E-05  0.122E-02    2.36       1.2  T
   9    -70.1002505 -0.242792E-05  0.719E-03    2.36       2.0  T
  10    -70.1002510 -0.496854E-06  0.518E-03    2.36       2.8  T
  11    -70.1002514 -0.418141E-06  0.298E-03    2.36       4.8  T
  12    -70.1002515 -0.159870E-06  0.162E-03    2.36       8.8  T
  13    -70.1002516 -0.492032E-07  0.783E-04    2.36      18.2  T
  14    -70.1002516 -0.112239E-07  0.419E-04    2.36      34.1  T

   *** convergence criteria satisfied after 14 iterations ***

         #    Occupation            Energy/Eh            Energy/eV
      -------------------------------------------------------------
         1        2.0000           -1.0524830             -28.6395
       ...           ...                  ...                  ...
        57        2.0000           -0.4143940             -11.2762
        58        2.0000           -0.4119934             -11.2109
        59        2.0000           -0.4076812             -11.0936
        60        2.0000           -0.3952213             -10.7545
        61        2.0000           -0.3733246             -10.1587
        62        2.0000           -0.3686090             -10.0304
        63        2.0000           -0.3624557              -9.8629 (HOMO)
        64                         -0.2756837              -7.5017 (LUMO)
        65                         -0.2368581              -6.4452
        66                         -0.2046268              -5.5682
        67                         -0.1602385              -4.3603
        68                         -0.1318712              -3.5884
       ...                                ...                  ...
       123                          0.6615065              18.0005
      -------------------------------------------------------------
                  HL-Gap            0.0867720 Eh            2.3612 eV
             Fermi-level           -0.3190697 Eh           -8.6823 eV

 SCC (total)                   0 d,  0 h,  0 min,  0.177 sec
 SCC setup                      ...        0 min,  0.000 sec (  0.244%)
 Dispersion                     ...        0 min,  0.001 sec (  0.326%)
 classical contributions        ...        0 min,  0.000 sec (  0.108%)
 integral evaluation            ...        0 min,  0.008 sec (  4.744%)
 iterations                     ...        0 min,  0.089 sec ( 50.026%)
 molecular gradient             ...        0 min,  0.079 sec ( 44.427%)
 printout                       ...        0 min,  0.000 sec (  0.121%)

         :::::::::::::::::::::::::::::::::::::::::::::::::::::
         ::                     SUMMARY                     ::
         :::::::::::::::::::::::::::::::::::::::::::::::::::::
         :: total energy             -69.196841293080 Eh    ::
         :: gradient norm              0.091171834710 Eh/a0 ::
         :: HOMO-LUMO gap              2.361185859614 eV    ::
         ::.................................................::
         :: SCC energy               -70.100415435583 Eh    ::
         :: -> isotropic ES            0.053985508284 Eh    ::
         :: -> anisotropic ES          0.010352731908 Eh    ::
         :: -> anisotropic XC          0.039661868327 Eh    ::
         :: -> dispersion             -0.047749384487 Eh    ::
         :: repulsion energy           0.903574142503 Eh    ::
         :: add. restraining           0.000000000000 Eh    ::
         :: total charge              -0.000000000000 e     ::
         :::::::::::::::::::::::::::::::::::::::::::::::::::::

      ----------------------------------------------------------- 
     |                   =====================                   |
     |                        A N C O P T                        |
     |                   =====================                   |
     |               Approximate Normal Coordinate               |
     |                Rational Function Optimizer                |
      ----------------------------------------------------------- 
      ----------------------------------------------------------- 
     |                   =====================                   |
     |                        A N C O P T                        |
     |                   =====================                   |
     |               Approximate Normal Coordinate               |
     |                Rational Function Optimizer                |
      ----------------------------------------------------------- 

          ...................................................
          :                      SETUP                      :
          :.................................................:
          :   optimization level            normal          :
          :   max. optcycles                   200          :
          :   ANC micro-cycles                  20          :
          :   degrees of freedom               141          :
          :.................................................:
          :   RF solver                   davidson          :
          :   write xtbopt.log                true          :
          :   linear?                        false          :
          :   energy convergence         0.5000000E-05 Eh   :
          :   grad. convergence          0.1000000E-02 Eh/α :
          :   maxmium RF displ.          1.0000000          :
          :   Hlow (freq-cutoff)         0.1000000E-01      :
          :   Hmax (freq-cutoff)         5.0000000          :
          :   S6 in model hess.         20.0000000          :
          ...................................................

generating ANC from exact Hessian ...
Using Lindh-Hessian (1995)
 Shifting diagonal of input Hessian by    9.8419025616862180E-003
 Lowest  eigenvalues of input Hessian
    0.000000    0.000000    0.000000    0.000000    0.000000    0.000000
    0.010000    0.010036    0.010148    0.010764    0.011028    0.011337
    0.011682    0.012640    0.013127    0.013982    0.014176    0.014726
 Highest eigenvalues
    1.820984    1.827728    1.881069    1.979602    2.083748    2.160358


........................................................................
.............................. CYCLE    1 ..............................
........................................................................

 iter      E             dE          RMSdq      gap      omega  full diag
   1    -70.1002516 -0.701003E+02  0.282E-04    2.36       0.0  T
   2    -70.1002516 -0.626386E-09  0.231E-04    2.36      61.7  T
   3    -70.1002516 -0.288622E-09  0.195E-04    2.36      73.3  T
     SCC iter.                  ...        0 min,  0.008 sec
     gradient                   ...        0 min,  0.068 sec
 * total energy  :   -69.1968413 Eh     change       -0.2783025E-08 Eh
   gradient norm :     0.0911722 Eh/α   predicted     0.0000000E+00 (-100.00%)
   displ. norm   :     0.2587280 α      lambda       -0.1049968E-01
   maximum displ.:     0.0821630 α      in ANC's #24, #45, #26, ...

........................................................................
.............................. CYCLE    2 ..............................
........................................................................

 iter      E             dE          RMSdq      gap      omega  full diag
   1    -70.1307823 -0.701308E+02  0.153E-01    2.48       0.0  T
   2    -70.1309030 -0.120696E-03  0.960E-02    2.47       1.0  T
   3    -70.1309039 -0.983678E-06  0.538E-02    2.50       1.0  T
   4    -70.1309467 -0.427294E-04  0.138E-02    2.48       1.0  T
   5    -70.1309543 -0.760727E-05  0.436E-03    2.49       3.3  T
   6    -70.1309548 -0.484193E-06  0.186E-03    2.49       7.7  T
   7    -70.1309548 -0.270255E-07  0.612E-04    2.49      23.3  T
   8    -70.1309548 -0.552888E-08  0.333E-04    2.49      42.9  T
     SCC iter.                  ...        0 min,  0.020 sec
     gradient                   ...        0 min,  0.076 sec
 * total energy  :   -69.2041056 Eh     change       -0.7264329E-02 Eh
   gradient norm :     0.0391860 Eh/α   predicted    -0.5603243E-02 ( -22.87%)
   displ. norm   :     0.2437660 α      lambda       -0.3578075E-02
   maximum displ.:     0.0925641 α      in ANC's #26, #14, #24, ...

........................................................................
.............................. CYCLE    3 ..............................
........................................................................

 iter      E             dE          RMSdq      gap      omega  full diag
   1    -70.1485938 -0.701486E+02  0.112E-01    2.58       0.0  T
   2    -70.1487110 -0.117230E-03  0.694E-02    2.56       1.0  T
   3    -70.1487498 -0.388067E-04  0.405E-02    2.58       1.0  T
   4    -70.1487627 -0.128766E-04  0.118E-02    2.57       1.2  T
   5    -70.1487678 -0.510786E-05  0.391E-03    2.57       3.7  T
   6    -70.1487682 -0.387097E-06  0.166E-03    2.57       8.6  T
   7    -70.1487682 -0.200516E-07  0.491E-04    2.57      29.1  T
   8    -70.1487682 -0.460621E-08  0.228E-04    2.57      62.7  T
     SCC iter.                  ...        0 min,  0.020 sec
     gradient                   ...        0 min,  0.073 sec
 * total energy  :   -69.2062537 Eh     change       -0.2148069E-02 Eh
   gradient norm :     0.0141283 Eh/α   predicted    -0.1896273E-02 ( -11.72%)
   displ. norm   :     0.1746306 α      lambda       -0.8188828E-03
   maximum displ.:     0.0684561 α      in ANC's #26, #4, #6, ...

........................................................................
.............................. CYCLE    4 ..............................
........................................................................

 iter      E             dE          RMSdq      gap      omega  full diag
   1    -70.1509943 -0.701510E+02  0.597E-02    2.60       0.0  T
   2    -70.1510284 -0.341052E-04  0.362E-02    2.58       1.0  T
   3    -70.1510396 -0.112562E-04  0.213E-02    2.59       1.0  T
   4    -70.1510451 -0.550737E-05  0.637E-03    2.59       2.2  T
   5    -70.1510465 -0.137696E-05  0.218E-03    2.59       6.6  T
   6    -70.1510466 -0.814285E-07  0.110E-03    2.59      13.0  T
   7    -70.1510466 -0.114850E-07  0.352E-04    2.59      40.6  T
   8    -70.1510466 -0.152602E-08  0.236E-04    2.59      60.6  T
     SCC iter.                  ...        0 min,  0.020 sec
     gradient                   ...        0 min,  0.073 sec
 * total energy  :   -69.2068863 Eh     change       -0.6326477E-03 Eh
   gradient norm :     0.0153925 Eh/α   predicted    -0.4219340E-03 ( -33.31%)
   displ. norm   :     0.2737653 α      lambda       -0.9788467E-03
   maximum displ.:     0.1109427 α      in ANC's #4, #6, #26, ...

........................................................................
.............................. CYCLE    5 ..............................
........................................................................

 iter      E             dE          RMSdq      gap      omega  full diag
   1    -70.1511709 -0.701512E+02  0.854E-02    2.62       0.0  T
   2    -70.1512313 -0.604725E-04  0.513E-02    2.58       1.0  T
   3    -70.1512458 -0.144515E-04  0.307E-02    2.60       1.0  T
   4    -70.1512604 -0.145808E-04  0.883E-03    2.59       1.6  T
   5    -70.1512631 -0.275612E-05  0.313E-03    2.59       4.6  T
   6    -70.1512632 -0.126004E-06  0.163E-03    2.59       8.8  T
   7    -70.1512633 -0.297198E-07  0.454E-04    2.59      31.5  T
   8    -70.1512633 -0.245326E-08  0.303E-04    2.59      47.1  T
     SCC iter.                  ...        0 min,  0.078 sec
     gradient                   ...        0 min,  0.027 sec
 * total energy  :   -69.2075596 Eh     change       -0.6732803E-03 Eh
   gradient norm :     0.0159991 Eh/α   predicted    -0.5261175E-03 ( -21.86%)
   displ. norm   :     0.2342793 α      lambda       -0.5959969E-03
   maximum displ.:     0.1191850 α      in ANC's #6, #4, #11, ...

........................................................................
.............................. CYCLE    6 ..............................
........................................................................

 iter      E             dE          RMSdq      gap      omega  full diag
   1    -70.1514306 -0.701514E+02  0.615E-02    2.60       0.0  T
   2    -70.1514493 -0.187732E-04  0.365E-02    2.58       1.0  T
   3    -70.1514465  0.285083E-05  0.217E-02    2.60       1.0  T
   4    -70.1514580 -0.114998E-04  0.546E-03    2.59       2.6  T
   5    -70.1514590 -0.101575E-05  0.223E-03    2.59       6.4  T
   6    -70.1514590 -0.388726E-07  0.110E-03    2.59      13.0  T
   7    -70.1514591 -0.199893E-07  0.239E-04    2.59      59.8  T
   8    -70.1514591 -0.682419E-09  0.140E-04    2.59     101.9  T
     SCC iter.                  ...        0 min,  0.060 sec
     gradient                   ...        0 min,  0.028 sec
 * total energy  :   -69.2080198 Eh     change       -0.4601390E-03 Eh
   gradient norm :     0.0125723 Eh/α   predicted    -0.3143555E-03 ( -31.68%)
   displ. norm   :     0.3464702 α      lambda       -0.7002976E-03
   maximum displ.:     0.1837180 α      in ANC's #6, #4, #11, ...

........................................................................
.............................. CYCLE    7 ..............................
........................................................................

 iter      E             dE          RMSdq      gap      omega  full diag
   1    -70.1513673 -0.701514E+02  0.851E-02    2.59       0.0  T
   2    -70.1513827 -0.154149E-04  0.488E-02    2.58       1.0  T
   3    -70.1513677  0.150382E-04  0.242E-02    2.60       1.0  T
   4    -70.1513894 -0.217159E-04  0.563E-03    2.58       2.5  T
   5    -70.1513901 -0.748985E-06  0.282E-03    2.58       5.1  T
   6    -70.1513902 -0.555149E-07  0.106E-03    2.58      13.5  T
   7    -70.1513902 -0.281738E-07  0.262E-04    2.58      54.5  T
   8    -70.1513902 -0.644164E-09  0.167E-04    2.58      85.7  T
     SCC iter.                  ...        0 min,  0.021 sec
     gradient                   ...        0 min,  0.028 sec
 * total energy  :   -69.2085578 Eh     change       -0.5380812E-03 Eh
   gradient norm :     0.0134430 Eh/α   predicted    -0.3922810E-03 ( -27.10%)
   displ. norm   :     0.4006331 α      lambda       -0.8149716E-03
   maximum displ.:     0.2348873 α      in ANC's #6, #4, #11, ...

........................................................................
.............................. CYCLE    8 ..............................
........................................................................

 iter      E             dE          RMSdq      gap      omega  full diag
   1    -70.1526980 -0.701527E+02  0.918E-02    2.58       0.0  T
   2    -70.1527059 -0.790680E-05  0.535E-02    2.58       1.0  T
   3    -70.1527055  0.387239E-06  0.105E-02    2.57       1.4  T
   4    -70.1527084 -0.288746E-05  0.411E-03    2.58       3.5  T
   5    -70.1527085 -0.959166E-07  0.173E-03    2.58       8.3  T
   6    -70.1527085 -0.402388E-07  0.552E-04    2.58      25.9  T
   7    -70.1527085 -0.754500E-08  0.336E-04    2.58      42.5  T
     SCC iter.                  ...        0 min,  0.018 sec
     gradient                   ...        0 min,  0.079 sec
 * total energy  :   -69.2090844 Eh     change       -0.5265595E-03 Eh
   gradient norm :     0.0092823 Eh/α   predicted    -0.4728897E-03 ( -10.19%)
   displ. norm   :     0.5123647 α      lambda       -0.7078390E-03
   maximum displ.:     0.2789235 α      in ANC's #6, #4, #11, ...

........................................................................
.............................. CYCLE    9 ..............................
........................................................................

 iter      E             dE          RMSdq      gap      omega  full diag
   1    -70.1475911 -0.701476E+02  0.125E-01    2.57       0.0  T
   2    -70.1476058 -0.147186E-04  0.728E-02    2.58       1.0  T
   3    -70.1476050  0.854747E-06  0.132E-02    2.57       1.1  T
   4    -70.1476106 -0.562528E-05  0.607E-03    2.58       2.4  T
   5    -70.1476110 -0.400815E-06  0.274E-03    2.57       5.2  T
   6    -70.1476111 -0.140353E-06  0.939E-04    2.57      15.2  T
   7    -70.1476112 -0.262426E-07  0.411E-04    2.57      34.7  T
     SCC iter.                  ...        0 min,  0.018 sec
     gradient                   ...        0 min,  0.079 sec
 * total energy  :   -69.2088807 Eh     change        0.2036529E-03 Eh
   gradient norm :     0.0328782 Eh/α   predicted    -0.4468382E-03 (-319.41%)
   displ. norm   :     0.1769745 α      lambda       -0.1332740E-02
   maximum displ.:     0.0777418 α      in ANC's #4, #6, #11, ...

........................................................................
.............................. CYCLE   10 ..............................
........................................................................

 iter      E             dE          RMSdq      gap      omega  full diag
   1    -70.1552219 -0.701552E+02  0.554E-02    2.58       0.0  T
   2    -70.1552271 -0.524924E-05  0.317E-02    2.58       1.0  T
   3    -70.1552245  0.262726E-05  0.105E-02    2.57       1.4  T
   4    -70.1552285 -0.402497E-05  0.330E-03    2.58       4.3  T
   5    -70.1552288 -0.275332E-06  0.170E-03    2.58       8.4  T
   6    -70.1552288 -0.329943E-07  0.607E-04    2.58      23.5  T
   7    -70.1552288 -0.915936E-08  0.179E-04    2.58      80.0  T
     SCC iter.                  ...        0 min,  0.018 sec
     gradient                   ...        0 min,  0.076 sec
 * total energy  :   -69.2095134 Eh     change       -0.6326899E-03 Eh
   gradient norm :     0.0057845 Eh/α   predicted    -0.6872569E-03 (   8.62%)
   displ. norm   :     0.1510382 α      lambda       -0.1528686E-03
   maximum displ.:     0.1012942 α      in ANC's #6, #13, #5, ...

........................................................................
.............................. CYCLE   11 ..............................
........................................................................

 iter      E             dE          RMSdq      gap      omega  full diag
   1    -70.1552081 -0.701552E+02  0.346E-02    2.57       0.0  T
   2    -70.1552095 -0.141697E-05  0.202E-02    2.58       1.0  T
   3    -70.1552073  0.216990E-05  0.773E-03    2.57       1.8  T
   4    -70.1552101 -0.275808E-05  0.170E-03    2.58       8.4  T
   5    -70.1552102 -0.701119E-07  0.847E-04    2.58      16.9  T
   6    -70.1552102 -0.574464E-08  0.339E-04    2.58      42.2  T
     SCC iter.                  ...        0 min,  0.016 sec
     gradient                   ...        0 min,  0.078 sec
 * total energy  :   -69.2096483 Eh     change       -0.1348586E-03 Eh
   gradient norm :     0.0043135 Eh/α   predicted    -0.7817999E-04 ( -42.03%)
   displ. norm   :     0.4807555 α      lambda       -0.4216733E-03
   maximum displ.:     0.3267918 α      in ANC's #6, #13, #5, ...

........................................................................
.............................. CYCLE   12 ..............................
........................................................................

 iter      E             dE          RMSdq      gap      omega  full diag
   1    -70.1527804 -0.701528E+02  0.108E-01    2.57       0.0  T
   2    -70.1527947 -0.142471E-04  0.629E-02    2.58       1.0  T
   3    -70.1527725  0.221436E-04  0.254E-02    2.56       1.0  T
   4    -70.1528008 -0.282863E-04  0.539E-03    2.57       2.6  T
   5    -70.1528015 -0.680752E-06  0.266E-03    2.57       5.4  T
   6    -70.1528016 -0.598664E-07  0.105E-03    2.57      13.7  T
   7    -70.1528016 -0.254525E-07  0.281E-04    2.57      50.8  T
   8    -70.1528016 -0.538037E-09  0.164E-04    2.57      87.0  T
     SCC iter.                  ...        0 min,  0.079 sec
     gradient                   ...        0 min,  0.028 sec
 * total energy  :   -69.2098926 Eh     change       -0.2443150E-03 Eh
   gradient norm :     0.0087441 Eh/α   predicted    -0.2595483E-03 (   6.24%)
   displ. norm   :     0.1410114 α      lambda       -0.1469522E-03
   maximum displ.:     0.0980306 α      in ANC's #6, #9, #7, ...

........................................................................
.............................. CYCLE   13 ..............................
........................................................................

 iter      E             dE          RMSdq      gap      omega  full diag
   1    -70.1538539 -0.701539E+02  0.290E-02    2.57       0.0  T
   2    -70.1538547 -0.789671E-06  0.167E-02    2.58       1.0  T
   3    -70.1538534  0.128376E-05  0.623E-03    2.57       2.3  T
   4    -70.1538550 -0.157563E-05  0.124E-03    2.57      11.6  T
   5    -70.1538550 -0.472465E-07  0.549E-04    2.57      26.0  T
   6    -70.1538550 -0.184897E-08  0.253E-04    2.57      56.4  T
     SCC iter.                  ...        0 min,  0.065 sec
     gradient                   ...        0 min,  0.028 sec
 * total energy  :   -69.2100035 Eh     change       -0.1108446E-03 Eh
   gradient norm :     0.0043144 Eh/α   predicted    -0.7494029E-04 ( -32.39%)
   displ. norm   :     0.2464652 α      lambda       -0.1421130E-03
   maximum displ.:     0.1707153 α      in ANC's #6, #7, #9, ...

........................................................................
.............................. CYCLE   14 ..............................
........................................................................

 iter      E             dE          RMSdq      gap      omega  full diag
   1    -70.1543590 -0.701544E+02  0.491E-02    2.57       0.0  T
   2    -70.1543609 -0.192514E-05  0.286E-02    2.58       1.0  T
   3    -70.1543577  0.321066E-05  0.987E-03    2.57       1.4  T
   4    -70.1543616 -0.394816E-05  0.205E-03    2.57       7.0  T
   5    -70.1543617 -0.107401E-06  0.978E-04    2.57      14.6  T
   6    -70.1543617 -0.680339E-08  0.411E-04    2.57      34.8  T
     SCC iter.                  ...        0 min,  0.061 sec
     gradient                   ...        0 min,  0.028 sec
 * total energy  :   -69.2101117 Eh     change       -0.1082629E-03 Eh
   gradient norm :     0.0038447 Eh/α   predicted    -0.7537967E-04 ( -30.37%)
   displ. norm   :     0.2730596 α      lambda       -0.1255777E-03
   maximum displ.:     0.1806712 α      in ANC's #6, #7, #2, ...

........................................................................
.............................. CYCLE   15 ..............................
........................................................................

 iter      E             dE          RMSdq      gap      omega  full diag
   1    -70.1547395 -0.701547E+02  0.512E-02    2.57       0.0  T
   2    -70.1547411 -0.165417E-05  0.300E-02    2.58       1.0  T
   3    -70.1547386  0.248503E-05  0.887E-03    2.57       1.6  T
   4    -70.1547417 -0.306229E-05  0.201E-03    2.57       7.1  T
   5    -70.1547418 -0.943471E-07  0.989E-04    2.57      14.4  T
   6    -70.1547418 -0.757312E-08  0.435E-04    2.57      32.8  T
     SCC iter.                  ...        0 min,  0.068 sec
     gradient                   ...        0 min,  0.027 sec
 * total energy  :   -69.2102069 Eh     change       -0.9522795E-04 Eh
   gradient norm :     0.0038700 Eh/α   predicted    -0.6747643E-04 ( -29.14%)
   displ. norm   :     0.2909093 α      lambda       -0.1078065E-03
   maximum displ.:     0.1788244 α      in ANC's #6, #7, #3, ...

........................................................................
.............................. CYCLE   16 ..............................
........................................................................

 iter      E             dE          RMSdq      gap      omega  full diag
   1    -70.1548302 -0.701548E+02  0.512E-02    2.57       0.0  T
   2    -70.1548315 -0.130042E-05  0.302E-02    2.58       1.0  T
   3    -70.1548297  0.184668E-05  0.771E-03    2.57       1.9  T
   4    -70.1548320 -0.229002E-05  0.188E-03    2.57       7.6  T
   5    -70.1548321 -0.744685E-07  0.958E-04    2.57      14.9  T
   6    -70.1548321 -0.776980E-08  0.447E-04    2.57      31.9  T
     SCC iter.                  ...        0 min,  0.055 sec
     gradient                   ...        0 min,  0.028 sec
 * total energy  :   -69.2102878 Eh     change       -0.8088764E-04 Eh
   gradient norm :     0.0041186 Eh/α   predicted    -0.5846967E-04 ( -27.71%)
   displ. norm   :     0.2918645 α      lambda       -0.1044635E-03
   maximum displ.:     0.1510471 α      in ANC's #6, #3, #7, ...

........................................................................
.............................. CYCLE   17 ..............................
........................................................................

 iter      E             dE          RMSdq      gap      omega  full diag
   1    -70.1554902 -0.701555E+02  0.469E-02    2.57       0.0  T
   2    -70.1554908 -0.618551E-06  0.278E-02    2.57       1.0  T
   3    -70.1554903  0.447902E-06  0.427E-03    2.57       3.3  T
   4    -70.1554910 -0.656870E-06  0.142E-03    2.57      10.0  T
   5    -70.1554910 -0.294450E-07  0.758E-04    2.57      18.8  T
   6    -70.1554910 -0.604793E-08  0.350E-04    2.57      40.9  T
     SCC iter.                  ...        0 min,  0.065 sec
     gradient                   ...        0 min,  0.027 sec
 * total energy  :   -69.2103661 Eh     change       -0.7829544E-04 Eh
   gradient norm :     0.0049203 Eh/α   predicted    -0.5668595E-04 ( -27.60%)
   displ. norm   :     0.3427850 α      lambda       -0.1217524E-03
   maximum displ.:     0.1781632 α      in ANC's #6, #3, #2, ...

........................................................................
.............................. CYCLE   18 ..............................
........................................................................

 iter      E             dE          RMSdq      gap      omega  full diag
   1    -70.1539437 -0.701539E+02  0.562E-02    2.57       0.0  T
   2    -70.1539449 -0.122243E-05  0.335E-02    2.57       1.0  T
   3    -70.1539436  0.129920E-05  0.646E-03    2.57       2.2  T
   4    -70.1539453 -0.171858E-05  0.187E-03    2.57       7.6  T
   5    -70.1539454 -0.637844E-07  0.974E-04    2.57      14.7  T
   6    -70.1539454 -0.956186E-08  0.350E-04    2.57      40.9  T
     SCC iter.                  ...        0 min,  0.061 sec
     gradient                   ...        0 min,  0.028 sec
 * total energy  :   -69.2104470 Eh     change       -0.8085869E-04 Eh
   gradient norm :     0.0048713 Eh/α   predicted    -0.6803820E-04 ( -15.86%)
   displ. norm   :     0.3536011 α      lambda       -0.1950153E-03
   maximum displ.:     0.1804854 α      in ANC's #3, #12, #8, ...

........................................................................
.............................. CYCLE   19 ..............................
........................................................................

 iter      E             dE          RMSdq      gap      omega  full diag
   1    -70.1568621 -0.701569E+02  0.596E-02    2.57       0.0  T
   2    -70.1568645 -0.238887E-05  0.355E-02    2.56       1.0  T
   3    -70.1568609  0.354716E-05  0.103E-02    2.57       1.4  T
   4    -70.1568653 -0.436483E-05  0.239E-03    2.57       6.0  T
   5    -70.1568654 -0.127242E-06  0.118E-03    2.57      12.1  T
   6    -70.1568654 -0.955029E-08  0.521E-04    2.57      27.4  T
   7    -70.1568654 -0.549494E-08  0.268E-04    2.57      53.3  T
     SCC iter.                  ...        0 min,  0.069 sec
     gradient                   ...        0 min,  0.028 sec
 * total energy  :   -69.2105203 Eh     change       -0.7333293E-04 Eh
   gradient norm :     0.0052787 Eh/α   predicted    -0.1097138E-03 (  49.61%)
   displ. norm   :     0.1177829 α      lambda       -0.8931949E-04
   maximum displ.:     0.0616520 α      in ANC's #6, #3, #4, ...

........................................................................
.............................. CYCLE   20 ..............................
........................................................................

 iter      E             dE          RMSdq      gap      omega  full diag
   1    -70.1553555 -0.701554E+02  0.220E-02    2.57       0.0  T
   2    -70.1553558 -0.348133E-06  0.131E-02    2.57       1.1  T
   3    -70.1553556  0.239969E-06  0.286E-03    2.56       5.0  T
   4    -70.1553559 -0.329779E-06  0.975E-04    2.57      14.7  T
   5    -70.1553559 -0.220901E-07  0.553E-04    2.57      25.9  T
     SCC iter.                  ...        0 min,  0.064 sec
     gradient                   ...        0 min,  0.028 sec
 * total energy  :   -69.2105835 Eh     change       -0.6315092E-04 Eh
   gradient norm :     0.0034696 Eh/α   predicted    -0.4527853E-04 ( -28.30%)
   displ. norm   :     0.1179111 α      lambda       -0.7446906E-04
   maximum displ.:     0.0593299 α      in ANC's #3, #4, #10, ...
 * RMSD in coord.:     0.5265143 α      energy gain  -0.1374218E-01 Eh

generating ANC from exact Hessian ...
Using Lindh-Hessian (1995)
 Shifting diagonal of input Hessian by    9.8312452863465478E-003
 Lowest  eigenvalues of input Hessian
    0.000000    0.000000    0.000000    0.000000    0.000000    0.000000
    0.010000    0.010038    0.010169    0.010782    0.011141    0.011418
    0.011840    0.012731    0.013228    0.014082    0.014609    0.014940
 Highest eigenvalues
    1.848214    1.908102    1.956215    2.028282    2.148762    2.196384


........................................................................
.............................. CYCLE   21 ..............................
........................................................................

 iter      E             dE          RMSdq      gap      omega  full diag
   1    -70.1548603 -0.701549E+02  0.215E-02    2.57       0.0  T
   2    -70.1548605 -0.224401E-06  0.127E-02    2.57       1.1  T
   3    -70.1548605  0.742989E-07  0.211E-03    2.57       6.8  T
   4    -70.1548606 -0.143177E-06  0.789E-04    2.57      18.1  T
   5    -70.1548606 -0.464038E-08  0.526E-04    2.57      27.2  T
     SCC iter.                  ...        0 min,  0.013 sec
     gradient                   ...        0 min,  0.028 sec
 * total energy  :   -69.2106378 Eh     change       -0.5435237E-04 Eh
   gradient norm :     0.0034170 Eh/α   predicted     0.0000000E+00 (-100.00%)
   displ. norm   :     0.0478813 α      lambda       -0.5588387E-04
   maximum displ.:     0.0235425 α      in ANC's #8, #6, #4, ...

........................................................................
.............................. CYCLE   22 ..............................
........................................................................

 iter      E             dE          RMSdq      gap      omega  full diag
   1    -70.1554670 -0.701555E+02  0.123E-02    2.57       0.0  T
   2    -70.1554671 -0.113720E-06  0.721E-03    2.57       2.0  T
   3    -70.1554671  0.697148E-07  0.165E-03    2.57       8.6  T
   4    -70.1554672 -0.101847E-06  0.449E-04    2.57      31.9  T
   5    -70.1554672 -0.376062E-08  0.248E-04    2.57      57.6  T
     SCC iter.                  ...        0 min,  0.013 sec
     gradient                   ...        0 min,  0.028 sec
 * total energy  :   -69.2106840 Eh     change       -0.4613533E-04 Eh
   gradient norm :     0.0016443 Eh/α   predicted    -0.2801154E-04 ( -39.28%)
   displ. norm   :     0.2529724 α      lambda       -0.1229116E-03
   maximum displ.:     0.1256231 α      in ANC's #8, #6, #4, ...

........................................................................
.............................. CYCLE   23 ..............................
........................................................................

 iter      E             dE          RMSdq      gap      omega  full diag
   1    -70.1563607 -0.701564E+02  0.540E-02    2.58       0.0  T
   2    -70.1563628 -0.203410E-05  0.319E-02    2.57       1.0  T
   3    -70.1563598  0.292285E-05  0.908E-03    2.58       1.6  T
   4    -70.1563635 -0.365814E-05  0.201E-03    2.57       7.1  T
   5    -70.1563636 -0.839735E-07  0.112E-03    2.57      12.7  T
   6    -70.1563636 -0.145168E-07  0.535E-04    2.57      26.7  T
   7    -70.1563636 -0.486891E-08  0.263E-04    2.57      54.4  T
     SCC iter.                  ...        0 min,  0.063 sec
     gradient                   ...        0 min,  0.028 sec
 * total energy  :   -69.2107905 Eh     change       -0.1065543E-03 Eh
   gradient norm :     0.0042751 Eh/α   predicted    -0.6320715E-04 ( -40.68%)
   displ. norm   :     0.1351989 α      lambda       -0.6345529E-04
   maximum displ.:     0.0640184 α      in ANC's #8, #6, #4, ...

........................................................................
.............................. CYCLE   24 ..............................
........................................................................

 iter      E             dE          RMSdq      gap      omega  full diag
   1    -70.1560157 -0.701560E+02  0.276E-02    2.58       0.0  T
   2    -70.1560162 -0.497002E-06  0.163E-02    2.58       1.0  T
   3    -70.1560152  0.979199E-06  0.516E-03    2.58       2.8  T
   4    -70.1560164 -0.117410E-05  0.104E-03    2.58      13.7  T
   5    -70.1560164 -0.284933E-07  0.513E-04    2.58      27.8  T
   6    -70.1560164 -0.234540E-08  0.221E-04    2.58      64.6  T
     SCC iter.                  ...        0 min,  0.061 sec
     gradient                   ...        0 min,  0.028 sec
 * total energy  :   -69.2108462 Eh     change       -0.5564678E-04 Eh
   gradient norm :     0.0034303 Eh/α   predicted    -0.3230876E-04 ( -41.94%)
   displ. norm   :     0.3515214 α      lambda       -0.1389591E-03
   maximum displ.:     0.1577347 α      in ANC's #8, #6, #4, ...

........................................................................
.............................. CYCLE   25 ..............................
........................................................................

 iter      E             dE          RMSdq      gap      omega  full diag
   1    -70.1546929 -0.701547E+02  0.706E-02    2.58       0.0  T
   2    -70.1546960 -0.315085E-05  0.418E-02    2.58       1.0  T
   3    -70.1546907  0.534793E-05  0.123E-02    2.58       1.2  T
   4    -70.1546971 -0.639270E-05  0.269E-03    2.58       5.3  T
   5    -70.1546973 -0.208739E-06  0.124E-03    2.58      11.6  T
   6    -70.1546973 -0.104659E-07  0.519E-04    2.58      27.5  T
   7    -70.1546973 -0.646531E-08  0.166E-04    2.58      86.0  T
     SCC iter.                  ...        0 min,  0.051 sec
     gradient                   ...        0 min,  0.028 sec
 * total energy  :   -69.2109255 Eh     change       -0.7931456E-04 Eh
   gradient norm :     0.0027935 Eh/α   predicted    -0.7809771E-04 (  -1.53%)
   displ. norm   :     0.0655512 α      lambda       -0.2795740E-04
   maximum displ.:     0.0362811 α      in ANC's #4, #6, #2, ...

........................................................................
.............................. CYCLE   26 ..............................
........................................................................

 iter      E             dE          RMSdq      gap      omega  full diag
   1    -70.1553508 -0.701554E+02  0.116E-02    2.58       0.0  T
   2    -70.1553508 -0.476944E-07  0.689E-03    2.58       2.1  T
   3    -70.1553508  0.570478E-07  0.143E-03    2.58      10.0  T
   4    -70.1553508 -0.744359E-07  0.390E-04    2.58      36.7  T
   5    -70.1553508 -0.214041E-08  0.219E-04    2.58      65.1  T
     SCC iter.                  ...        0 min,  0.013 sec
     gradient                   ...        0 min,  0.073 sec
 * total energy  :   -69.2109502 Eh     change       -0.2468280E-04 Eh
   gradient norm :     0.0021318 Eh/α   predicted    -0.1407770E-04 ( -42.97%)
   displ. norm   :     0.1637986 α      lambda       -0.7425119E-04
   maximum displ.:     0.0908732 α      in ANC's #4, #6, #2, ...

........................................................................
.............................. CYCLE   27 ..............................
........................................................................

 iter      E             dE          RMSdq      gap      omega  full diag
   1    -70.1568692 -0.701569E+02  0.274E-02    2.57       0.0  T
   2    -70.1568696 -0.311542E-06  0.163E-02    2.57       1.0  T
   3    -70.1568692  0.395580E-06  0.340E-03    2.57       4.2  T
   4    -70.1568697 -0.532230E-06  0.866E-04    2.57      16.5  T
   5    -70.1568697 -0.525640E-08  0.516E-04    2.57      27.7  T
     SCC iter.                  ...        0 min,  0.013 sec
     gradient                   ...        0 min,  0.061 sec
 * total energy  :   -69.2110029 Eh     change       -0.5270560E-04 Eh
   gradient norm :     0.0019741 Eh/α   predicted    -0.3812851E-04 ( -27.66%)
   displ. norm   :     0.3330929 α      lambda       -0.5043187E-04
   maximum displ.:     0.1790630 α      in ANC's #4, #6, #3, ...

........................................................................
.............................. CYCLE   28 ..............................
........................................................................

 iter      E             dE          RMSdq      gap      omega  full diag
   1    -70.1566424 -0.701566E+02  0.585E-02    2.57       0.0  T
   2    -70.1566433 -0.928033E-06  0.349E-02    2.57       1.0  T
   3    -70.1566433  0.394794E-07  0.347E-03    2.57       4.1  T
   4    -70.1566436 -0.350500E-06  0.160E-03    2.57       8.9  T
   5    -70.1566437 -0.258208E-07  0.821E-04    2.57      17.4  T
   6    -70.1566437 -0.111087E-07  0.345E-04    2.57      41.4  T
     SCC iter.                  ...        0 min,  0.016 sec
     gradient                   ...        0 min,  0.028 sec
 * total energy  :   -69.2110558 Eh     change       -0.5294994E-04 Eh
   gradient norm :     0.0034867 Eh/α   predicted    -0.2647309E-04 ( -50.00%)
   displ. norm   :     0.1719883 α      lambda       -0.4307582E-04
   maximum displ.:     0.0941982 α      in ANC's #4, #2, #6, ...

........................................................................
.............................. CYCLE   29 ..............................
........................................................................

 iter      E             dE          RMSdq      gap      omega  full diag
   1    -70.1565840 -0.701566E+02  0.280E-02    2.57       0.0  T
   2    -70.1565843 -0.258814E-06  0.168E-02    2.57       1.0  T
   3    -70.1565841  0.190556E-06  0.268E-03    2.57       5.3  T
   4    -70.1565844 -0.283897E-06  0.929E-04    2.57      15.4  T
   5    -70.1565844 -0.127360E-07  0.450E-04    2.57      31.8  T
     SCC iter.                  ...        0 min,  0.013 sec
     gradient                   ...        0 min,  0.028 sec
 * total energy  :   -69.2110932 Eh     change       -0.3733888E-04 Eh
   gradient norm :     0.0029413 Eh/α   predicted    -0.2218039E-04 ( -40.60%)
   displ. norm   :     0.3591596 α      lambda       -0.8807570E-04
   maximum displ.:     0.1944055 α      in ANC's #4, #2, #3, ...

........................................................................
.............................. CYCLE   30 ..............................
........................................................................

 iter      E             dE          RMSdq      gap      omega  full diag
   1    -70.1557830 -0.701558E+02  0.594E-02    2.57       0.0  T
   2    -70.1557841 -0.111798E-05  0.356E-02    2.57       1.0  T
   3    -70.1557836  0.497932E-06  0.510E-03    2.57       2.8  T
   4    -70.1557845 -0.870852E-06  0.195E-03    2.57       7.3  T
   5    -70.1557845 -0.555350E-07  0.902E-04    2.57      15.8  T
   6    -70.1557845 -0.109389E-07  0.289E-04    2.57      49.5  T
     SCC iter.                  ...        0 min,  0.055 sec
     gradient                   ...        0 min,  0.028 sec
 * total energy  :   -69.2111546 Eh     change       -0.6147719E-04 Eh
   gradient norm :     0.0022771 Eh/α   predicted    -0.4972481E-04 ( -19.12%)
   displ. norm   :     0.2079788 α      lambda       -0.4632243E-04
   maximum displ.:     0.1061391 α      in ANC's #4, #2, #3, ...

........................................................................
.............................. CYCLE   31 ..............................
........................................................................

 iter      E             dE          RMSdq      gap      omega  full diag
   1    -70.1559583 -0.701560E+02  0.322E-02    2.57       0.0  T
   2    -70.1559587 -0.443715E-06  0.192E-02    2.57       1.0  T
   3    -70.1559583  0.433904E-06  0.396E-03    2.57       3.6  T
   4    -70.1559589 -0.583333E-06  0.119E-03    2.57      12.0  T
   5    -70.1559589 -0.234830E-07  0.596E-04    2.57      24.0  T
   6    -70.1559589 -0.372927E-08  0.241E-04    2.57      59.2  T
     SCC iter.                  ...        0 min,  0.016 sec
     gradient                   ...        0 min,  0.061 sec
 * total energy  :   -69.2111860 Eh     change       -0.3136809E-04 Eh
   gradient norm :     0.0020461 Eh/α   predicted    -0.2419096E-04 ( -22.88%)
   displ. norm   :     0.2012195 α      lambda       -0.3518556E-04
   maximum displ.:     0.0992623 α      in ANC's #4, #3, #2, ...

........................................................................
.............................. CYCLE   32 ..............................
........................................................................

 iter      E             dE          RMSdq      gap      omega  full diag
   1    -70.1556626 -0.701557E+02  0.335E-02    2.57       0.0  T
   2    -70.1556628 -0.276018E-06  0.200E-02    2.57       1.0  T
   3    -70.1556628  0.237266E-07  0.210E-03    2.57       6.8  T
   4    -70.1556629 -0.129339E-06  0.916E-04    2.57      15.6  T
   5    -70.1556630 -0.585295E-08  0.377E-04    2.57      37.9  T
     SCC iter.                  ...        0 min,  0.013 sec
     gradient                   ...        0 min,  0.028 sec
 * total energy  :   -69.2112112 Eh     change       -0.2520003E-04 Eh
   gradient norm :     0.0024221 Eh/α   predicted    -0.1830604E-04 ( -27.36%)
   displ. norm   :     0.1644945 α      lambda       -0.4874024E-04
   maximum displ.:     0.0775842 α      in ANC's #9, #1, #3, ...

........................................................................
.............................. CYCLE   33 ..............................
........................................................................

 iter      E             dE          RMSdq      gap      omega  full diag
   1    -70.1569756 -0.701570E+02  0.289E-02    2.58       0.0  T
   2    -70.1569760 -0.362628E-06  0.170E-02    2.58       1.0  T
   3    -70.1569759  0.109457E-06  0.227E-03    2.58       6.3  T
   4    -70.1569761 -0.201916E-06  0.843E-04    2.58      16.9  T
   5    -70.1569761 -0.139004E-07  0.477E-04    2.58      30.0  T
     SCC iter.                  ...        0 min,  0.013 sec
     gradient                   ...        0 min,  0.028 sec
 * total energy  :   -69.2112365 Eh     change       -0.2531219E-04 Eh
   gradient norm :     0.0024653 Eh/α   predicted    -0.2503173E-04 (  -1.11%)
   displ. norm   :     0.1358583 α      lambda       -0.2214305E-04
   maximum displ.:     0.0637420 α      in ANC's #4, #1, #3, ...

........................................................................
.............................. CYCLE   34 ..............................
........................................................................

 iter      E             dE          RMSdq      gap      omega  full diag
   1    -70.1563886 -0.701564E+02  0.233E-02    2.58       0.0  T
   2    -70.1563889 -0.240498E-06  0.139E-02    2.58       1.0  T
   3    -70.1563888  0.957912E-07  0.210E-03    2.58       6.8  T
   4    -70.1563889 -0.151089E-06  0.777E-04    2.58      18.4  T
   5    -70.1563890 -0.133744E-07  0.408E-04    2.58      35.0  T
     SCC iter.                  ...        0 min,  0.052 sec
     gradient                   ...        0 min,  0.028 sec
 * total energy  :   -69.2112509 Eh     change       -0.1443297E-04 Eh
   gradient norm :     0.0016952 Eh/α   predicted    -0.1127946E-04 ( -21.85%)
   displ. norm   :     0.0892324 α      lambda       -0.1523327E-04
   maximum displ.:     0.0454625 α      in ANC's #1, #9, #3, ...

........................................................................
.............................. CYCLE   35 ..............................
........................................................................

 iter      E             dE          RMSdq      gap      omega  full diag
   1    -70.1566036 -0.701566E+02  0.152E-02    2.57       0.0  T
   2    -70.1566037 -0.131891E-06  0.896E-03    2.57       1.6  T
   3    -70.1566035  0.197744E-06  0.261E-03    2.57       5.5  T
   4    -70.1566038 -0.245545E-06  0.612E-04    2.57      23.3  T
   5    -70.1566038 -0.749991E-08  0.354E-04    2.57      40.4  T
     SCC iter.                  ...        0 min,  0.013 sec
     gradient                   ...        0 min,  0.067 sec
 * total energy  :   -69.2112647 Eh     change       -0.1376062E-04 Eh
   gradient norm :     0.0013298 Eh/α   predicted    -0.7648018E-05 ( -44.42%)
   displ. norm   :     0.0626656 α      lambda       -0.6849291E-05
   maximum displ.:     0.0350827 α      in ANC's #1, #3, #4, ...

........................................................................
.............................. CYCLE   36 ..............................
........................................................................

 iter      E             dE          RMSdq      gap      omega  full diag
   1    -70.1565592 -0.701566E+02  0.104E-02    2.57       0.0  T
   2    -70.1565593 -0.347940E-07  0.614E-03    2.57       2.3  T
   3    -70.1565592  0.197947E-07  0.898E-04    2.57      15.9  T
   4    -70.1565593 -0.314875E-07  0.317E-04    2.57      45.1  T
     SCC iter.                  ...        0 min,  0.013 sec
     gradient                   ...        0 min,  0.061 sec
 * total energy  :   -69.2112724 Eh     change       -0.7743736E-05 Eh
   gradient norm :     0.0009288 Eh/α   predicted    -0.3431182E-05 ( -55.69%)
   displ. norm   :     0.0997248 α      lambda       -0.7142098E-05
   maximum displ.:     0.0572573 α      in ANC's #1, #3, #4, ...

........................................................................
.............................. CYCLE   37 ..............................
........................................................................

 iter      E             dE          RMSdq      gap      omega  full diag
   1    -70.1566791 -0.701567E+02  0.164E-02    2.57       0.0  T
   2    -70.1566792 -0.573206E-07  0.968E-03    2.57       1.5  T
   3    -70.1566792  0.648531E-08  0.846E-04    2.57      16.9  T
   4    -70.1566792 -0.260132E-07  0.413E-04    2.57      34.6  T
     SCC iter.                  ...        0 min,  0.011 sec
     gradient                   ...        0 min,  0.028 sec
 * total energy  :   -69.2112802 Eh     change       -0.7760126E-05 Eh
   gradient norm :     0.0007595 Eh/α   predicted    -0.3587898E-05 ( -53.76%)
   displ. norm   :     0.0842753 α      lambda       -0.4503974E-05
   maximum displ.:     0.0514948 α      in ANC's #1, #3, #4, ...

........................................................................
.............................. CYCLE   38 ..............................
........................................................................

 iter      E             dE          RMSdq      gap      omega  full diag
   1    -70.1567722 -0.701568E+02  0.134E-02    2.57       0.0  T
   2    -70.1567722 -0.351985E-07  0.792E-03    2.57       1.8  T
   3    -70.1567722  0.144671E-07  0.813E-04    2.57      17.6  T
   4    -70.1567722 -0.290732E-07  0.320E-04    2.57      44.6  T
     SCC iter.                  ...        0 min,  0.011 sec
     gradient                   ...        0 min,  0.028 sec
 * total energy  :   -69.2112852 Eh     change       -0.5006581E-05 Eh
   gradient norm :     0.0006600 Eh/α   predicted    -0.2259454E-05 ( -54.87%)
   displ. norm   :     0.0622836 α      lambda       -0.3395155E-05
   maximum displ.:     0.0406606 α      in ANC's #1, #3, #11, ...

........................................................................
.............................. CYCLE   39 ..............................
........................................................................

 iter      E             dE          RMSdq      gap      omega  full diag
   1    -70.1569507 -0.701570E+02  0.977E-03    2.57       0.0  T
   2    -70.1569508 -0.197857E-07  0.576E-03    2.57       2.5  T
   3    -70.1569508 -0.115097E-08  0.441E-04    2.57      32.4  T
   4    -70.1569508 -0.558246E-08  0.214E-04    2.57      66.6  T
     SCC iter.                  ...        0 min,  0.011 sec
     gradient                   ...        0 min,  0.055 sec
 * total energy  :   -69.2112891 Eh     change       -0.3871889E-05 Eh
   gradient norm :     0.0005774 Eh/α   predicted    -0.1703782E-05 ( -56.00%)
   displ. norm   :     0.0567821 α      lambda       -0.3134571E-05
   maximum displ.:     0.0384147 α      in ANC's #1, #3, #11, ...

   *** GEOMETRY OPTIMIZATION CONVERGED AFTER 39 ITERATIONS ***

------------------------------------------------------------------------
 total energy gain   :        -0.0144478 Eh       -9.0661 kcal/mol
 total RMSD          :         0.8066915 a0        0.4269 Å
 total power (kW/mol):        -0.9726328 (step)  -10.2064 (real)
------------------------------------------------------------------------

 ANCopt (total)                0 d,  0 h,  0 min,  3.717 sec
 optimizer setup                ...        0 min,  0.000 sec (  0.002%)
 model hessian                  ...        0 min,  0.089 sec (  2.406%)
 ANC generation                 ...        0 min,  0.004 sec (  0.113%)
 coordinate transformation      ...        0 min,  0.001 sec (  0.016%)
 single point calculation       ...        0 min,  3.611 sec ( 97.144%)
 optimization log               ...        0 min,  0.006 sec (  0.165%)
 hessian update                 ...        0 min,  0.001 sec (  0.020%)
 rational function              ...        0 min,  0.003 sec (  0.092%)

================
 final structure:
================
49
 xtb: 6.7.1 (edcfbbe)
C            0.77188698674742        0.72153060809213        1.93598321727382
C            0.81307401665372        0.57232730990530        0.41263732284795
N            2.11193156431652        0.11108179253350       -0.02931989056808
C            3.22929177063500        0.87296815394686       -0.15172073917349
C            3.22109958309795        2.25361619533468       -0.00199007225597
C            4.40117539422164        2.97347657971414       -0.17496494065444
N            5.56048469590678        2.44655266106466       -0.47071673965931
C            5.61466598828879        1.11098959852211       -0.63213151548807
C            4.48113089079882        0.26134534076689       -0.49258718769101
C            4.65622012252556       -1.11938510260196       -0.70348944136466
C            5.87801673286565       -1.64594865027206       -1.02394605703229
C            6.98631660832446       -0.79728763667103       -1.14666029057919
Cl           8.51961723435496       -1.48926493804286       -1.54807788046013
C            6.86738685906583        0.55035967284939       -0.95902003663824
C           -0.23577972865350       -0.41993009755845       -0.10196830383426
C           -1.66318676878008        0.10496607125751        0.01905830389649
C           -2.67417711055274       -0.88891488060221       -0.56050380263548
N           -4.02961726721770       -0.38520744603501       -0.42368869730880
C           -4.92761619770918       -0.77417111640393       -1.49563213874406
C           -5.13625673630933       -2.28177052217103       -1.67788285249749
C           -4.59842202734075       -0.53307715928768        0.90890222840759
C           -5.26500707861333        0.78663150155555        1.32083705387238
O           -4.36570200414535        1.85789674995484        1.20762723356118
H           -0.16332090284913        1.17271081795083        2.25324682090608
H            0.87404456902696       -0.25058932006636        2.41428562249677
H            1.58995974513626        1.35563949062345        2.26979170619839
H            0.62566558792543        1.54558864390774       -0.05304098613233
H            2.24912400898648       -0.88423677883359        0.03859811465707
H            2.31872191628962        2.78337291142275        0.25424981602788
H            4.39399931162698        4.04974011388857       -0.05372297107949
H            3.81765109992090       -1.79696602421069       -0.62603308260834
H            5.99827571607207       -2.70562118120146       -1.18523796911795
H            7.70870203997664        1.21674660035321       -1.05585464083120
H           -0.02297305244181       -0.62803031164254       -1.15385684562034
H           -0.14477240033475       -1.35939409627416        0.45022475519976
H           -1.90113032344161        0.29739266510526        1.06484700512783
H           -1.75026976916383        1.04900539867597       -0.52221874658498
H           -2.46595106870220       -1.01517574122894       -1.62564372741892
H           -2.54359589677364       -1.86942539203081       -0.07428854080713
H           -4.52989519142346       -0.35358298448988       -2.42475489683959
H           -5.89189985735109       -0.29797283092628       -1.30229433120188
H           -4.20359183498852       -2.77229186485460       -1.94551604282733
H           -5.85793540189515       -2.45712363618526       -2.47094427313056
H           -5.51460291278196       -2.73607160941897       -0.76505325031056
H           -3.79795087456965       -0.75207403336122        1.61733394871557
H           -5.33375279467111       -1.34497670329460        0.96763018559753
H           -6.15018497404669        0.96783811521637        0.69308302340880
H           -5.58345870485394        0.74526534301197        2.36456576084745
H           -3.93719156315007        1.75144772201647        0.34645877206117

 Bond Distances (Angstroems)
 ---------------------------
C1-C2=1.5312         C1-H24=1.0857        C1-H25=1.0882        C1-H26=1.0876        C2-C1=1.5312         C2-N3=1.4474         
C2-C15=1.5328        C2-H27=1.0951        N3-C2=1.4474         N3-C4=1.3579         N3-H28=1.0070        C4-N3=1.3579         
C4-C5=1.3888         C4-C9=1.4344         C5-C4=1.3888         C5-C6=1.3931         C5-H29=1.0773        C6-C5=1.3931         
C6-N7=1.3073         C6-H30=1.0831        N7-C6=1.3073         N7-C8=1.3464         C8-N7=1.3464         C8-C9=1.4235         
C8-C14=1.4108        C9-C4=1.4344         C9-C8=1.4235         C9-C10=1.4077        C10-C9=1.4077        C10-C11=1.3685       
C10-H31=1.0809       C11-C10=1.3685       C11-C12=1.4013       C11-H32=1.0786       C12-C11=1.4013       C12-Cl13=1.7294      
C12-C14=1.3658       Cl13-C12=1.7294      C14-C8=1.4108        C14-C12=1.3658       C14-H33=1.0776       C15-C2=1.5328        
C15-C16=1.5257       C15-H34=1.0932       C15-H35=1.0935       C16-C15=1.5257       C16-C17=1.5316       C16-H36=1.0896       
C16-H37=1.0917       C17-C16=1.5316       C17-N18=1.4525       C17-H38=1.0926       C17-H39=1.1022       N18-C17=1.4525       
N18-C19=1.4515       N18-C21=1.4564       C19-N18=1.4515       C19-C20=1.5328       C19-H40=1.0947       C19-H41=1.0927       
C20-C19=1.5328       C20-H42=1.0872       C20-H43=1.0865       C20-H44=1.0876       C21-N18=1.4564       C21-C22=1.5348       
C21-H45=1.0911       C21-H46=1.0970       C22-C21=1.5348       C22-O23=1.4033       C22-H47=1.1002       C22-H48=1.0920       
O23-C22=1.4033       O23-H49=0.9678       H24-C1=1.0857        H25-C1=1.0882        H26-C1=1.0876        H27-C2=1.0951        
H28-N3=1.0070        H29-C5=1.0773        H30-C6=1.0831        H31-C10=1.0809       H32-C11=1.0786       H33-C14=1.0776       
H34-C15=1.0932       H35-C15=1.0935       H36-C16=1.0896       H37-C16=1.0917       H38-C17=1.0926       H39-C17=1.1022       
H40-C19=1.0947       H41-C19=1.0927       H42-C20=1.0872       H43-C20=1.0865       H44-C20=1.0876       H45-C21=1.0911       
H46-C21=1.0970       H47-C22=1.1002       H48-C22=1.0920       H49-O23=0.9678       
 C  H  Rav=1.0894 sigma=0.0065  Rmin=1.0773  Rmax=1.1022    24
 C  C  Rav=1.4522 sigma=0.0669  Rmin=1.3658  Rmax=1.5348    15
 N  H  Rav=1.0070 sigma=0.0000  Rmin=1.0070  Rmax=1.0070     1
 N  C  Rav=1.4028 sigma=0.0586  Rmin=1.3073  Rmax=1.4564     7
 O  H  Rav=0.9678 sigma=0.0000  Rmin=0.9678  Rmax=0.9678     1
 O  C  Rav=1.4033 sigma=0.0000  Rmin=1.4033  Rmax=1.4033     1
 Cl C  Rav=1.7294 sigma=0.0000  Rmin=1.7294  Rmax=1.7294     1

 selected bond angles (degree)
 --------------------
H24-C1-C2=110.76               H25-C1-C2=110.35               H25-C1-H24=108.88              H26-C1-C2=110.00               
H26-C1-H24=108.42              H26-C1-H25=108.38              N3-C2-C1=111.04                C15-C2-C1=112.25               
C15-C2-N3=107.77               H27-C2-C1=109.38               H27-C2-N3=107.87               H27-C2-C15=108.39              
C4-N3-C2=125.95                H28-N3-C2=114.62               H28-N3-C4=116.65               C5-C4-N3=122.90                
C9-C4-N3=120.02                C9-C4-C5=117.04                C6-C5-C4=119.69                H29-C5-C4=121.30               
H29-C5-C6=119.01               N7-C6-C5=124.82                H30-C6-C5=119.60               H30-C6-N7=115.58               
C8-N7-C6=117.56                C9-C8-N7=123.25                C14-C8-N7=117.24               C14-C8-C9=119.51               
C8-C9-C4=117.63                C10-C9-C4=124.22               C10-C9-C8=118.15               C11-C10-C9=121.57              
H31-C10-C9=120.51              H31-C10-C11=117.92             

 selected dihedral angles (degree)
 ---------------------------------
N3-C2-C1-H24=173.61           N3-C2-C1-H25=294.26           N3-C2-C1-H26= 53.78           C15-C2-C1-H24=294.32          
C15-C2-C1-H25= 54.97          C15-C2-C1-H26=174.49          H27-C2-C1-H24= 54.67          H27-C2-C1-H25=175.32          
H27-C2-C1-H26=294.84          C4-N3-C2-C1=281.73            C4-N3-C2-C15=158.41           C4-N3-C2-H27= 41.57           
H28-N3-C2-C1= 82.10           H28-N3-C2-C15=318.78          H28-N3-C2-H27=201.94          C5-C4-N3-C2=352.56            
C5-C4-N3-H28=192.55           C9-C4-N3-C2=174.66            C9-C4-N3-H28= 14.64           C6-C5-C4-N3=181.60            
C6-C5-C4-C9=359.57            H29-C5-C4-N3=  2.10           H29-C5-C4-C9=180.06           N7-C6-C5-C4=359.66            
N7-C6-C5-H29=179.18           H30-C6-C5-C4=180.26           H30-C6-C5-H29=359.77          C8-N7-C6-C5=  0.65            
C8-N7-C6-H30=180.08           C9-C8-N7-C6=359.81            C14-C8-N7-C6=179.63           C8-C9-C4-N3=178.85            
C8-C9-C4-C5=  0.83            C10-C9-C4-N3=359.19           C10-C9-C4-C5=181.17           C4-C9-C8-N7=359.45            
C4-C9-C8-C14=179.64           C10-C9-C8-N7=179.13           C10-C9-C8-C14=359.32          C11-C10-C9-C4=180.16          
C11-C10-C9-C8=  0.50          H31-C10-C9-C4=  0.83          H31-C10-C9-C8=181.17          
           -------------------------------------------------
          |                Final Singlepoint                |
           -------------------------------------------------

          ...................................................
          :                      SETUP                      :
          :.................................................:
          :  # basis functions                 124          :
          :  # atomic orbitals                 123          :
          :  # shells                           73          :
          :  # electrons                       126          :
          :  max. iterations                   250          :
          :  Hamiltonian                  GFN2-xTB          :
          :  restarted?                      false          :
          :  GBSA solvation                  false          :
          :  PC potential                    false          :
          :  electronic temp.          300.0000000     K    :
          :  accuracy                    1.0000000          :
          :  -> integral cutoff          0.2500000E+02      :
          :  -> integral neglect         0.1000000E-07      :
          :  -> SCF convergence          0.1000000E-05 Eh   :
          :  -> wf. convergence          0.1000000E-03 e    :
          :  Broyden damping             0.4000000          :
          :  net charge                          0          :
          :  unpaired electrons                  0          :
          ...................................................

 iter      E             dE          RMSdq      gap      omega  full diag
   1    -70.1569508 -0.701570E+02  0.109E-04    2.57       0.0  T
   2    -70.1569508 -0.995470E-10  0.759E-05    2.57     188.2  T
   3    -70.1569508 -0.134875E-09  0.475E-05    2.57     300.8  T

   *** convergence criteria satisfied after 3 iterations ***

         #    Occupation            Energy/Eh            Energy/eV
      -------------------------------------------------------------
         1        2.0000           -1.0497009             -28.5638
       ...           ...                  ...                  ...
        57        2.0000           -0.4118904             -11.2081
        58        2.0000           -0.4108927             -11.1810
        59        2.0000           -0.4097282             -11.1493
        60        2.0000           -0.3936900             -10.7128
        61        2.0000           -0.3682726             -10.0212
        62        2.0000           -0.3596456              -9.7865
        63        2.0000           -0.3584336              -9.7535 (HOMO)
        64                         -0.2638940              -7.1809 (LUMO)
        65                         -0.2355066              -6.4085
        66                         -0.1972605              -5.3677
        67                         -0.1520981              -4.1388
        68                         -0.1316990              -3.5837
       ...                                ...                  ...
       123                          0.6836446              18.6029
      -------------------------------------------------------------
                  HL-Gap            0.0945396 Eh            2.5726 eV
             Fermi-level           -0.3111638 Eh           -8.4672 eV

 SCC (total)                   0 d,  0 h,  0 min,  0.045 sec
 SCC setup                      ...        0 min,  0.000 sec (  0.828%)
 Dispersion                     ...        0 min,  0.000 sec (  0.901%)
 classical contributions        ...        0 min,  0.000 sec (  0.418%)
 integral evaluation            ...        0 min,  0.008 sec ( 18.012%)
 iterations                     ...        0 min,  0.008 sec ( 18.026%)
 molecular gradient             ...        0 min,  0.028 sec ( 61.321%)
 printout                       ...        0 min,  0.000 sec (  0.478%)

         :::::::::::::::::::::::::::::::::::::::::::::::::::::
         ::                     SUMMARY                     ::
         :::::::::::::::::::::::::::::::::::::::::::::::::::::
         :: total energy             -69.211289087828 Eh    ::
         :: gradient norm              0.000577195788 Eh/a0 ::
         :: HOMO-LUMO gap              2.572552308948 eV    ::
         ::.................................................::
         :: SCC energy               -70.157067879046 Eh    ::
         :: -> isotropic ES            0.053168780437 Eh    ::
         :: -> anisotropic ES          0.009457893965 Eh    ::
         :: -> anisotropic XC          0.037515457637 Eh    ::
         :: -> dispersion             -0.048264089436 Eh    ::
         :: repulsion energy           0.945778791218 Eh    ::
         :: add. restraining           0.000000000000 Eh    ::
         :: total charge              -0.000000000000 e     ::
         :::::::::::::::::::::::::::::::::::::::::::::::::::::

           -------------------------------------------------
          |                Property Printout                |
           -------------------------------------------------

    * Orbital Energies and Occupations

         #    Occupation            Energy/Eh            Energy/eV
      -------------------------------------------------------------
         1        2.0000           -1.0497009             -28.5638
       ...           ...                  ...                  ...
        51        2.0000           -0.4506653             -12.2632
        52        2.0000           -0.4458422             -12.1320
        53        2.0000           -0.4432801             -12.0623
        54        2.0000           -0.4395150             -11.9598
        55        2.0000           -0.4363995             -11.8750
        56        2.0000           -0.4297631             -11.6944
        57        2.0000           -0.4118904             -11.2081
        58        2.0000           -0.4108927             -11.1810
        59        2.0000           -0.4097282             -11.1493
        60        2.0000           -0.3936900             -10.7128
        61        2.0000           -0.3682726             -10.0212
        62        2.0000           -0.3596456              -9.7865
        63        2.0000           -0.3584336              -9.7535 (HOMO)
        64                         -0.2638940              -7.1809 (LUMO)
        65                         -0.2355066              -6.4085
        66                         -0.1972605              -5.3677
        67                         -0.1520981              -4.1388
        68                         -0.1316990              -3.5837
        69                         -0.0670888              -1.8256
        70                         -0.0239345              -0.6513
        71                          0.0029635               0.0806
        72                          0.0219341               0.5969
        73                          0.0267677               0.7284
        74                          0.0268645               0.7310
       ...                                ...                  ...
       123                          0.6836446              18.6029
      -------------------------------------------------------------
                  HL-Gap            0.0945396 Eh            2.5726 eV
             Fermi-level           -0.3111638 Eh           -8.4672 eV

     #   Z          covCN         q      C6AA      α(0)
     1   6 C        3.754    -0.117    22.791     6.808
     2   6 C        3.786     0.044    19.847     6.345
     3   7 N        2.695    -0.172    24.718     7.384
     4   6 C        2.901     0.083    26.139     8.383
     5   6 C        2.913    -0.083    30.068     8.992
     6   6 C        2.906     0.064    26.574     8.453
     7   7 N        1.843    -0.256    27.506     7.773
     8   6 C        2.981     0.093    25.928     8.353
     9   6 C        2.983    -0.028    28.689     8.786
    10   6 C        2.919    -0.036    28.904     8.816
    11   6 C        2.951    -0.046    29.134     8.853
    12   6 C        2.885     0.098    25.831     8.332
    13  17 Cl       0.969    -0.182   104.866    15.667
    14   6 C        2.962    -0.052    29.293     8.877
    15   6 C        3.808    -0.068    21.804     6.647
    16   6 C        3.803    -0.069    21.828     6.652
    17   6 C        3.749     0.010    20.477     6.454
    18   7 N        2.728    -0.187    25.056     7.434
    19   6 C        3.749     0.006    20.545     6.465
    20   6 C        3.750    -0.110    22.665     6.790
    21   6 C        3.748    -0.005    20.732     6.494
    22   6 C        3.676     0.074    19.558     6.336
    23   8 O        1.655    -0.446    21.763     6.298
    24   1 H        0.925     0.050     2.317     2.380
    25   1 H        0.925     0.040     2.451     2.448
    26   1 H        0.925     0.046     2.365     2.405
    27   1 H        0.924     0.049     2.330     2.387
    28   1 H        0.860     0.162     1.321     1.800
    29   1 H        0.926     0.029     2.602     2.522
    30   1 H        0.925     0.034     2.529     2.487
    31   1 H        0.926     0.031     2.570     2.507
    32   1 H        0.926     0.052     2.295     2.369
    33   1 H        0.926     0.073     2.055     2.242
    34   1 H        0.924     0.040     2.442     2.444
    35   1 H        0.924     0.035     2.516     2.480
    36   1 H        0.925     0.051     2.304     2.374
    37   1 H        0.924     0.040     2.447     2.446
    38   1 H        0.924     0.035     2.511     2.478
    39   1 H        0.923     0.012     2.851     2.641
    40   1 H        0.924     0.033     2.539     2.492
    41   1 H        0.924     0.038     2.481     2.463
    42   1 H        0.925     0.034     2.526     2.485
    43   1 H        0.925     0.037     2.492     2.469
    44   1 H        0.925     0.034     2.537     2.491
    45   1 H        0.924     0.042     2.418     2.432
    46   1 H        0.924     0.021     2.726     2.582
    47   1 H        0.923     0.019     2.745     2.591
    48   1 H        0.924     0.044     2.402     2.423
    49   1 H        0.805     0.302     0.715     1.328

 Mol. C6AA /au·bohr⁶  :      25106.428835
 Mol. C8AA /au·bohr⁸  :     598027.515217
 Mol. α(0) /au        :        243.557629


Wiberg/Mayer (AO) data.
largest (>0.10) Wiberg bond orders for each atom

 ---------------------------------------------------------------------------
     #   Z sym  total        # sym  WBO       # sym  WBO       # sym  WBO
 ---------------------------------------------------------------------------
     1   6 C    3.991 --     2 C    0.996    25 H    0.986    26 H    0.984
                            24 H    0.982
     2   6 C    3.973 --     1 C    0.996    15 C    0.991     3 N    0.988
                            27 H    0.957
     3   7 N    3.407 --     4 C    1.220     2 C    0.988    28 H    0.932
     4   6 C    3.970 --     5 C    1.392     3 N    1.220     9 C    1.188
     5   6 C    3.978 --     4 C    1.392     6 C    1.369    29 H    0.965
     6   6 C    3.982 --     7 N    1.502     5 C    1.369    30 H    0.963
     7   7 N    3.047 --     6 C    1.502     8 C    1.283
     8   6 C    3.983 --     7 N    1.283    14 C    1.269     9 C    1.246
     9   6 C    3.986 --    10 C    1.306     8 C    1.246     4 C    1.188
    10   6 C    3.992 --    11 C    1.537     9 C    1.306    31 H    0.959
                            14 C    0.111
    11   6 C    3.987 --    10 C    1.537    12 C    1.302    32 H    0.968
    12   6 C    3.916 --    14 C    1.512    11 C    1.302    13 Cl   0.969
    13  17 Cl   1.100 --    12 C    0.969
    14   6 C    3.986 --    12 C    1.512     8 C    1.269    33 H    0.963
                            10 C    0.111
    15   6 C    3.995 --    16 C    1.007     2 C    0.991    34 H    0.975
                            35 H    0.975
    16   6 C    3.995 --    15 C    1.007    17 C    0.999    37 H    0.976
                            36 H    0.970
    17   6 C    3.987 --    18 N    1.003    16 C    0.999    38 H    0.972
                            39 H    0.967
    18   7 N    3.147 --    19 C    1.005    21 C    1.004    17 C    1.003
    19   6 C    3.986 --    18 N    1.005    20 C    1.004    40 H    0.973
                            41 H    0.972
    20   6 C    3.997 --    19 C    1.004    42 H    0.987    43 H    0.986
                            44 H    0.984
    21   6 C    3.987 --    18 N    1.004    22 C    0.988    45 H    0.971
[...]
     DOI: 10.1063/1.4959605
   
   in the mass-spec context:
   * V. Asgeirsson, C. Bauer and S. Grimme, Chem. Sci., 2017, 8, 4879.
     DOI: 10.1039/c7sc00601b
   * J. Koopman and S. Grimme, ACS Omega 2019, 4, 12, 15120-15133.
     DOI: 10.1021/acsomega.9b02011
   
   for metadynamics refer to:
   * S. Grimme, J. Chem. Theory Comput., 2019, 155, 2847-2862
     DOI: 10.1021/acs.jctc.9b00143
   
   for SPH calculations refer to:
   * S. Spicher and S. Grimme, J. Chem. Theory Comput., 2021, 17, 1701-1714
     DOI: 10.1021/acs.jctc.0c01306
   
   for ONIOM refer to:
   * C. Plett, A. Katbashev, S. Ehlert, S. Grimme, M. Bursch,
     Phys. Chem. Chem. Phys., 2023, 25, 17860-17868. DOI: 10.1039/D3CP02178E
   
   for DIPRO refer to:
   * J. Kohn, N. Gildemeister, S. Grimme, D. Fazzi, A. Hansen,
     J. Chem. Phys., 2023, just accepted.
   
   for PTB refer to:
   * S. Grimme, M. Mueller, A. Hansen, J. Chem. Phys., 2023, 158, 124111.
     DOI: 10.1063/5.0137838
   
   with help from (in alphabetical order)
   P. Atkinson, C. Bannwarth, F. Bohle, G. Brandenburg, E. Caldeweyher
   M. Checinski, S. Dohm, S. Ehlert, S. Ehrlich, I. Gerasimov, C. Hölzer
   A. Katbashev, J. Kohn, J. Koopman, C. Lavigne, S. Lehtola, F. März, M. Müller,
   F. Musil, H. Neugebauer, J. Pisarek, C. Plett, P. Pracht, F. Pultar,
   J. Seibert, P. Shushkov, S. Spicher, M. Stahn, M. Steiner, T. Strunk,
   J. Stückrath, T. Rose, and J. Unsleber
   
 * started run on 2025/05/15 at 16:11:24.506     
   ID    Z sym.   atoms
    1    6 C      1, 2, 4-6, 8-12, 14-17, 19-22
    2    7 N      3, 7, 18
    3   17 Cl     13
    4    8 O      23
    5    1 H      24-49

           -------------------------------------------------
          |                Calculation Setup                |
           -------------------------------------------------

          program call               : xtb /rds/general/user/hgt20/home/callum/QDESCP/Hydroxychloroquine_rdkit_conf_11/Hydroxychloroquine_rdkit_conf_11.xyz --acc 1 --gfn 2 --chrg 0 --uhf 2 --etemp 300 --input /rds/general/user/hgt20/home/callum/QDESCP/Hydroxychloroquine_rdkit_conf_11/Hydroxychloroquine_rdkit_conf_11_xtb.inp -P 1
          hostname                   : login-c
          coordinate file            : /rds/general/user/hgt20/home/callum/QDESCP/Hydroxychloroquine_rdkit_conf_11/Hydroxychloroquine_rdkit_conf_11.xyz
          omp threads                :                     1


           -------------------------------------------------
          |                 G F N 2 - x T B                 |
           -------------------------------------------------

        Reference                      10.1021/acs.jctc.8b01176
      * Hamiltonian:
        H0-scaling (s, p, d)           1.850000    2.230000    2.230000
        zeta-weighting                 0.500000
      * Dispersion:
        s8                             2.700000
        a1                             0.520000
        a2                             5.000000
        s9                             5.000000
      * Repulsion:
        kExp                           1.500000    1.000000
        rExp                           1.000000
      * Coulomb:
        alpha                          2.000000
        third order                    shell-resolved
        anisotropic                    true
        a3                             3.000000
        a5                             4.000000
        cn-shift                       1.200000
        cn-exp                         4.000000
        max-rad                        5.000000


          ...................................................
          :                      SETUP                      :
          :.................................................:
          :  # basis functions                 124          :
          :  # atomic orbitals                 123          :
          :  # shells                           73          :
          :  # electrons                       126          :
          :  max. iterations                   250          :
          :  Hamiltonian                  GFN2-xTB          :
          :  restarted?                      false          :
          :  GBSA solvation                  false          :
          :  PC potential                    false          :
          :  electronic temp.          300.0000000     K    :
          :  accuracy                    1.0000000          :
          :  -> integral cutoff          0.2500000E+02      :
          :  -> integral neglect         0.1000000E-07      :
          :  -> SCF convergence          0.1000000E-05 Eh   :
          :  -> wf. convergence          0.1000000E-03 e    :
          :  Broyden damping             0.4000000          :
          :  net charge                          0          :
          :  unpaired electrons                  2          :
          ...................................................

 iter      E             dE          RMSdq      gap      omega  full diag
   1    -69.8695755 -0.698696E+02  0.356E+00    0.48       0.0  T
   2    -69.9178106 -0.482352E-01  0.249E+00    0.87       1.0  T
   3    -69.9394024 -0.215918E-01  0.188E+00    0.67       1.0  T
   4    -70.0191430 -0.797406E-01  0.909E-01    0.74       1.0  T
   5    -70.0192451 -0.102143E-03  0.647E-01    0.71       1.0  T
   6    -70.0407776 -0.215325E-01  0.414E-01    0.70       1.0  T
   7    -70.0480317 -0.725409E-02  0.176E-01    0.69       1.0  T
   8    -70.0470457  0.986022E-03  0.185E-01    0.70       1.0  T
   9    -70.0476576 -0.611904E-03  0.198E-01    0.70       1.0  T
  10    -70.0476916 -0.340456E-04  0.130E-01    0.70       1.0  T
  11    -70.0485018 -0.810150E-03  0.100E-01    0.70       1.0  T
  12    -70.0491323 -0.630494E-03  0.441E-02    0.70       1.0  T
  13    -70.0491670 -0.347313E-04  0.421E-02    0.70       1.0  T
  14    -70.0492877 -0.120708E-03  0.882E-03    0.70       1.6  T
  15    -70.0492828  0.493779E-05  0.113E-02    0.70       1.3  T
  16    -70.0492928 -0.999246E-05  0.604E-03    0.70       2.4  T
  17    -70.0492948 -0.205885E-05  0.173E-03    0.70       8.3  T
  18    -70.0492949 -0.501701E-07  0.188E-03    0.70       7.6  T
  19    -70.0492951 -0.221603E-06  0.413E-04    0.70      34.6  T
  20    -70.0492951  0.208766E-07  0.652E-04    0.70      21.9  T

   *** convergence criteria satisfied after 20 iterations ***

         #    Occupation            Energy/Eh            Energy/eV
      -------------------------------------------------------------
         1        2.0000           -1.0386787             -28.2639
       ...           ...                  ...                  ...
        58        2.0000           -0.4020175             -10.9395
        59        2.0000           -0.4003216             -10.8933
        60        2.0000           -0.3823848             -10.4052
        61        1.9686           -0.3708618             -10.0917
        62        1.7688           -0.3687443             -10.0340
        63        1.2626           -0.3666219              -9.9763
        64        1.0000           -0.2527227              -6.8769 (HOMO)
        65        0.0000           -0.2270070              -6.1772 (LUMO)
        66                         -0.1879393              -5.1141
        67                         -0.1424060              -3.8751
        68                         -0.1190572              -3.2397
        69                         -0.0583620              -1.5881
       ...                                ...                  ...
       123                          0.6935132              18.8715
      -------------------------------------------------------------
                  HL-Gap            0.0257158 Eh            0.6998 eV
             Fermi-level           -0.3037339 Eh           -8.2650 eV

 transition dipole moment (au) for excitation:          63          64
     X       Y       Z   
  -1.4656  -0.8555   0.1970  total (au/Debye):    1.708   4.343
 dE (eV)             :    3.099
 oscillator strength :  0.31343E+00

 SCC (total)                   0 d,  0 h,  0 min,  0.126 sec
 SCC setup                      ...        0 min,  0.000 sec (  0.338%)
 Dispersion                     ...        0 min,  0.001 sec (  0.454%)
 classical contributions        ...        0 min,  0.000 sec (  0.152%)
 integral evaluation            ...        0 min,  0.009 sec (  6.770%)
 iterations                     ...        0 min,  0.081 sec ( 64.350%)
 molecular gradient             ...        0 min,  0.028 sec ( 22.108%)
 printout                       ...        0 min,  0.007 sec (  5.821%)

         :::::::::::::::::::::::::::::::::::::::::::::::::::::
         ::                     SUMMARY                     ::
         :::::::::::::::::::::::::::::::::::::::::::::::::::::
         :: total energy             -69.103633400168 Eh    ::
         :: gradient norm              0.108297073379 Eh/a0 ::
         :: HOMO-LUMO gap              0.699761719697 eV    ::
         ::.................................................::
         :: SCC energy               -70.049412191386 Eh    ::
         :: -> isotropic ES            0.050064125337 Eh    ::
         :: -> anisotropic ES          0.009615788310 Eh    ::
         :: -> anisotropic XC          0.033365563243 Eh    ::
         :: -> dispersion             -0.048201335901 Eh    ::
         :: repulsion energy           0.945778791218 Eh    ::
         :: add. restraining           0.000000000000 Eh    ::
         :: total charge              -0.000000000061 e     ::
         :::::::::::::::::::::::::::::::::::::::::::::::::::::

           -------------------------------------------------
          |                Property Printout                |
           -------------------------------------------------

    * Orbital Energies and Occupations

         #    Occupation            Energy/Eh            Energy/eV
      -------------------------------------------------------------
         1        2.0000           -1.0386787             -28.2639
       ...           ...                  ...                  ...
        52        2.0000           -0.4513611             -12.2822
        53        2.0000           -0.4457971             -12.1308
        54        2.0000           -0.4340279             -11.8105
        55        2.0000           -0.4259364             -11.5903
        56        2.0000           -0.4226760             -11.5016
        57        2.0000           -0.4176659             -11.3653
        58        2.0000           -0.4020175             -10.9395
        59        2.0000           -0.4003216             -10.8933
        60        2.0000           -0.3823848             -10.4052
        61        1.9686           -0.3708618             -10.0917
        62        1.7688           -0.3687443             -10.0340
        63        1.2626           -0.3666219              -9.9763
        64        1.0000           -0.2527227              -6.8769 (HOMO)
        65        0.0000           -0.2270070              -6.1772 (LUMO)
        66                         -0.1879393              -5.1141
        67                         -0.1424060              -3.8751
        68                         -0.1190572              -3.2397
        69                         -0.0583620              -1.5881
        70                         -0.0285211              -0.7761
        71                         -0.0023476              -0.0639
        72                          0.0335432               0.9128
        73                          0.0383456               1.0434
        74                          0.0384711               1.0469
        75                          0.0397563               1.0818
       ...                                ...                  ...
       123                          0.6935132              18.8715
      -------------------------------------------------------------
                  HL-Gap            0.0257158 Eh            0.6998 eV
             Fermi-level           -0.3037339 Eh           -8.2650 eV

     #   Z          covCN         q      C6AA      α(0)
     1   6 C        3.754    -0.116    22.777     6.805
     2   6 C        3.786     0.044    19.858     6.347
     3   7 N        2.695    -0.150    24.251     7.314
     4   6 C        2.901     0.045    26.990     8.518
     5   6 C        2.913    -0.059    29.454     8.899
     6   6 C        2.906     0.035    27.221     8.555
     7   7 N        1.843    -0.205    26.285     7.598
     8   6 C        2.981     0.091    25.981     8.361
     9   6 C        2.983    -0.022    28.552     8.765
    10   6 C        2.919    -0.063    29.556     8.915
    11   6 C        2.951    -0.047    29.161     8.857
    12   6 C        2.885     0.085    26.107     8.377
    13  17 Cl       0.969    -0.192   105.194    15.691
    14   6 C        2.962    -0.066    29.630     8.928
    15   6 C        3.808    -0.069    21.817     6.649
    16   6 C        3.803    -0.069    21.826     6.651
    17   6 C        3.749     0.007    20.517     6.460
    18   7 N        2.728    -0.173    24.751     7.389
    19   6 C        3.749     0.004    20.576     6.470
    20   6 C        3.750    -0.111    22.680     6.792
    21   6 C        3.748    -0.007    20.770     6.500
    22   6 C        3.676     0.074    19.562     6.337
    23   8 O        1.655    -0.444    21.730     6.293
    24   1 H        0.925     0.052     2.300     2.372
    25   1 H        0.925     0.043     2.416     2.431
    26   1 H        0.925     0.050     2.323     2.383
    27   1 H        0.924     0.053     2.288     2.366
    28   1 H        0.860     0.167     1.289     1.778
    29   1 H        0.926     0.033     2.546     2.495
    30   1 H        0.925     0.033     2.545     2.495
    31   1 H        0.926     0.018     2.766     2.601
    32   1 H        0.926     0.042     2.424     2.435
    33   1 H        0.926     0.060     2.203     2.321
    34   1 H        0.924     0.043     2.411     2.428
    35   1 H        0.924     0.037     2.485     2.465
    36   1 H        0.925     0.052     2.291     2.367
    37   1 H        0.924     0.041     2.430     2.438
    38   1 H        0.924     0.039     2.464     2.455
    39   1 H        0.923     0.018     2.765     2.601
    40   1 H        0.924     0.037     2.491     2.468
    41   1 H        0.924     0.041     2.442     2.444
    42   1 H        0.925     0.037     2.495     2.470
    43   1 H        0.925     0.040     2.449     2.447
    44   1 H        0.925     0.035     2.511     2.478
    45   1 H        0.924     0.045     2.377     2.411
    46   1 H        0.924     0.025     2.654     2.548
    47   1 H        0.923     0.021     2.717     2.578
    48   1 H        0.924     0.046     2.367     2.406
    49   1 H        0.805     0.302     0.715     1.328

 Mol. C6AA /au·bohr⁶  :      25085.373593
 Mol. C8AA /au·bohr⁸  :     598007.782631
 Mol. α(0) /au        :        243.482456


Wiberg/Mayer (AO) data.
largest (>0.10) Wiberg bond orders for each atom

 ---------------------------------------------------------------------------
     #   Z sym  total        # sym  WBO       # sym  WBO       # sym  WBO
 ---------------------------------------------------------------------------
     1   6 C    3.981 --     2 C    0.987    25 H    0.986    26 H    0.983
                            24 H    0.981
     2   6 C    3.970 --     3 N    0.995    15 C    0.989     1 C    0.987
                            27 H    0.955
     3   7 N    3.342 --     4 C    1.203     2 C    0.995    28 H    0.930
     4   6 C    3.874 --     5 C    1.234     3 N    1.203     9 C    1.185
     5   6 C    3.863 --     6 C    1.452     4 C    1.234    29 H    0.962
     6   6 C    3.947 --     5 C    1.452     7 N    1.334    30 H    0.957
     7   7 N    2.878 --     6 C    1.334     8 C    1.280
     8   6 C    3.959 --     7 N    1.280    14 C    1.266     9 C    1.228
     9   6 C    3.953 --    10 C    1.311     8 C    1.228     4 C    1.185
    10   6 C    3.899 --    11 C    1.343     9 C    1.311    31 H    0.956
    11   6 C    3.947 --    12 C    1.417    10 C    1.343    32 H    0.969
    12   6 C    3.887 --    11 C    1.417    14 C    1.331    13 Cl   0.959
    13  17 Cl   1.082 --    12 C    0.959
    14   6 C    3.854 --    12 C    1.331     8 C    1.266    33 H    0.964
    15   6 C    3.992 --    16 C    1.006     2 C    0.989    34 H    0.975
                            35 H    0.975
    16   6 C    3.991 --    15 C    1.006    17 C    0.997    37 H    0.976
                            36 H    0.970
    17   6 C    3.983 --    18 N    1.003    16 C    0.997    38 H    0.972
                            39 H    0.965
    18   7 N    3.134 --    19 C    1.005    21 C    1.003    17 C    1.003
    19   6 C    3.982 --    18 N    1.005    20 C    1.003    40 H    0.972
                            41 H    0.972
    20   6 C    3.991 --    19 C    1.003    42 H    0.987    43 H    0.985
                            44 H    0.984
    21   6 C    3.984 --    18 N    1.003    22 C    0.987    45 H    0.970
                            46 H    0.964
    22   6 C    3.961 --    23 O    1.010    21 C    0.987    48 H    0.973
                            47 H    0.967
    23   8 O    1.955 --    22 C    1.010    49 H    0.882
    24   1 H    0.996 --     1 C    0.981
    25   1 H    0.998 --     1 C    0.986
    26   1 H    0.997 --     1 C    0.983
    27   1 H    0.995 --     2 C    0.955
    28   1 H    0.971 --     3 N    0.930
    29   1 H    0.995 --     5 C    0.962
    30   1 H    0.989 --     6 C    0.957
    31   1 H    0.995 --    10 C    0.956
    32   1 H    0.998 --    11 C    0.969
    33   1 H    0.994 --    14 C    0.964
    34   1 H    0.998 --    15 C    0.975
    35   1 H    0.999 --    15 C    0.975
    36   1 H    0.997 --    16 C    0.970
    37   1 H    0.998 --    16 C    0.976
    38   1 H    0.998 --    17 C    0.972
    39   1 H    0.995 --    17 C    0.965
    40   1 H    0.998 --    19 C    0.972
    41   1 H    0.998 --    19 C    0.972
    42   1 H    0.999 --    20 C    0.987
    43   1 H    0.998 --    20 C    0.985
    44   1 H    0.999 --    20 C    0.984
    45   1 H    0.998 --    21 C    0.970
    46   1 H    0.996 --    21 C    0.964
    47   1 H    0.999 --    22 C    0.967
    48   1 H    0.998 --    22 C    0.973
    49   1 H    0.909 --    23 O    0.882
 ---------------------------------------------------------------------------

Topologies differ in total number of bonds
Writing topology from bond orders to xtbtopo.mol

molecular dipole:
                 x           y           z       tot (Debye)
 q only:       -3.370      -0.509       0.268
   full:       -3.552      -1.209       0.200       9.551
molecular quadrupole (traceless):
                xx          xy          yy          xz          yz          zz
 q only:      -39.822      11.238      18.417      17.381      -3.500      21.405
  q+dip:      -40.456      10.871      20.682      18.591      -4.551      19.773
   full:      -40.695      10.444      18.470      19.157      -4.361      22.226


           -------------------------------------------------
          | TOTAL ENERGY              -69.103633400168 Eh   |
          | GRADIENT NORM               0.108297073379 Eh/α |
          | HOMO-LUMO GAP               0.699761719697 eV   |
           -------------------------------------------------

------------------------------------------------------------------------
 * finished run on 2025/05/15 at 16:11:24.648     
------------------------------------------------------------------------
 total:
 * wall-time:     0 d,  0 h,  0 min,  0.142 sec
 *  cpu-time:     0 d,  0 h,  0 min,  0.109 sec
 * ratio c/w:     0.766 speedup
 SCF:
 * wall-time:     0 d,  0 h,  0 min,  0.126 sec
 *  cpu-time:     0 d,  0 h,  0 min,  0.097 sec
 * ratio c/w:     0.767 speedup


