49
 energy: -69.211289087828 gnorm: 0.000577195788 xtb: 6.7.1 (edcfbbe)
C            0.77188698674742        0.72153060809213        1.93598321727382
C            0.81307401665372        0.57232730990530        0.41263732284795
N            2.11193156431652        0.11108179253350       -0.02931989056808
C            3.22929177063500        0.87296815394686       -0.15172073917349
C            3.22109958309795        2.25361619533468       -0.00199007225597
C            4.40117539422164        2.97347657971414       -0.17496494065444
N            5.56048469590678        2.44655266106466       -0.47071673965931
C            5.61466598828879        1.11098959852211       -0.63213151548807
C            4.48113089079882        0.26134534076689       -0.49258718769101
C            4.65622012252556       -1.11938510260196       -0.70348944136466
C            5.87801673286565       -1.64594865027206       -1.02394605703229
C            6.98631660832446       -0.79728763667103       -1.14666029057919
Cl           8.51961723435496       -1.48926493804286       -1.54807788046013
C            6.86738685906583        0.55035967284939       -0.95902003663824
C           -0.23577972865350       -0.41993009755845       -0.10196830383426
C           -1.66318676878008        0.10496607125751        0.01905830389649
C           -2.67417711055274       -0.88891488060221       -0.56050380263548
N           -4.02961726721770       -0.38520744603501       -0.42368869730880
C           -4.92761619770918       -0.77417111640393       -1.49563213874406
C           -5.13625673630933       -2.28177052217103       -1.67788285249749
C           -4.59842202734075       -0.53307715928768        0.90890222840759
C           -5.26500707861333        0.78663150155555        1.32083705387238
O           -4.36570200414535        1.85789674995484        1.20762723356118
H           -0.16332090284913        1.17271081795083        2.25324682090608
H            0.87404456902696       -0.25058932006636        2.41428562249677
H            1.58995974513626        1.35563949062345        2.26979170619839
H            0.62566558792543        1.54558864390774       -0.05304098613233
H            2.24912400898648       -0.88423677883359        0.03859811465707
H            2.31872191628962        2.78337291142275        0.25424981602788
H            4.39399931162698        4.04974011388857       -0.05372297107949
H            3.81765109992090       -1.79696602421069       -0.62603308260834
H            5.99827571607207       -2.70562118120146       -1.18523796911795
H            7.70870203997664        1.21674660035321       -1.05585464083120
H           -0.02297305244181       -0.62803031164254       -1.15385684562034
H           -0.14477240033475       -1.35939409627416        0.45022475519976
H           -1.90113032344161        0.29739266510526        1.06484700512783
H           -1.75026976916383        1.04900539867597       -0.52221874658498
H           -2.46595106870220       -1.01517574122894       -1.62564372741892
H           -2.54359589677364       -1.86942539203081       -0.07428854080713
H           -4.52989519142346       -0.35358298448988       -2.42475489683959
H           -5.89189985735109       -0.29797283092628       -1.30229433120188
H           -4.20359183498852       -2.77229186485460       -1.94551604282733
H           -5.85793540189515       -2.45712363618526       -2.47094427313056
H           -5.51460291278196       -2.73607160941897       -0.76505325031056
H           -3.79795087456965       -0.75207403336122        1.61733394871557
H           -5.33375279467111       -1.34497670329460        0.96763018559753
H           -6.15018497404669        0.96783811521637        0.69308302340880
H           -5.58345870485394        0.74526534301197        2.36456576084745
H           -3.93719156315007        1.75144772201647        0.34645877206117
