----- Optimization -----
      -----------------------------------------------------------      
     |                   =====================                   |     
     |                           x T B                           |     
     |                   =====================                   |     
     |                         S. Grimme                         |     
     |          Mulliken Center for Theoretical Chemistry        |     
     |                    University of Bonn                     |     
      -----------------------------------------------------------      

   * xtb version 6.7.1 (edcfbbe) compiled by 'conda@3ef47c1a292c' on 2024-11-25

   xtb is free software: you can redistribute it and/or modify it under
   the terms of the GNU Lesser General Public License as published by
   the Free Software Foundation, either version 3 of the License, or
   (at your option) any later version.
   
   xtb is distributed in the hope that it will be useful,
   but WITHOUT ANY WARRANTY; without even the implied warranty of
   MERCHANTABILITY or FITNESS FOR A PARTICULAR PURPOSE.  See the
   GNU Lesser General Public License for more details.
   
   Cite this work as:
   * C. Bannwarth, E. Caldeweyher, S. Ehlert, A. Hansen, P. Pracht,
     J. Seibert, S. Spicher, S. Grimme, WIREs Comput. Mol. Sci., 2020, 11,
     e01493. DOI: 10.1002/wcms.1493
   
   for GFN2-xTB:
   * C. Bannwarth, S. Ehlert and S. Grimme., J. Chem. Theory Comput., 2019,
     15, 1652-1671. DOI: 10.1021/acs.jctc.8b01176
   for GFN1-xTB:
   * S. Grimme, C. Bannwarth, P. Shushkov, J. Chem. Theory Comput., 2017,
     13, 1989-2009. DOI: 10.1021/acs.jctc.7b00118
   for GFN0-xTB:
   * P. Pracht, E. Caldeweyher, S. Ehlert, S. Grimme, ChemRxiv, 2019, preprint.
     DOI: 10.26434/chemrxiv.8326202.v1
   for GFN-FF:
   * S. Spicher and S. Grimme, Angew. Chem. Int. Ed., 2020, 59, 15665-15673.
     DOI: 10.1002/anie.202004239
   
   for ALPB and GBSA implicit solvation:
   * S. Ehlert, M. Stahn, S. Spicher, S. Grimme, J. Chem. Theory Comput.,
     2021, 17, 4250-4261. DOI: 10.1021/acs.jctc.1c00471
   
   for ddCOSMO and CPCM-X implicit solvation:
   * M. Stahn, S. Ehlert, S. Grimme, J. Phys. Chem. A,
     2023, XX, XXXX-XXXX. DOI: 10.1021/acs.jpca.3c04382
   
   for DFT-D4:
   * E. Caldeweyher, C. Bannwarth and S. Grimme, J. Chem. Phys., 2017,
     147, 034112. DOI: 10.1063/1.4993215
   * E. Caldeweyher, S. Ehlert, A. Hansen, H. Neugebauer, S. Spicher,
     C. Bannwarth and S. Grimme, J. Chem. Phys., 2019, 150, 154122.
     DOI: 10.1063/1.5090222
   * E. Caldeweyher, J.-M. Mewes, S. Ehlert and S. Grimme, Phys. Chem. Chem. Phys.
     2020, 22, 8499-8512. DOI: 10.1039/D0CP00502A
   
   for sTDA-xTB:
   * S. Grimme and C. Bannwarth, J. Chem. Phys., 2016, 145, 054103.
     DOI: 10.1063/1.4959605
   
   in the mass-spec context:
   * V. Asgeirsson, C. Bauer and S. Grimme, Chem. Sci., 2017, 8, 4879.
     DOI: 10.1039/c7sc00601b
   * J. Koopman and S. Grimme, ACS Omega 2019, 4, 12, 15120-15133.
     DOI: 10.1021/acsomega.9b02011
   
   for metadynamics refer to:
   * S. Grimme, J. Chem. Theory Comput., 2019, 155, 2847-2862
     DOI: 10.1021/acs.jctc.9b00143
   
   for SPH calculations refer to:
   * S. Spicher and S. Grimme, J. Chem. Theory Comput., 2021, 17, 1701-1714
     DOI: 10.1021/acs.jctc.0c01306
   
   for ONIOM refer to:
   * C. Plett, A. Katbashev, S. Ehlert, S. Grimme, M. Bursch,
     Phys. Chem. Chem. Phys., 2023, 25, 17860-17868. DOI: 10.1039/D3CP02178E
   
   for DIPRO refer to:
   * J. Kohn, N. Gildemeister, S. Grimme, D. Fazzi, A. Hansen,
     J. Chem. Phys., 2023, just accepted.
   
   for PTB refer to:
   * S. Grimme, M. Mueller, A. Hansen, J. Chem. Phys., 2023, 158, 124111.
     DOI: 10.1063/5.0137838
   
   with help from (in alphabetical order)
   P. Atkinson, C. Bannwarth, F. Bohle, G. Brandenburg, E. Caldeweyher
   M. Checinski, S. Dohm, S. Ehlert, S. Ehrlich, I. Gerasimov, C. Hölzer
   A. Katbashev, J. Kohn, J. Koopman, C. Lavigne, S. Lehtola, F. März, M. Müller,
   F. Musil, H. Neugebauer, J. Pisarek, C. Plett, P. Pracht, F. Pultar,
   J. Seibert, P. Shushkov, S. Spicher, M. Stahn, M. Steiner, T. Strunk,
   J. Stückrath, T. Rose, and J. Unsleber
   
 * started run on 2025/05/15 at 16:23:02.201     
   ID    Z sym.   atoms
    1    6 C      1-7, 9, 11, 13-16, 18, 19, 21, 22, 24, 26-31
    2    7 N      8, 10, 12, 17, 20, 23, 25
    3    8 O      32, 33
    4    1 H      34-62

           -------------------------------------------------
          |                Calculation Setup                |
           -------------------------------------------------

          program call               : xtb /rds/general/user/hgt20/home/callum/QDESCP/Palbociclib_rdkit_conf_24/Palbociclib_rdkit_conf_24.xyz --opt normal --acc 1 --gfn 2 --chrg 0 --uhf 0 -P 1
          hostname                   : login-c
          coordinate file            : /rds/general/user/hgt20/home/callum/QDESCP/Palbociclib_rdkit_conf_24/Palbociclib_rdkit_conf_24.xyz
          omp threads                :                     1


           -------------------------------------------------
          |                 G F N 2 - x T B                 |
           -------------------------------------------------

        Reference                      10.1021/acs.jctc.8b01176
      * Hamiltonian:
        H0-scaling (s, p, d)           1.850000    2.230000    2.230000
        zeta-weighting                 0.500000
      * Dispersion:
        s8                             2.700000
        a1                             0.520000
        a2                             5.000000
        s9                             5.000000
      * Repulsion:
        kExp                           1.500000    1.000000
        rExp                           1.000000
      * Coulomb:
        alpha                          2.000000
        third order                    shell-resolved
        anisotropic                    true
        a3                             3.000000
        a5                             4.000000
        cn-shift                       1.200000
        cn-exp                         4.000000
        max-rad                        5.000000


          ...................................................
          :                      SETUP                      :
          :.................................................:
          :  # basis functions                 161          :
          :  # atomic orbitals                 161          :
          :  # shells                           95          :
          :  # electrons                       172          :
          :  max. iterations                   250          :
          :  Hamiltonian                  GFN2-xTB          :
          :  restarted?                      false          :
          :  GBSA solvation                  false          :
          :  PC potential                    false          :
          :  electronic temp.          300.0000000     K    :
          :  accuracy                    1.0000000          :
          :  -> integral cutoff          0.2500000E+02      :
          :  -> integral neglect         0.1000000E-07      :
          :  -> SCF convergence          0.1000000E-05 Eh   :
          :  -> wf. convergence          0.1000000E-03 e    :
          :  Broyden damping             0.4000000          :
          :  net charge                          0          :
          :  unpaired electrons                  0          :
          ...................................................

 iter      E             dE          RMSdq      gap      omega  full diag
   1    -95.9188451 -0.959188E+02  0.389E+00    1.65       0.0  T
   2    -96.0708754 -0.152030E+00  0.234E+00    1.82       1.0  T
   3    -96.0792804 -0.840504E-02  0.125E+00    1.69       1.0  T
   4    -96.0881273 -0.884689E-02  0.341E-01    1.51       1.0  T
   5    -96.0929780 -0.485065E-02  0.136E-01    1.60       1.0  T
   6    -96.0936699 -0.691952E-03  0.539E-02    1.60       1.0  T
   7    -96.0937432 -0.732986E-04  0.207E-02    1.60       1.0  T
   8    -96.0937468 -0.356251E-05  0.881E-03    1.61       1.4  T
   9    -96.0937478 -0.103997E-05  0.339E-03    1.61       3.7  T
  10    -96.0937480 -0.240549E-06  0.135E-03    1.61       9.4  T
  11    -96.0937481 -0.423430E-07  0.645E-04    1.61      19.7  T
  12    -96.0937481 -0.632771E-08  0.272E-04    1.61      46.7  T

   *** convergence criteria satisfied after 12 iterations ***

         #    Occupation            Energy/Eh            Energy/eV
      -------------------------------------------------------------
         1        2.0000           -0.7001034             -19.0508
       ...           ...                  ...                  ...
        80        2.0000           -0.4018691             -10.9354
        81        2.0000           -0.3945869             -10.7373
        82        2.0000           -0.3893931             -10.5959
        83        2.0000           -0.3752538             -10.2112
        84        2.0000           -0.3724548             -10.1350
        85        2.0000           -0.3696653             -10.0591
        86        2.0000           -0.3505624              -9.5393 (HOMO)
        87                         -0.2914756              -7.9315 (LUMO)
        88                         -0.2687447              -7.3129
        89                         -0.2490117              -6.7760
        90                         -0.2416055              -6.5744
        91                         -0.2321339              -6.3167
       ...                                ...                  ...
       161                          0.6852628              18.6470
      -------------------------------------------------------------
                  HL-Gap            0.0590868 Eh            1.6078 eV
             Fermi-level           -0.3210190 Eh           -8.7354 eV

 SCC (total)                   0 d,  0 h,  0 min,  0.205 sec
 SCC setup                      ...        0 min,  0.001 sec (  0.321%)
 Dispersion                     ...        0 min,  0.001 sec (  0.470%)
 classical contributions        ...        0 min,  0.000 sec (  0.148%)
 integral evaluation            ...        0 min,  0.013 sec (  6.449%)
 iterations                     ...        0 min,  0.103 sec ( 50.370%)
 molecular gradient             ...        0 min,  0.086 sec ( 42.063%)
 printout                       ...        0 min,  0.000 sec (  0.176%)

         :::::::::::::::::::::::::::::::::::::::::::::::::::::
         ::                     SUMMARY                     ::
         :::::::::::::::::::::::::::::::::::::::::::::::::::::
         :: total energy             -94.851484681708 Eh    ::
         :: gradient norm              0.127821130247 Eh/a0 ::
         :: HOMO-LUMO gap              1.607832861331 eV    ::
         ::.................................................::
         :: SCC energy               -96.093973836510 Eh    ::
         :: -> isotropic ES            0.111476085522 Eh    ::
         :: -> anisotropic ES          0.010832771281 Eh    ::
         :: -> anisotropic XC          0.054682939049 Eh    ::
         :: -> dispersion             -0.069825874183 Eh    ::
         :: repulsion energy           1.242489154802 Eh    ::
         :: add. restraining           0.000000000000 Eh    ::
         :: total charge               0.000000000000 e     ::
         :::::::::::::::::::::::::::::::::::::::::::::::::::::

      ----------------------------------------------------------- 
     |                   =====================                   |
     |                        A N C O P T                        |
     |                   =====================                   |
     |               Approximate Normal Coordinate               |
     |                Rational Function Optimizer                |
      ----------------------------------------------------------- 
      ----------------------------------------------------------- 
     |                   =====================                   |
     |                        A N C O P T                        |
     |                   =====================                   |
     |               Approximate Normal Coordinate               |
     |                Rational Function Optimizer                |
      ----------------------------------------------------------- 

          ...................................................
          :                      SETUP                      :
          :.................................................:
          :   optimization level            normal          :
          :   max. optcycles                   200          :
          :   ANC micro-cycles                  20          :
          :   degrees of freedom               180          :
          :.................................................:
          :   RF solver                   davidson          :
          :   write xtbopt.log                true          :
          :   linear?                        false          :
          :   energy convergence         0.5000000E-05 Eh   :
          :   grad. convergence          0.1000000E-02 Eh/α :
          :   maxmium RF displ.          1.0000000          :
          :   Hlow (freq-cutoff)         0.1000000E-01      :
          :   Hmax (freq-cutoff)         5.0000000          :
          :   S6 in model hess.         20.0000000          :
          ...................................................

generating ANC from exact Hessian ...
Using Lindh-Hessian (1995)
 Shifting diagonal of input Hessian by    9.8388569713035168E-003
 Lowest  eigenvalues of input Hessian
    0.000000    0.000000    0.000000    0.000000    0.000000    0.000000
    0.010000    0.010168    0.010292    0.010413    0.010715    0.011013
    0.011252    0.011916    0.012004    0.012383    0.013309    0.013667
 Highest eigenvalues
    2.051446    2.068252    2.134540    2.227309    2.258436    2.304025


........................................................................
.............................. CYCLE    1 ..............................
........................................................................

 iter      E             dE          RMSdq      gap      omega  full diag
   1    -96.0937481 -0.960937E+02  0.905E-05    1.61       0.0  T
   2    -96.0937481 -0.163880E-09  0.605E-05    1.61     210.0  T
   3    -96.0937481 -0.157215E-09  0.335E-05    1.61     378.9  T
     SCC iter.                  ...        0 min,  0.014 sec
     gradient                   ...        0 min,  0.098 sec
 * total energy  :   -94.8514847 Eh     change       -0.1409347E-08 Eh
   gradient norm :     0.1278219 Eh/α   predicted     0.0000000E+00 (-100.00%)
   displ. norm   :     0.4004217 α      lambda       -0.2089784E-01
   maximum displ.:     0.1374106 α      in ANC's #13, #24, #32, ...

........................................................................
.............................. CYCLE    2 ..............................
........................................................................

 iter      E             dE          RMSdq      gap      omega  full diag
   1    -96.1349795 -0.961350E+02  0.171E-01    1.61       0.0  T
   2    -96.1352617 -0.282202E-03  0.106E-01    1.69       1.0  T
   3    -96.1352991 -0.374368E-04  0.594E-02    1.67       1.0  T
   4    -96.1353394 -0.402471E-04  0.166E-02    1.68       1.0  T
   5    -96.1353535 -0.141465E-04  0.495E-03    1.69       2.6  T
   6    -96.1353544 -0.936417E-06  0.231E-03    1.69       5.5  T
   7    -96.1353545 -0.571145E-07  0.104E-03    1.69      12.2  T
   8    -96.1353545 -0.239149E-07  0.317E-04    1.68      40.1  T
   9    -96.1353545 -0.221604E-08  0.156E-04    1.68      81.2  T
     SCC iter.                  ...        0 min,  0.075 sec
     gradient                   ...        0 min,  0.092 sec
 * total energy  :   -94.8666722 Eh     change       -0.1518755E-01 Eh
   gradient norm :     0.0588747 Eh/α   predicted    -0.1215814E-01 ( -19.95%)
   displ. norm   :     0.4621793 α      lambda       -0.9632965E-02
   maximum displ.:     0.2196529 α      in ANC's #13, #24, #19, ...

........................................................................
.............................. CYCLE    3 ..............................
........................................................................

 iter      E             dE          RMSdq      gap      omega  full diag
   1    -96.1656832 -0.961657E+02  0.138E-01    1.64       0.0  T
   2    -96.1659000 -0.216823E-03  0.825E-02    1.72       1.0  T
   3    -96.1659502 -0.502018E-04  0.493E-02    1.71       1.0  T
   4    -96.1659719 -0.216115E-04  0.152E-02    1.72       1.0  T
   5    -96.1659836 -0.117048E-04  0.407E-03    1.72       3.1  T
   6    -96.1659844 -0.803095E-06  0.159E-03    1.72       8.0  T
   7    -96.1659844 -0.270971E-07  0.689E-04    1.72      18.4  T
   8    -96.1659844 -0.749580E-08  0.217E-04    1.72      58.5  T
     SCC iter.                  ...        0 min,  0.085 sec
     gradient                   ...        0 min,  0.047 sec
 * total energy  :   -94.8728199 Eh     change       -0.6147668E-02 Eh
   gradient norm :     0.0196977 Eh/α   predicted    -0.5845332E-02 (  -4.92%)
   displ. norm   :     0.3980694 α      lambda       -0.2694268E-02
   maximum displ.:     0.2374586 α      in ANC's #13, #19, #11, ...

........................................................................
.............................. CYCLE    4 ..............................
........................................................................

 iter      E             dE          RMSdq      gap      omega  full diag
   1    -96.1760704 -0.961761E+02  0.719E-02    1.68       0.0  T
   2    -96.1761065 -0.360918E-04  0.426E-02    1.71       1.0  T
   3    -96.1761041  0.234948E-05  0.260E-02    1.71       1.0  T
   4    -96.1761173 -0.131758E-04  0.698E-03    1.71       1.8  T
   5    -96.1761200 -0.269411E-05  0.187E-03    1.71       6.8  T
   6    -96.1761201 -0.129920E-06  0.834E-04    1.71      15.2  T
   7    -96.1761201 -0.603390E-08  0.265E-04    1.71      47.9  T
     SCC iter.                  ...        0 min,  0.029 sec
     gradient                   ...        0 min,  0.092 sec
 * total energy  :   -94.8748207 Eh     change       -0.2000790E-02 Eh
   gradient norm :     0.0151977 Eh/α   predicted    -0.1560604E-02 ( -22.00%)
   displ. norm   :     0.4537302 α      lambda       -0.1816362E-02
   maximum displ.:     0.2806599 α      in ANC's #13, #11, #19, ...

........................................................................
.............................. CYCLE    5 ..............................
........................................................................

 iter      E             dE          RMSdq      gap      omega  full diag
   1    -96.1820621 -0.961821E+02  0.689E-02    1.68       0.0  T
   2    -96.1820828 -0.206946E-04  0.411E-02    1.69       1.0  T
   3    -96.1820733  0.944688E-05  0.200E-02    1.69       1.0  T
   4    -96.1820866 -0.133244E-04  0.522E-03    1.69       2.4  T
   5    -96.1820881 -0.150225E-05  0.172E-03    1.69       7.4  T
   6    -96.1820882 -0.757405E-07  0.822E-04    1.69      15.5  T
   7    -96.1820882 -0.482228E-08  0.278E-04    1.69      45.7  T
     SCC iter.                  ...        0 min,  0.075 sec
     gradient                   ...        0 min,  0.047 sec
 * total energy  :   -94.8760846 Eh     change       -0.1263867E-02 Eh
   gradient norm :     0.0107556 Eh/α   predicted    -0.1095156E-02 ( -13.35%)
   displ. norm   :     0.3477294 α      lambda       -0.7722517E-03
   maximum displ.:     0.2054855 α      in ANC's #13, #8, #11, ...

........................................................................
.............................. CYCLE    6 ..............................
........................................................................

 iter      E             dE          RMSdq      gap      omega  full diag
   1    -96.1850275 -0.961850E+02  0.525E-02    1.68       0.0  T
   2    -96.1850333 -0.577648E-05  0.308E-02    1.67       1.0  T
   3    -96.1850290  0.431472E-05  0.104E-02    1.67       1.2  T
   4    -96.1850343 -0.532800E-05  0.266E-03    1.67       4.8  T
   5    -96.1850346 -0.315360E-06  0.108E-03    1.67      11.8  T
   6    -96.1850346 -0.238496E-07  0.536E-04    1.67      23.7  T
   7    -96.1850346 -0.455024E-08  0.203E-04    1.67      62.5  T
     SCC iter.                  ...        0 min,  0.029 sec
     gradient                   ...        0 min,  0.098 sec
 * total energy  :   -94.8766267 Eh     change       -0.5421404E-03 Eh
   gradient norm :     0.0084089 Eh/α   predicted    -0.4328154E-03 ( -20.17%)
   displ. norm   :     0.2819659 α      lambda       -0.4379488E-03
   maximum displ.:     0.1336845 α      in ANC's #13, #8, #6, ...

........................................................................
.............................. CYCLE    7 ..............................
........................................................................

 iter      E             dE          RMSdq      gap      omega  full diag
   1    -96.1866658 -0.961867E+02  0.495E-02    1.67       0.0  T
   2    -96.1866688 -0.299364E-05  0.291E-02    1.66       1.0  T
   3    -96.1866675  0.133492E-05  0.590E-03    1.66       2.2  T
   4    -96.1866693 -0.183235E-05  0.171E-03    1.66       7.4  T
   5    -96.1866694 -0.868771E-07  0.832E-04    1.66      15.3  T
   6    -96.1866694 -0.119186E-07  0.443E-04    1.66      28.7  T
     SCC iter.                  ...        0 min,  0.058 sec
     gradient                   ...        0 min,  0.047 sec
 * total energy  :   -94.8769428 Eh     change       -0.3160967E-03 Eh
   gradient norm :     0.0067492 Eh/α   predicted    -0.2363844E-03 ( -25.22%)
   displ. norm   :     0.2559436 α      lambda       -0.3285692E-03
   maximum displ.:     0.0977530 α      in ANC's #8, #6, #15, ...

........................................................................
.............................. CYCLE    8 ..............................
........................................................................

 iter      E             dE          RMSdq      gap      omega  full diag
   1    -96.1874801 -0.961875E+02  0.569E-02    1.67       0.0  T
   2    -96.1874828 -0.262884E-05  0.336E-02    1.66       1.0  T
   3    -96.1874801  0.265765E-05  0.762E-03    1.66       1.7  T
   4    -96.1874833 -0.318572E-05  0.202E-03    1.66       6.3  T
   5    -96.1874834 -0.155875E-06  0.872E-04    1.66      14.6  T
   6    -96.1874835 -0.133485E-07  0.458E-04    1.66      27.8  T
     SCC iter.                  ...        0 min,  0.025 sec
     gradient                   ...        0 min,  0.092 sec
 * total energy  :   -94.8771815 Eh     change       -0.2386590E-03 Eh
   gradient norm :     0.0061078 Eh/α   predicted    -0.1750476E-03 ( -26.65%)
   displ. norm   :     0.2514356 α      lambda       -0.2702307E-03
   maximum displ.:     0.0973114 α      in ANC's #15, #8, #6, ...

........................................................................
.............................. CYCLE    9 ..............................
........................................................................

 iter      E             dE          RMSdq      gap      omega  full diag
   1    -96.1874569 -0.961875E+02  0.604E-02    1.66       0.0  T
   2    -96.1874588 -0.197336E-05  0.357E-02    1.66       1.0  T
   3    -96.1874532  0.559828E-05  0.106E-02    1.66       1.2  T
   4    -96.1874597 -0.647712E-05  0.188E-03    1.66       6.8  T
   5    -96.1874598 -0.109020E-06  0.885E-04    1.66      14.3  T
   6    -96.1874598 -0.906145E-08  0.448E-04    1.66      28.4  T
     SCC iter.                  ...        0 min,  0.056 sec
     gradient                   ...        0 min,  0.098 sec
 * total energy  :   -94.8773806 Eh     change       -0.1991031E-03 Eh
   gradient norm :     0.0062801 Eh/α   predicted    -0.1436593E-03 ( -27.85%)
   displ. norm   :     0.2505081 α      lambda       -0.2469626E-03
   maximum displ.:     0.0995002 α      in ANC's #15, #8, #6, ...

........................................................................
.............................. CYCLE   10 ..............................
........................................................................

 iter      E             dE          RMSdq      gap      omega  full diag
   1    -96.1871233 -0.961871E+02  0.617E-02    1.66       0.0  T
   2    -96.1871255 -0.217349E-05  0.362E-02    1.66       1.0  T
   3    -96.1871159  0.965442E-05  0.140E-02    1.66       1.0  T
   4    -96.1871269 -0.110652E-04  0.181E-03    1.66       7.0  T
   5    -96.1871270 -0.916291E-07  0.855E-04    1.66      14.8  T
   6    -96.1871270 -0.705370E-08  0.414E-04    1.66      30.7  T
     SCC iter.                  ...        0 min,  0.025 sec
     gradient                   ...        0 min,  0.088 sec
 * total energy  :   -94.8775588 Eh     change       -0.1782327E-03 Eh
   gradient norm :     0.0061293 Eh/α   predicted    -0.1312328E-03 ( -26.37%)
   displ. norm   :     0.2223584 α      lambda       -0.1902376E-03
   maximum displ.:     0.0859906 α      in ANC's #15, #5, #8, ...

........................................................................
.............................. CYCLE   11 ..............................
........................................................................

 iter      E             dE          RMSdq      gap      omega  full diag
   1    -96.1867674 -0.961868E+02  0.469E-02    1.65       0.0  T
   2    -96.1867688 -0.144649E-05  0.273E-02    1.65       1.0  T
   3    -96.1867625  0.632314E-05  0.116E-02    1.66       1.1  T
   4    -96.1867698 -0.732275E-05  0.155E-03    1.66       8.2  T
   5    -96.1867699 -0.705220E-07  0.734E-04    1.66      17.3  T
   6    -96.1867699 -0.301226E-08  0.314E-04    1.66      40.4  T
     SCC iter.                  ...        0 min,  0.062 sec
     gradient                   ...        0 min,  0.047 sec
 * total energy  :   -94.8776913 Eh     change       -0.1325364E-03 Eh
   gradient norm :     0.0056733 Eh/α   predicted    -0.9983093E-04 ( -24.68%)
   displ. norm   :     0.1719460 α      lambda       -0.1356124E-03
   maximum displ.:     0.0695058 α      in ANC's #5, #13, #17, ...

........................................................................
.............................. CYCLE   12 ..............................
........................................................................

 iter      E             dE          RMSdq      gap      omega  full diag
   1    -96.1870521 -0.961871E+02  0.343E-02    1.64       0.0  T
   2    -96.1870535 -0.147336E-05  0.199E-02    1.65       1.0  T
   3    -96.1870499  0.361723E-05  0.898E-03    1.65       1.4  T
   4    -96.1870541 -0.423076E-05  0.150E-03    1.65       8.5  T
   5    -96.1870542 -0.925466E-07  0.572E-04    1.65      22.2  T
   6    -96.1870542 -0.344538E-08  0.266E-04    1.65      47.8  T
     SCC iter.                  ...        0 min,  0.025 sec
     gradient                   ...        0 min,  0.081 sec
 * total energy  :   -94.8777751 Eh     change       -0.8376742E-04 Eh
   gradient norm :     0.0036398 Eh/α   predicted    -0.6981326E-04 ( -16.66%)
   displ. norm   :     0.1866644 α      lambda       -0.9728094E-04
   maximum displ.:     0.0871259 α      in ANC's #14, #5, #17, ...

........................................................................
.............................. CYCLE   13 ..............................
........................................................................

 iter      E             dE          RMSdq      gap      omega  full diag
   1    -96.1857726 -0.961858E+02  0.298E-02    1.64       0.0  T
   2    -96.1857733 -0.675380E-06  0.176E-02    1.64       1.0  T
   3    -96.1857723  0.962575E-06  0.458E-03    1.64       2.8  T
   4    -96.1857735 -0.114396E-05  0.136E-03    1.64       9.4  T
   5    -96.1857735 -0.707320E-07  0.573E-04    1.64      22.2  T
   6    -96.1857735 -0.153678E-08  0.210E-04    1.64      60.4  T
     SCC iter.                  ...        0 min,  0.070 sec
     gradient                   ...        0 min,  0.047 sec
 * total energy  :   -94.8778188 Eh     change       -0.4365943E-04 Eh
   gradient norm :     0.0051857 Eh/α   predicted    -0.5034132E-04 (  15.30%)
   displ. norm   :     0.0815218 α      lambda       -0.7509950E-04
   maximum displ.:     0.0360396 α      in ANC's #7, #14, #15, ...

........................................................................
.............................. CYCLE   14 ..............................
........................................................................

 iter      E             dE          RMSdq      gap      omega  full diag
   1    -96.1875893 -0.961876E+02  0.195E-02    1.64       0.0  T
   2    -96.1875905 -0.127349E-05  0.114E-02    1.64       1.1  T
   3    -96.1875898  0.708631E-06  0.481E-03    1.64       2.6  T
   4    -96.1875907 -0.817367E-06  0.154E-03    1.64       8.2  T
   5    -96.1875908 -0.123629E-06  0.372E-04    1.64      34.1  T
   6    -96.1875908 -0.987058E-09  0.207E-04    1.64      61.4  T
     SCC iter.                  ...        0 min,  0.025 sec
     gradient                   ...        0 min,  0.086 sec
 * total energy  :   -94.8778629 Eh     change       -0.4410705E-04 Eh
   gradient norm :     0.0043409 Eh/α   predicted    -0.3780007E-04 ( -14.30%)
   displ. norm   :     0.0944044 α      lambda       -0.5705564E-04
   maximum displ.:     0.0477660 α      in ANC's #14, #5, #7, ...

........................................................................
.............................. CYCLE   15 ..............................
........................................................................

 iter      E             dE          RMSdq      gap      omega  full diag
   1    -96.1870273 -0.961870E+02  0.153E-02    1.64       0.0  T
   2    -96.1870279 -0.651588E-06  0.914E-03    1.64       1.4  T
   3    -96.1870277  0.188150E-06  0.264E-03    1.64       4.8  T
   4    -96.1870280 -0.241833E-06  0.841E-04    1.64      15.1  T
   5    -96.1870280 -0.294751E-07  0.345E-04    1.64      36.9  T
     SCC iter.                  ...        0 min,  0.062 sec
     gradient                   ...        0 min,  0.048 sec
 * total energy  :   -94.8778984 Eh     change       -0.3550824E-04 Eh
   gradient norm :     0.0029367 Eh/α   predicted    -0.2878322E-04 ( -18.94%)
   displ. norm   :     0.1083729 α      lambda       -0.4009624E-04
   maximum displ.:     0.0627081 α      in ANC's #14, #5, #7, ...

........................................................................
.............................. CYCLE   16 ..............................
........................................................................

 iter      E             dE          RMSdq      gap      omega  full diag
   1    -96.1867818 -0.961868E+02  0.196E-02    1.65       0.0  T
   2    -96.1867823 -0.482176E-06  0.115E-02    1.65       1.1  T
   3    -96.1867813  0.982334E-06  0.455E-03    1.64       2.8  T
   4    -96.1867825 -0.113683E-05  0.866E-04    1.65      14.7  T
   5    -96.1867825 -0.324139E-07  0.327E-04    1.65      38.8  T
   6    -96.1867825 -0.191099E-08  0.153E-04    1.65      83.1  T
     SCC iter.                  ...        0 min,  0.026 sec
     gradient                   ...        0 min,  0.093 sec
 * total energy  :   -94.8779272 Eh     change       -0.2880266E-04 Eh
   gradient norm :     0.0026941 Eh/α   predicted    -0.2028576E-04 ( -29.57%)
   displ. norm   :     0.1105664 α      lambda       -0.3585009E-04
   maximum displ.:     0.0598506 α      in ANC's #14, #5, #8, ...

........................................................................
.............................. CYCLE   17 ..............................
........................................................................

 iter      E             dE          RMSdq      gap      omega  full diag
   1    -96.1866753 -0.961867E+02  0.227E-02    1.65       0.0  T
   2    -96.1866760 -0.610985E-06  0.132E-02    1.66       1.0  T
   3    -96.1866748  0.112944E-05  0.494E-03    1.65       2.6  T
   4    -96.1866761 -0.130059E-05  0.101E-03    1.65      12.6  T
   5    -96.1866762 -0.485073E-07  0.364E-04    1.65      34.9  T
   6    -96.1866762 -0.266016E-08  0.176E-04    1.65      72.0  T
     SCC iter.                  ...        0 min,  0.065 sec
     gradient                   ...        0 min,  0.047 sec
 * total energy  :   -94.8779524 Eh     change       -0.2525245E-04 Eh
   gradient norm :     0.0024485 Eh/α   predicted    -0.1814862E-04 ( -28.13%)
   displ. norm   :     0.1057594 α      lambda       -0.2940026E-04
   maximum displ.:     0.0546917 α      in ANC's #14, #5, #8, ...

........................................................................
.............................. CYCLE   18 ..............................
........................................................................

 iter      E             dE          RMSdq      gap      omega  full diag
   1    -96.1868287 -0.961868E+02  0.230E-02    1.66       0.0  T
   2    -96.1868294 -0.666042E-06  0.134E-02    1.66       1.0  T
   3    -96.1868284  0.102046E-05  0.478E-03    1.66       2.7  T
   4    -96.1868295 -0.114924E-05  0.110E-03    1.66      11.6  T
   5    -96.1868296 -0.619553E-07  0.338E-04    1.66      37.5  T
   6    -96.1868296 -0.167128E-08  0.179E-04    1.66      71.1  T
     SCC iter.                  ...        0 min,  0.025 sec
     gradient                   ...        0 min,  0.092 sec
 * total energy  :   -94.8779750 Eh     change       -0.2258843E-04 Eh
   gradient norm :     0.0027362 Eh/α   predicted    -0.1486580E-04 ( -34.19%)
   displ. norm   :     0.1423671 α      lambda       -0.3905558E-04
   maximum displ.:     0.0692773 α      in ANC's #14, #8, #5, ...

........................................................................
.............................. CYCLE   19 ..............................
........................................................................

 iter      E             dE          RMSdq      gap      omega  full diag
   1    -96.1871001 -0.961871E+02  0.316E-02    1.67       0.0  T
   2    -96.1871011 -0.101016E-05  0.185E-02    1.67       1.0  T
   3    -96.1870990  0.213452E-05  0.679E-03    1.67       1.9  T
   4    -96.1871014 -0.239946E-05  0.134E-03    1.67       9.5  T
   5    -96.1871015 -0.893308E-07  0.424E-04    1.67      30.0  T
   6    -96.1871015 -0.156443E-08  0.228E-04    1.67      55.8  T
     SCC iter.                  ...        0 min,  0.077 sec
     gradient                   ...        0 min,  0.081 sec
 * total energy  :   -94.8780040 Eh     change       -0.2902131E-04 Eh
   gradient norm :     0.0031375 Eh/α   predicted    -0.1992534E-04 ( -31.34%)
   displ. norm   :     0.1523705 α      lambda       -0.3829271E-04
   maximum displ.:     0.0699830 α      in ANC's #14, #8, #5, ...

........................................................................
.............................. CYCLE   20 ..............................
........................................................................

 iter      E             dE          RMSdq      gap      omega  full diag
   1    -96.1873606 -0.961874E+02  0.345E-02    1.67       0.0  T
   2    -96.1873614 -0.823433E-06  0.203E-02    1.67       1.0  T
   3    -96.1873580  0.333800E-05  0.822E-03    1.67       1.5  T
   4    -96.1873618 -0.378551E-05  0.110E-03    1.67      11.6  T
   5    -96.1873619 -0.462878E-07  0.444E-04    1.67      28.6  T
   6    -96.1873619 -0.125554E-08  0.240E-04    1.67      52.9  T
     SCC iter.                  ...        0 min,  0.025 sec
     gradient                   ...        0 min,  0.087 sec
 * total energy  :   -94.8780321 Eh     change       -0.2808361E-04 Eh
   gradient norm :     0.0030854 Eh/α   predicted    -0.1959265E-04 ( -30.23%)
   displ. norm   :     0.1386142 α      lambda       -0.3431405E-04
   maximum displ.:     0.0593707 α      in ANC's #14, #8, #5, ...
 * RMSD in coord.:     0.3764663 α      energy gain  -0.2654744E-01 Eh

generating ANC from exact Hessian ...
Using Lindh-Hessian (1995)
 Shifting diagonal of input Hessian by    9.8239167664486253E-003
 Lowest  eigenvalues of input Hessian
    0.000000    0.000000    0.000000    0.000000    0.000000    0.000000
    0.010000    0.010167    0.010294    0.010456    0.010727    0.011046
    0.011402    0.011789    0.012141    0.012476    0.013597    0.013942
 Highest eigenvalues
    2.115381    2.170286    2.229008    2.299921    2.349032    2.390234


........................................................................
.............................. CYCLE   21 ..............................
........................................................................

 iter      E             dE          RMSdq      gap      omega  full diag
   1    -96.1876408 -0.961876E+02  0.321E-02    1.67       0.0  T
   2    -96.1876414 -0.675907E-06  0.190E-02    1.67       1.0  T
   3    -96.1876381  0.337343E-05  0.829E-03    1.67       1.5  T
   4    -96.1876419 -0.385237E-05  0.957E-04    1.67      13.3  T
   5    -96.1876419 -0.308496E-07  0.437E-04    1.67      29.0  T
   6    -96.1876420 -0.185267E-08  0.246E-04    1.67      51.6  T
     SCC iter.                  ...        0 min,  0.026 sec
     gradient                   ...        0 min,  0.087 sec
 * total energy  :   -94.8780566 Eh     change       -0.2445741E-04 Eh
   gradient norm :     0.0023142 Eh/α   predicted     0.0000000E+00 (-100.00%)
   displ. norm   :     0.0225251 α      lambda       -0.1005534E-04
   maximum displ.:     0.0124348 α      in ANC's #13, #5, #15, ...

........................................................................
.............................. CYCLE   22 ..............................
........................................................................

 iter      E             dE          RMSdq      gap      omega  full diag
   1    -96.1878562 -0.961879E+02  0.617E-03    1.67       0.0  T
   2    -96.1878564 -0.136889E-06  0.360E-03    1.67       3.5  T
   3    -96.1878563  0.375999E-07  0.130E-03    1.67       9.8  T
   4    -96.1878564 -0.450887E-07  0.452E-04    1.67      28.1  T
   5    -96.1878564 -0.105413E-07  0.132E-04    1.67      96.5  T
     SCC iter.                  ...        0 min,  0.060 sec
     gradient                   ...        0 min,  0.093 sec
 * total energy  :   -94.8780682 Eh     change       -0.1167015E-04 Eh
   gradient norm :     0.0011793 Eh/α   predicted    -0.7225739E-05 ( -38.08%)
   displ. norm   :     0.0898075 α      lambda       -0.2216530E-04
   maximum displ.:     0.0493996 α      in ANC's #13, #5, #15, ...

........................................................................
.............................. CYCLE   23 ..............................
........................................................................

 iter      E             dE          RMSdq      gap      omega  full diag
   1    -96.1879575 -0.961880E+02  0.208E-02    1.67       0.0  T
   2    -96.1879584 -0.878965E-06  0.122E-02    1.67       1.0  T
   3    -96.1879581  0.273248E-06  0.331E-03    1.66       3.8  T
   4    -96.1879585 -0.349682E-06  0.105E-03    1.67      12.1  T
   5    -96.1879585 -0.490104E-07  0.370E-04    1.67      34.4  T
   6    -96.1879585 -0.200390E-08  0.208E-04    1.67      61.0  T
     SCC iter.                  ...        0 min,  0.025 sec
     gradient                   ...        0 min,  0.093 sec
 * total energy  :   -94.8780839 Eh     change       -0.1560375E-04 Eh
   gradient norm :     0.0019536 Eh/α   predicted    -0.1112252E-04 ( -28.72%)
   displ. norm   :     0.0367441 α      lambda       -0.6613619E-05
   maximum displ.:     0.0179160 α      in ANC's #13, #5, #6, ...

........................................................................
.............................. CYCLE   24 ..............................
........................................................................

 iter      E             dE          RMSdq      gap      omega  full diag
   1    -96.1878613 -0.961879E+02  0.749E-03    1.66       0.0  T
   2    -96.1878614 -0.405737E-07  0.441E-03    1.66       2.9  T
   3    -96.1878614  0.182609E-07  0.737E-04    1.66      17.2  T
   4    -96.1878614 -0.270478E-07  0.217E-04    1.66      58.6  T
     SCC iter.                  ...        0 min,  0.062 sec
     gradient                   ...        0 min,  0.047 sec
 * total energy  :   -94.8780932 Eh     change       -0.9393171E-05 Eh
   gradient norm :     0.0014350 Eh/α   predicted    -0.3492169E-05 ( -62.82%)
   displ. norm   :     0.2117034 α      lambda       -0.3046755E-04
   maximum displ.:     0.1040126 α      in ANC's #13, #5, #6, ...

........................................................................
.............................. CYCLE   25 ..............................
........................................................................

 iter      E             dE          RMSdq      gap      omega  full diag
   1    -96.1871507 -0.961872E+02  0.423E-02    1.66       0.0  T
   2    -96.1871515 -0.822201E-06  0.249E-02    1.66       1.0  T
   3    -96.1871513  0.158441E-06  0.286E-03    1.66       4.4  T
   4    -96.1871517 -0.359428E-06  0.110E-03    1.67      11.6  T
   5    -96.1871517 -0.324024E-07  0.575E-04    1.67      22.1  T
   6    -96.1871517 -0.316003E-08  0.240E-04    1.67      53.0  T
     SCC iter.                  ...        0 min,  0.026 sec
     gradient                   ...        0 min,  0.086 sec
 * total energy  :   -94.8781167 Eh     change       -0.2348236E-04 Eh
   gradient norm :     0.0023032 Eh/α   predicted    -0.1556656E-04 ( -33.71%)
   displ. norm   :     0.0199795 α      lambda       -0.7536432E-05
   maximum displ.:     0.0098232 α      in ANC's #6, #5, #8, ...

........................................................................
.............................. CYCLE   26 ..............................
........................................................................

 iter      E             dE          RMSdq      gap      omega  full diag
   1    -96.1875176 -0.961875E+02  0.439E-03    1.67       0.0  T
   2    -96.1875176 -0.283098E-07  0.256E-03    1.67       5.0  T
   3    -96.1875176  0.197478E-07  0.714E-04    1.67      17.8  T
   4    -96.1875176 -0.216330E-07  0.257E-04    1.67      49.5  T
     SCC iter.                  ...        0 min,  0.068 sec
     gradient                   ...        0 min,  0.047 sec
 * total energy  :   -94.8781229 Eh     change       -0.6199028E-05 Eh
   gradient norm :     0.0016254 Eh/α   predicted    -0.3771238E-05 ( -39.16%)
   displ. norm   :     0.1361961 α      lambda       -0.1646030E-04
   maximum displ.:     0.0594638 α      in ANC's #13, #6, #5, ...

........................................................................
.............................. CYCLE   27 ..............................
........................................................................

 iter      E             dE          RMSdq      gap      omega  full diag
   1    -96.1881936 -0.961882E+02  0.274E-02    1.67       0.0  T
   2    -96.1881940 -0.371374E-06  0.161E-02    1.67       1.0  T
   3    -96.1881931  0.877260E-06  0.409E-03    1.67       3.1  T
   4    -96.1881941 -0.100234E-05  0.870E-04    1.67      14.6  T
   5    -96.1881942 -0.293651E-07  0.377E-04    1.67      33.7  T
   6    -96.1881942 -0.232419E-09  0.161E-04    1.67      79.0  T
     SCC iter.                  ...        0 min,  0.025 sec
     gradient                   ...        0 min,  0.097 sec
 * total energy  :   -94.8781379 Eh     change       -0.1493807E-04 Eh
   gradient norm :     0.0010649 Eh/α   predicted    -0.8298328E-05 ( -44.45%)
   displ. norm   :     0.1399653 α      lambda        0.3005569E-05
   maximum displ.:     0.0612314 α      in ANC's #13, #6, #5, ...

........................................................................
.............................. CYCLE   28 ..............................
........................................................................

 iter      E             dE          RMSdq      gap      omega  full diag
   1    -96.1884562 -0.961885E+02  0.281E-02    1.67       0.0  T
   2    -96.1884564 -0.269620E-06  0.166E-02    1.67       1.0  T
   3    -96.1884555  0.952400E-06  0.421E-03    1.67       3.0  T
   4    -96.1884566 -0.109571E-05  0.722E-04    1.67      17.6  T
   5    -96.1884566 -0.143558E-07  0.371E-04    1.67      34.2  T
   6    -96.1884566 -0.499739E-09  0.149E-04    1.67      85.1  T
     SCC iter.                  ...        0 min,  0.082 sec
     gradient                   ...        0 min,  0.096 sec
 * total energy  :   -94.8781394 Eh     change       -0.1491264E-05 Eh
   gradient norm :     0.0020912 Eh/α   predicted     0.1512941E-05 (-201.45%)
   displ. norm   :     0.0644225 α      lambda       -0.9675786E-05
   maximum displ.:     0.0343129 α      in ANC's #13, #5, #6, ...

........................................................................
.............................. CYCLE   29 ..............................
........................................................................

 iter      E             dE          RMSdq      gap      omega  full diag
   1    -96.1878370 -0.961878E+02  0.141E-02    1.67       0.0  T
   2    -96.1878371 -0.846985E-07  0.830E-03    1.67       1.5  T
   3    -96.1878369  0.223725E-06  0.214E-03    1.67       5.9  T
   4    -96.1878371 -0.262572E-06  0.406E-04    1.67      31.2  T
   5    -96.1878371 -0.433563E-08  0.206E-04    1.67      61.6  T
     SCC iter.                  ...        0 min,  0.072 sec
     gradient                   ...        0 min,  0.098 sec
 * total energy  :   -94.8781454 Eh     change       -0.5998133E-05 Eh
   gradient norm :     0.0012960 Eh/α   predicted    -0.4865810E-05 ( -18.88%)
   displ. norm   :     0.0402967 α      lambda       -0.8973821E-05
   maximum displ.:     0.0175801 α      in ANC's #12, #15, #6, ...

........................................................................
.............................. CYCLE   30 ..............................
........................................................................

 iter      E             dE          RMSdq      gap      omega  full diag
   1    -96.1879703 -0.961880E+02  0.117E-02    1.67       0.0  T
   2    -96.1879705 -0.207166E-06  0.686E-03    1.67       1.9  T
   3    -96.1879704  0.131354E-06  0.180E-03    1.67       7.1  T
   4    -96.1879705 -0.156221E-06  0.599E-04    1.67      21.2  T
   5    -96.1879705 -0.162920E-07  0.202E-04    1.67      62.8  T
     SCC iter.                  ...        0 min,  0.021 sec
     gradient                   ...        0 min,  0.097 sec
 * total energy  :   -94.8781500 Eh     change       -0.4678192E-05 Eh
   gradient norm :     0.0012156 Eh/α   predicted    -0.4494092E-05 (  -3.94%)
   displ. norm   :     0.0448328 α      lambda       -0.4158053E-05
   maximum displ.:     0.0184212 α      in ANC's #5, #13, #12, ...

........................................................................
.............................. CYCLE   31 ..............................
........................................................................

 iter      E             dE          RMSdq      gap      omega  full diag
   1    -96.1878684 -0.961879E+02  0.124E-02    1.67       0.0  T
   2    -96.1878684 -0.333637E-07  0.731E-03    1.67       1.7  T
   3    -96.1878682  0.274577E-06  0.228E-03    1.67       5.6  T
   4    -96.1878685 -0.310638E-06  0.258E-04    1.67      49.3  T
   5    -96.1878685 -0.103262E-08  0.150E-04    1.67      84.5  T
     SCC iter.                  ...        0 min,  0.021 sec
     gradient                   ...        0 min,  0.098 sec
 * total energy  :   -94.8781542 Eh     change       -0.4176864E-05 Eh
   gradient norm :     0.0008002 Eh/α   predicted    -0.2098281E-05 ( -49.76%)
   displ. norm   :     0.0558289 α      lambda       -0.3477188E-05
   maximum displ.:     0.0227390 α      in ANC's #8, #12, #4, ...

   *** GEOMETRY OPTIMIZATION CONVERGED AFTER 31 ITERATIONS ***

------------------------------------------------------------------------
 total energy gain   :        -0.0266695 Eh      -16.7354 kcal/mol
 total RMSD          :         0.3977616 a0        0.2105 Å
 total power (kW/mol):        -2.2587366 (step)  -14.3202 (real)
------------------------------------------------------------------------

 ANCopt (total)                0 d,  0 h,  0 min,  4.890 sec
 optimizer setup                ...        0 min,  0.000 sec (  0.002%)
 model hessian                  ...        0 min,  0.098 sec (  2.003%)
 ANC generation                 ...        0 min,  0.007 sec (  0.136%)
 coordinate transformation      ...        0 min,  0.000 sec (  0.010%)
 single point calculation       ...        0 min,  4.734 sec ( 96.816%)
 optimization log               ...        0 min,  0.044 sec (  0.904%)
 hessian update                 ...        0 min,  0.001 sec (  0.014%)
 rational function              ...        0 min,  0.003 sec (  0.058%)

================
 final structure:
================
62
 xtb: 6.7.1 (edcfbbe)
C           -7.07840773911526       -2.59625882595972       -2.27384468384002
C           -6.21482154194337       -3.02612621238333       -1.12443027170336
C           -4.99493879493038       -2.19078185154246       -0.88909278708076
C           -3.76727584475924       -2.76213406159935       -0.71383203217575
C           -3.52964690386273       -4.23717162306401       -0.77512859136783
C           -2.64442258497141       -1.90612803397993       -0.49653934944304
C           -1.32274527853022       -2.33676838802089       -0.32211965054861
N           -0.31368263600088       -1.52780538936058       -0.11004335549723
C           -0.59098582153747       -0.21460968506763       -0.06346951436585
N            0.39058027027326        0.68178935635782        0.15649669684934
C            1.75315086802362        0.51841219567538        0.36451037439502
N            2.39713085573779        1.66983211113624        0.53030096728931
C            3.69729253135904        1.65918562561750        0.73196261021885
C            4.47172537091308        0.48901930510481        0.79421828439647
C            3.77107461556588       -0.71727905905996        0.62341507053717
C            2.41034846047938       -0.70980994056000        0.40460780178628
N            5.81928771231693        0.51736460888493        1.02023380707568
C            6.49429134379507        1.71233970978839        1.47748387476826
C            7.74621006308020        1.32280775564769        2.25784004353404
N            8.70399074805996        0.65259974863422        1.38710251450001
C            8.06055683878790       -0.09570956477088        0.31989224918158
C            6.66923223664586       -0.61039845998525        0.70471684368951
N           -1.80322369303209        0.31710003671364       -0.21999419645970
C           -2.82604912713424       -0.50065428056682       -0.43033709918757
N           -4.06356601843911        0.03853363606817       -0.58293830392225
C           -4.26548205589765        1.48183600446823       -0.50693760953527
C           -3.45392484052701        2.28398903790648       -1.54603526582408
C           -2.70030337742020        3.35239292333482       -0.74873608834177
C           -3.51794858055863        3.51384979154366        0.52986757921427
C           -3.91543250792104        2.08021647672412        0.86342573106021
C           -5.19456165389657       -0.74537920178565       -0.82033571856180
O           -6.28306579214813       -0.20784148893807       -0.93899838320557
O           -6.46951673749045       -3.99240275668462       -0.44255475999500
H           -7.54714414247239       -1.64912372390711       -2.01046488496933
H           -6.47234585645291       -2.43159745334057       -3.16247950821808
H           -7.84083973643866       -3.34723001308294       -2.46478552052100
H           -3.12256285638958       -4.58145955027800        0.17451835215517
H           -4.44842766649908       -4.78053673762987       -0.96339132518854
H           -2.80885558822249       -4.46898121841303       -1.55877481094890
H           -1.06755597172517       -3.38721190619789       -0.35322642329252
H            0.09282244923953        1.64989995408612        0.17408797723156
H            4.14186383070209        2.63824590165693        0.83625191549114
H            4.28711695516513       -1.66296077597936        0.67862729566731
H            1.85521343295424       -1.62210831146611        0.27384948069106
H            5.82675796420902        2.26656218484624        2.14153538889957
H            6.77527715003770        2.36614586496444        0.64015944813541
H            7.43748550111193        0.69560907611030        3.10910171652408
H            8.22242547106089        2.22288264410192        2.65908958709918
H            9.30554438875449        0.05478174027394        1.94149857906971
H            7.95578080262628        0.56847221709603       -0.54595503377062
H            8.69733569318853       -0.93030127221479        0.02350207941593
H            6.75032674591473       -1.29738126770953        1.56157730834703
H            6.24753068698861       -1.16252862353807       -0.13951075923592
H           -5.33388316906268        1.61636447341864       -0.69510717422021
H           -2.77006665276170        1.64081422601603       -2.09578450967931
H           -4.13323914306958        2.74533731578522       -2.26292174339767
H           -2.59996404524697        4.28456770143960       -1.30258183685022
H           -1.70507829123352        2.98705994186133       -0.49795656538003
H           -4.40891978875627        4.11236642597564        0.33300760509718
H           -2.95333900304568        3.98641771303126        1.33201470970834
H           -4.75395779881609        2.01956132572774        1.55572168085752
H           -3.06427174668117        1.55232264708758        1.29059018384194

 Bond Distances (Angstroems)
 ---------------------------
C1-C2=1.5006         C1-H34=1.0891        C1-H35=1.0882        C1-H36=1.0871        C2-C1=1.5006         C2-C3=1.4971         
C2-O33=1.2098        C3-C2=1.4971         C3-C4=1.3654         C3-C31=1.4607        C4-C3=1.3654         C4-C5=1.4953         
C4-C6=1.4286         C5-C4=1.4953         C5-H37=1.0891        C5-H38=1.0839        C5-H39=1.0897        C6-C4=1.4286         
C6-C7=1.4010         C6-C24=1.4187        C7-C6=1.4010         C7-N8=1.3106         C7-H40=1.0814        N8-C7=1.3106         
N8-C9=1.3430         C9-N8=1.3430         C9-N10=1.3474        C9-N23=1.3329        N10-C9=1.3474        N10-C11=1.3880       
N10-H41=1.0130       C11-N10=1.3880       C11-N12=1.3296       C11-C16=1.3936       N12-C11=1.3296       N12-C13=1.3158       
C13-N12=1.3158       C13-C14=1.4046       C13-H42=1.0803       C14-C13=1.4046       C14-C15=1.4054       C14-N17=1.3667       
C15-C14=1.4054       C15-C16=1.3782       C15-H43=1.0787       C16-C11=1.3936       C16-C15=1.3782       C16-H44=1.0759       
N17-C14=1.3667       N17-C18=1.4466       N17-C22=1.4470       C18-N17=1.4466       C18-C19=1.5258       C18-H45=1.0926       
C18-H46=1.0989       C19-C18=1.5258       C19-N20=1.4576       C19-H47=1.1015       C19-H48=1.0945       N20-C19=1.4576       
N20-C21=1.4536       N20-H49=1.0132       C21-N20=1.4536       C21-C22=1.5326       C21-H50=1.0963       C21-H51=1.0908       
C22-N17=1.4470       C22-C21=1.5326       C22-H52=1.1012       C22-H53=1.0933       N23-C9=1.3329        N23-C24=1.3263       
C24-C6=1.4187        C24-N23=1.3263       C24-N25=1.3585       N25-C24=1.3585       N25-C26=1.4593       N25-C31=1.3964       
C26-N25=1.4593       C26-C27=1.5433       C26-C30=1.5357       C26-H54=1.0932       C27-C26=1.5433       C27-C28=1.5314       
C27-H55=1.0879       C27-H56=1.0901       C28-C27=1.5314       C28-C29=1.5263       C28-H57=1.0889       C28-H58=1.0894       
C29-C28=1.5263       C29-C30=1.5247       C29-H59=1.0912       C29-H60=1.0888       C30-C26=1.5357       C30-C29=1.5247       
C30-H61=1.0891       C30-H62=1.0889       C31-C3=1.4607        C31-N25=1.3964       C31-O32=1.2198       O32-C31=1.2198       
O33-C2=1.2098        H34-C1=1.0891        H35-C1=1.0882        H36-C1=1.0871        H37-C5=1.0891        H38-C5=1.0839        
H39-C5=1.0897        H40-C7=1.0814        H41-N10=1.0130       H42-C13=1.0803       H43-C15=1.0787       H44-C16=1.0759       
H45-C18=1.0926       H46-C18=1.0989       H47-C19=1.1015       H48-C19=1.0945       H49-N20=1.0132       H50-C21=1.0963       
H51-C21=1.0908       H52-C22=1.1012       H53-C22=1.0933       H54-C26=1.0932       H55-C27=1.0879       H56-C27=1.0901       
H57-C28=1.0889       H58-C28=1.0894       H59-C29=1.0912       H60-C29=1.0888       H61-C30=1.0891       H62-C30=1.0889       
 C  H  Rav=1.0896 sigma=0.0060  Rmin=1.0759  Rmax=1.1015    27
 C  C  Rav=1.4668 sigma=0.0614  Rmin=1.3654  Rmax=1.5433    19
 N  H  Rav=1.0131 sigma=0.0001  Rmin=1.0130  Rmax=1.0132     2
 N  C  Rav=1.3800 sigma=0.0540  Rmin=1.3106  Rmax=1.4593    16
 O  C  Rav=1.2148 sigma=0.0050  Rmin=1.2098  Rmax=1.2198     2

 selected bond angles (degree)
 --------------------
H34-C1-C2=108.15               H35-C1-C2=110.39               H35-C1-H34=107.79              H36-C1-C2=109.89               
H36-C1-H34=109.96              H36-C1-H35=110.59              C3-C2-C1=115.44                O33-C2-C1=122.64               
O33-C2-C3=121.91               C4-C3-C2=121.29                C31-C3-C2=116.63               C31-C3-C4=122.07               
C5-C4-C3=123.39                C6-C4-C3=118.39                C6-C4-C5=118.19                H37-C5-C4=109.60               
H38-C5-C4=111.53               H38-C5-H37=108.05              H39-C5-C4=110.15               H39-C5-H37=108.22              
H39-C5-H38=109.22              C7-C6-C4=125.19                C24-C6-C4=120.01               C24-C6-C7=114.80               
N8-C7-C6=123.83                H40-C7-C6=121.17               H40-C7-N8=114.99               C9-N8-C7=116.76                
N10-C9-N8=120.38               N23-C9-N8=125.01               N23-C9-N10=114.60              C11-N10-C9=131.40              
H41-N10-C9=115.12              H41-N10-C11=113.48             

 selected dihedral angles (degree)
 ---------------------------------
C3-C2-C1-H34=290.92           C3-C2-C1-H35= 48.63           C3-C2-C1-H36=170.87           O33-C2-C1-H34=111.99          
O33-C2-C1-H35=229.70          O33-C2-C1-H36=351.94          C4-C3-C2-C1=228.38            C4-C3-C2-O33= 47.31           
C31-C3-C2-C1= 50.03           C31-C3-C2-O33=228.97          C5-C4-C3-C2=  1.62            C5-C4-C3-C31=179.87           
C6-C4-C3-C2=179.86            C6-C4-C3-C31=358.11           H37-C5-C4-C3=239.80           H37-C5-C4-C6= 61.55           
H38-C5-C4-C3=359.40           H38-C5-C4-C6=181.16           H39-C5-C4-C3=120.85           H39-C5-C4-C6=302.60           
C7-C6-C4-C3=181.08            C7-C6-C4-C5=359.42            C24-C6-C4-C3=  1.73           C24-C6-C4-C5=180.06           
N8-C7-C6-C4=180.76            N8-C7-C6-C24=  0.14           H40-C7-C6-C4=  0.62           H40-C7-C6-C24=180.00          
C9-N8-C7-C6=359.92            C9-N8-C7-H40=180.06           N10-C9-N8-C7=179.70           N23-C9-N8-C7=359.77           
C11-N10-C9-N8=  0.00          C11-N10-C9-N23=179.92         H41-N10-C9-N8=179.89          H41-N10-C9-N23=359.83         
           -------------------------------------------------
          |                Final Singlepoint                |
           -------------------------------------------------

          ...................................................
          :                      SETUP                      :
          :.................................................:
          :  # basis functions                 161          :
          :  # atomic orbitals                 161          :
          :  # shells                           95          :
          :  # electrons                       172          :
          :  max. iterations                   250          :
          :  Hamiltonian                  GFN2-xTB          :
          :  restarted?                      false          :
          :  GBSA solvation                  false          :
          :  PC potential                    false          :
          :  electronic temp.          300.0000000     K    :
          :  accuracy                    1.0000000          :
          :  -> integral cutoff          0.2500000E+02      :
          :  -> integral neglect         0.1000000E-07      :
          :  -> SCF convergence          0.1000000E-05 Eh   :
          :  -> wf. convergence          0.1000000E-03 e    :
          :  Broyden damping             0.4000000          :
          :  net charge                          0          :
          :  unpaired electrons                  0          :
          ...................................................

 iter      E             dE          RMSdq      gap      omega  full diag
   1    -96.1878685 -0.961879E+02  0.529E-05    1.67       0.0  T
   2    -96.1878685 -0.273985E-10  0.342E-05    1.67     371.6  T
   3    -96.1878685 -0.973444E-11  0.234E-05    1.67     541.8  T

   *** convergence criteria satisfied after 3 iterations ***

         #    Occupation            Energy/Eh            Energy/eV
      -------------------------------------------------------------
         1        2.0000           -0.7028617             -19.1258
       ...           ...                  ...                  ...
        80        2.0000           -0.3990356             -10.8583
        81        2.0000           -0.3899380             -10.6108
        82        2.0000           -0.3850510             -10.4778
        83        2.0000           -0.3747010             -10.1961
        84        2.0000           -0.3706042             -10.0847
        85        2.0000           -0.3686839             -10.0324
        86        2.0000           -0.3500822              -9.5262 (HOMO)
        87                         -0.2886427              -7.8544 (LUMO)
        88                         -0.2586297              -7.0377
        89                         -0.2413645              -6.5679
        90                         -0.2342938              -6.3755
        91                         -0.2253224              -6.1313
       ...                                ...                  ...
       161                          0.6928647              18.8538
      -------------------------------------------------------------
                  HL-Gap            0.0614395 Eh            1.6719 eV
             Fermi-level           -0.3193625 Eh           -8.6903 eV

 SCC (total)                   0 d,  0 h,  0 min,  0.124 sec
 SCC setup                      ...        0 min,  0.001 sec (  0.473%)
 Dispersion                     ...        0 min,  0.001 sec (  0.512%)
 classical contributions        ...        0 min,  0.000 sec (  0.247%)
 integral evaluation            ...        0 min,  0.013 sec ( 10.223%)
 iterations                     ...        0 min,  0.013 sec ( 10.300%)
 molecular gradient             ...        0 min,  0.096 sec ( 78.002%)
 printout                       ...        0 min,  0.000 sec (  0.238%)

         :::::::::::::::::::::::::::::::::::::::::::::::::::::
         ::                     SUMMARY                     ::
         :::::::::::::::::::::::::::::::::::::::::::::::::::::
         :: total energy             -94.878154209759 Eh    ::
         :: gradient norm              0.000801296370 Eh/a0 ::
         :: HOMO-LUMO gap              1.671852966357 eV    ::
         ::.................................................::
         :: SCC energy               -96.188096958145 Eh    ::
         :: -> isotropic ES            0.110125653695 Eh    ::
         :: -> anisotropic ES          0.006523508586 Eh    ::
         :: -> anisotropic XC          0.052664022736 Eh    ::
         :: -> dispersion             -0.071466143525 Eh    ::
         :: repulsion energy           1.309942748386 Eh    ::
         :: add. restraining           0.000000000000 Eh    ::
         :: total charge              -0.000000000000 e     ::
         :::::::::::::::::::::::::::::::::::::::::::::::::::::

           -------------------------------------------------
          |                Property Printout                |
           -------------------------------------------------

    * Orbital Energies and Occupations

         #    Occupation            Energy/Eh            Energy/eV
      -------------------------------------------------------------
         1        2.0000           -0.7028617             -19.1258
       ...           ...                  ...                  ...
        74        2.0000           -0.4314606             -11.7406
        75        2.0000           -0.4297762             -11.6948
        76        2.0000           -0.4246940             -11.5565
        77        2.0000           -0.4190182             -11.4021
        78        2.0000           -0.4150330             -11.2936
        79        2.0000           -0.4053916             -11.0313
        80        2.0000           -0.3990356             -10.8583
        81        2.0000           -0.3899380             -10.6108
        82        2.0000           -0.3850510             -10.4778
        83        2.0000           -0.3747010             -10.1961
        84        2.0000           -0.3706042             -10.0847
        85        2.0000           -0.3686839             -10.0324
        86        2.0000           -0.3500822              -9.5262 (HOMO)
        87                         -0.2886427              -7.8544 (LUMO)
        88                         -0.2586297              -7.0377
        89                         -0.2413645              -6.5679
        90                         -0.2342938              -6.3755
        91                         -0.2253224              -6.1313
        92                         -0.1995876              -5.4311
        93                         -0.1558994              -4.2422
        94                         -0.0979804              -2.6662
        95                         -0.0864239              -2.3517
        96                         -0.0220089              -0.5989
        97                         -0.0165558              -0.4505
       ...                                ...                  ...
       161                          0.6928647              18.8538
      -------------------------------------------------------------
                  HL-Gap            0.0614395 Eh            1.6719 eV
             Fermi-level           -0.3193625 Eh           -8.6903 eV

     #   Z          covCN         q      C6AA      α(0)
     1   6 C        3.754    -0.141    23.272     6.879
     2   6 C        2.817     0.251    22.787     7.821
     3   6 C        2.964    -0.069    29.706     8.940
     4   6 C        2.957     0.034    27.241     8.561
     5   6 C        3.758    -0.115    22.747     6.800
     6   6 C        2.979    -0.054    29.324     8.883
     7   6 C        2.925     0.076    26.293     8.409
     8   7 N        1.837    -0.282    28.164     7.865
     9   6 C        2.883     0.238    23.038     7.869
    10   7 N        2.727    -0.135    23.917     7.263
    11   6 C        2.890     0.137    25.000     8.198
    12   7 N        1.852    -0.256    27.526     7.776
    13   6 C        2.906     0.028    27.380     8.580
    14   6 C        2.904     0.045    26.998     8.520
    15   6 C        2.933    -0.045    29.126     8.851
    16   6 C        2.910    -0.060    29.499     8.906
    17   7 N        2.741    -0.101    23.212     7.156
    18   6 C        3.748     0.001    20.634     6.479
    19   6 C        3.745     0.014    20.410     6.444
    20   7 N        2.678    -0.257    26.681     7.672
    21   6 C        3.746     0.008    20.506     6.459
    22   6 C        3.746     0.001    20.632     6.479
    23   7 N        1.862    -0.311    28.902     7.968
    24   6 C        2.917     0.167    24.405     8.101
    25   7 N        2.749    -0.071    22.617     7.063
    26   6 C        3.822     0.036    19.960     6.358
    27   6 C        3.819    -0.063    21.691     6.628
    28   6 C        3.827    -0.060    21.626     6.617
    29   6 C        3.829    -0.058    21.591     6.611
    30   6 C        3.826    -0.065    21.723     6.632
    31   6 C        2.777     0.264    22.554     7.778
    32   8 O        0.859    -0.441    22.523     6.363
    33   8 O        0.857    -0.367    21.035     6.149
    34   1 H        0.925     0.106     1.735     2.060
    35   1 H        0.925     0.057     2.236     2.339
    36   1 H        0.925     0.064     2.148     2.292
    37   1 H        0.925     0.064     2.158     2.297
    38   1 H        0.925     0.072     2.062     2.246
    39   1 H        0.925     0.053     2.288     2.366
    40   1 H        0.925     0.048     2.339     2.391
    41   1 H        0.860     0.209     1.062     1.614
    42   1 H        0.926     0.033     2.540     2.492
    43   1 H        0.926     0.032     2.560     2.502
    44   1 H        0.926     0.068     2.111     2.272
    45   1 H        0.924     0.047     2.357     2.401
    46   1 H        0.923     0.043     2.407     2.426
    47   1 H        0.923     0.019     2.755     2.596
    48   1 H        0.924     0.043     2.413     2.429
    49   1 H        0.860     0.137     1.493     1.914
    50   1 H        0.924     0.045     2.387     2.416
    51   1 H        0.924     0.037     2.493     2.469
    52   1 H        0.923     0.030     2.586     2.515
    53   1 H        0.924     0.043     2.411     2.428
    54   1 H        0.924     0.081     1.973     2.197
    55   1 H        0.925     0.043     2.413     2.429
    56   1 H        0.925     0.039     2.463     2.454
    57   1 H        0.925     0.035     2.517     2.481
    58   1 H        0.925     0.043     2.415     2.430
    59   1 H        0.924     0.037     2.483     2.464
    60   1 H        0.925     0.036     2.506     2.475
    61   1 H        0.925     0.037     2.484     2.465
    62   1 H        0.925     0.052     2.296     2.370

 Mol. C6AA /au·bohr⁶  :      42306.200049
 Mol. C8AA /au·bohr⁸  :     982114.135339
 Mol. α(0) /au        :        315.308205


Wiberg/Mayer (AO) data.
largest (>0.10) Wiberg bond orders for each atom

 ---------------------------------------------------------------------------
     #   Z sym  total        # sym  WBO       # sym  WBO       # sym  WBO
 ---------------------------------------------------------------------------
     1   6 C    3.990 --     2 C    1.013    36 H    0.982    35 H    0.966
                            34 H    0.936
     2   6 C    3.919 --    33 O    1.829     1 C    1.013     3 C    0.999
     3   6 C    3.960 --     4 C    1.577    31 C    1.082     2 C    0.999
     4   6 C    3.976 --     3 C    1.577     6 C    1.178     5 C    1.034
     5   6 C    3.992 --     4 C    1.034    38 H    0.977    39 H    0.966
                            37 H    0.962
     6   6 C    3.974 --     7 C    1.328    24 C    1.217     4 C    1.178
     7   6 C    3.956 --     8 N    1.497     6 C    1.328    40 H    0.958
     8   7 N    3.035 --     7 C    1.497     9 C    1.261
     9   6 C    3.956 --    23 N    1.313     8 N    1.261    10 N    1.227
    10   7 N    3.501 --     9 C    1.227    11 C    1.083    41 H    0.918
    11   6 C    3.953 --    12 N    1.357    16 C    1.331    10 N    1.083
    12   7 N    3.049 --    13 C    1.461    11 C    1.357
    13   6 C    3.978 --    12 N    1.461    14 C    1.307    42 H    0.960
    14   6 C    3.961 --    15 C    1.313    13 C    1.307    17 N    1.173
    15   6 C    3.989 --    16 C    1.489    14 C    1.313    43 H    0.966
    16   6 C    3.982 --    15 C    1.489    11 C    1.331    44 H    0.958
    17   7 N    3.396 --    14 C    1.173    18 C    0.995    22 C    0.994
    18   6 C    3.981 --    19 C    1.003    17 N    0.995    45 H    0.968
                            46 H    0.964
    19   6 C    3.988 --    20 N    1.010    18 C    1.003    48 H    0.971
                            47 H    0.971
    20   7 N    3.062 --    21 C    1.016    19 C    1.010    49 H    0.961
    21   6 C    3.987 --    20 N    1.016    22 C    0.991    51 H    0.976
                            50 H    0.970
    22   6 C    3.981 --    17 N    0.994    21 C    0.991    53 H    0.968
                            52 H    0.966
    23   7 N    3.024 --    24 C    1.364     9 C    1.313
    24   6 C    3.965 --    23 N    1.364     6 C    1.217    25 N    1.198
    25   7 N    3.596 --    24 C    1.198    31 C    1.104    26 C    0.957
                            32 O    0.137
    26   6 C    3.948 --    30 C    0.983    27 C    0.980    25 N    0.957
                            54 H    0.956
    27   6 C    3.995 --    28 C    1.006    56 H    0.981    26 C    0.980
                            55 H    0.977
    28   6 C    3.996 --    29 C    1.007    27 C    1.006    57 H    0.980
                            58 H    0.976
    29   6 C    3.996 --    28 C    1.007    30 C    1.007    59 H    0.980
                            60 H    0.979
    30   6 C    3.994 --    29 C    1.007    26 C    0.983    61 H    0.980
                            62 H    0.972
    31   6 C    3.951 --    32 O    1.645    25 N    1.104     3 C    1.082
    32   8 O    1.977 --    31 C    1.645    25 N    0.137
    33   8 O    2.055 --     2 C    1.829
    34   1 H    0.988 --     1 C    0.936
    35   1 H    0.997 --     1 C    0.966
    36   1 H    0.995 --     1 C    0.982
    37   1 H    0.994 --     5 C    0.962
    38   1 H    0.994 --     5 C    0.977
    39   1 H    0.995 --     5 C    0.966
    40   1 H    0.997 --     7 C    0.958
    41   1 H    0.956 --    10 N    0.918
    42   1 H    0.998 --    13 C    0.960
    43   1 H    0.999 --    15 C    0.966
    44   1 H    0.995 --    16 C    0.958
    45   1 H    0.997 --    18 C    0.968
    46   1 H    0.995 --    18 C    0.964
    47   1 H    1.000 --    19 C    0.971
    48   1 H    0.998 --    19 C    0.971
    49   1 H    0.981 --    20 N    0.961
    50   1 H    0.998 --    21 C    0.970
    51   1 H    0.998 --    21 C    0.976
    52   1 H    0.996 --    22 C    0.966
    53   1 H    0.998 --    22 C    0.968
    54   1 H    0.993 --    26 C    0.956
    55   1 H    0.998 --    27 C    0.977
    56   1 H    0.998 --    27 C    0.981
    57   1 H    0.998 --    28 C    0.980
    58   1 H    0.998 --    28 C    0.976
    59   1 H    0.998 --    29 C    0.980
    60   1 H    0.998 --    29 C    0.979
    61   1 H    0.999 --    30 C    0.980
    62   1 H    0.997 --    30 C    0.972
 ---------------------------------------------------------------------------

Topologies differ in total number of bonds
Writing topology from bond orders to xtbtopo.mol

molecular dipole:
                 x           y           z       tot (Debye)
 q only:        3.454       0.873      -0.089
   full:        3.376       0.145      -0.056       8.591
molecular quadrupole (traceless):
                xx          xy          yy          xz          yz          zz
 q only:       -9.460     -19.574       2.731      13.474       6.039       6.729
  q+dip:      -14.477     -27.927       3.077      19.040       5.215      11.399
   full:      -16.796     -27.415       0.262      17.547       6.019      16.534

           -------------------------------------------------
          |                Geometry Summary                 |
           -------------------------------------------------

      molecular mass/u    :      447.5336757
   center of mass at/Å    :       -0.3729358      -0.1765832      -0.0235961
  moments of inertia/u·Å² :        0.1661954E+04   0.1088269E+05   0.1228276E+05
rotational constants/cm⁻¹ :        0.1014326E-01   0.1549032E-02   0.1372462E-02

 * 61 selected distances

     #   Z          #   Z                                           value/Å
     3   6 C        4   6 C                                       1.3653997
     4   6 C        6   6 C                                       1.4285525
     6   6 C        7   6 C                                       1.4009656
     7   6 C        8   7 N                                       1.3105744
     8   7 N        9   6 C                                       1.3429629
     9   6 C       10   7 N                                       1.3473636
    10   7 N       11   6 C                                       1.3880060
    11   6 C       12   7 N                                       1.3296484
    12   7 N       13   6 C                                       1.3157513
    13   6 C       14   6 C                                       1.4046037
    14   6 C       15   6 C                                       1.4054328
    11   6 C       16   6 C                                       1.3935733
    15   6 C       16   6 C                                       1.3782266
    14   6 C       17   7 N                                       1.3666789
    17   7 N       18   6 C                                       1.4466076
    18   6 C       19   6 C                                       1.5257758
    19   6 C       20   7 N                                       1.4576374
    20   7 N       21   6 C                                       1.4535860
    17   7 N       22   6 C                                       1.4469992
    21   6 C       22   6 C                                       1.5325727
     9   6 C       23   7 N                                       1.3329427
     6   6 C       24   6 C                                       1.4187064
    23   7 N       24   6 C                                       1.3263252
    24   6 C       25   7 N                                       1.3584768
    25   7 N       26   6 C                                       1.4593383
    27   6 C       28   6 C                                       1.5313780
    28   6 C       29   6 C                                       1.5262502
    26   6 C       30   6 C                                       1.5357376 (max)
    29   6 C       30   6 C                                       1.5246506
    25   7 N       31   6 C                                       1.3964342
    31   6 C       32   8 O                                       1.2197824
     2   6 C       33   8 O                                       1.2097580
     1   6 C       34   1 H                                       1.0891042
     1   6 C       35   1 H                                       1.0881620
     1   6 C       36   1 H                                       1.0870689
     5   6 C       37   1 H                                       1.0890735
     5   6 C       38   1 H                                       1.0839035
     5   6 C       39   1 H                                       1.0896685
     7   6 C       40   1 H                                       1.0814439
    10   7 N       41   1 H                                       1.0130190 (min)
    13   6 C       42   1 H                                       1.0803144
    15   6 C       43   1 H                                       1.0787318
    16   6 C       44   1 H                                       1.0759002
    18   6 C       45   1 H                                       1.0925786
    18   6 C       46   1 H                                       1.0988758
    19   6 C       47   1 H                                       1.1015152
[...]
    2    7 N      8, 10, 12, 17, 20, 23, 25
    3    8 O      32, 33
    4    1 H      34-62

           -------------------------------------------------
          |                Calculation Setup                |
           -------------------------------------------------

          program call               : xtb /rds/general/user/hgt20/home/callum/QDESCP/Palbociclib_rdkit_conf_24/Palbociclib_rdkit_conf_24.xyz --acc 1 --gfn 2 --chrg 0 --uhf 2 --etemp 300 --input /rds/general/user/hgt20/home/callum/QDESCP/Palbociclib_rdkit_conf_24/Palbociclib_rdkit_conf_24_xtb.inp -P 1
          hostname                   : login-c
          coordinate file            : /rds/general/user/hgt20/home/callum/QDESCP/Palbociclib_rdkit_conf_24/Palbociclib_rdkit_conf_24.xyz
          omp threads                :                     1


           -------------------------------------------------
          |                 G F N 2 - x T B                 |
           -------------------------------------------------

        Reference                      10.1021/acs.jctc.8b01176
      * Hamiltonian:
        H0-scaling (s, p, d)           1.850000    2.230000    2.230000
        zeta-weighting                 0.500000
      * Dispersion:
        s8                             2.700000
        a1                             0.520000
        a2                             5.000000
        s9                             5.000000
      * Repulsion:
        kExp                           1.500000    1.000000
        rExp                           1.000000
      * Coulomb:
        alpha                          2.000000
        third order                    shell-resolved
        anisotropic                    true
        a3                             3.000000
        a5                             4.000000
        cn-shift                       1.200000
        cn-exp                         4.000000
        max-rad                        5.000000


          ...................................................
          :                      SETUP                      :
          :.................................................:
          :  # basis functions                 161          :
          :  # atomic orbitals                 161          :
          :  # shells                           95          :
          :  # electrons                       172          :
          :  max. iterations                   250          :
          :  Hamiltonian                  GFN2-xTB          :
          :  restarted?                      false          :
          :  GBSA solvation                  false          :
          :  PC potential                    false          :
          :  electronic temp.          300.0000000     K    :
          :  accuracy                    1.0000000          :
          :  -> integral cutoff          0.2500000E+02      :
          :  -> integral neglect         0.1000000E-07      :
          :  -> SCF convergence          0.1000000E-05 Eh   :
          :  -> wf. convergence          0.1000000E-03 e    :
          :  Broyden damping             0.4000000          :
          :  net charge                          0          :
          :  unpaired electrons                  2          :
          ...................................................

 iter      E             dE          RMSdq      gap      omega  full diag
   1    -95.8208898 -0.958209E+02  0.376E+00    0.87       0.0  T
   2    -95.6725930  0.148297E+00  0.283E+00    0.51       1.0  T
   3    -95.8101117 -0.137519E+00  0.199E+00    0.82       1.0  T
   4    -96.0472780 -0.237166E+00  0.104E+00    0.24       1.0  T
   5    -96.0027608  0.445171E-01  0.950E-01    0.55       1.0  T
   6    -96.0308907 -0.281299E-01  0.750E-01    0.59       1.0  T
   7    -96.0761250 -0.452343E-01  0.438E-01    0.39       1.0  T
   8    -96.0914771 -0.153520E-01  0.302E-01    0.48       1.0  T
   9    -96.1005340 -0.905696E-02  0.158E-01    0.34       1.0  T
  10    -96.0998368  0.697271E-03  0.119E-01    0.34       1.0  T
  11    -96.1012434 -0.140670E-02  0.526E-02    0.34       1.0  T
  12    -96.1013393 -0.958429E-04  0.217E-02    0.33       1.0  T
  13    -96.1013244  0.148514E-04  0.224E-02    0.32       1.0  T
  14    -96.1013937 -0.692393E-04  0.530E-03    0.32       2.4  T
  15    -96.1013945 -0.851940E-06  0.179E-03    0.32       7.1  T
  16    -96.1013943  0.206569E-06  0.172E-03    0.32       7.4  T
  17    -96.1013945 -0.148977E-06  0.113E-03    0.32      11.2  T
  18    -96.1013946 -0.174294E-06  0.477E-04    0.32      26.6  T
  19    -96.1013947 -0.230673E-07  0.190E-04    0.32      66.7  T

   *** convergence criteria satisfied after 19 iterations ***

         #    Occupation            Energy/Eh            Energy/eV
      -------------------------------------------------------------
         1        2.0000           -0.6953698             -18.9220
       ...           ...                  ...                  ...
        81        2.0000           -0.3847550             -10.4697
        82        2.0000           -0.3824457             -10.4069
        83        2.0000           -0.3777160             -10.2782
        84        1.9399           -0.3676524             -10.0043
        85        1.7558           -0.3661126              -9.9624
        86        1.3043           -0.3642538              -9.9119
        87        0.9981           -0.2687081              -7.3119 (HOMO)
        88        0.0019           -0.2567727              -6.9871 (LUMO)
        89                         -0.2449401              -6.6652
        90                         -0.2311493              -6.2899
        91                         -0.2103323              -5.7234
        92                         -0.1961489              -5.3375
       ...                                ...                  ...
       161                          0.7141974              19.4343
      -------------------------------------------------------------
                  HL-Gap            0.0119354 Eh            0.3248 eV
             Fermi-level           -0.3138899 Eh           -8.5414 eV

 transition dipole moment (au) for excitation:          86          87
     X       Y       Z   
   2.6041   0.4170   0.4498  total (au/Debye):    2.675   6.800
 dE (eV)             :    2.600
 oscillator strength :  0.64475E+00

 SCC (total)                   0 d,  0 h,  0 min,  0.181 sec
 SCC setup                      ...        0 min,  0.001 sec (  0.363%)
 Dispersion                     ...        0 min,  0.001 sec (  0.549%)
 classical contributions        ...        0 min,  0.000 sec (  0.172%)
 integral evaluation            ...        0 min,  0.013 sec (  7.351%)
 iterations                     ...        0 min,  0.099 sec ( 54.338%)
 molecular gradient             ...        0 min,  0.055 sec ( 30.560%)
 printout                       ...        0 min,  0.012 sec (  6.659%)

         :::::::::::::::::::::::::::::::::::::::::::::::::::::
         ::                     SUMMARY                     ::
         :::::::::::::::::::::::::::::::::::::::::::::::::::::
         :: total energy             -94.791680399201 Eh    ::
         :: gradient norm              0.101257333185 Eh/a0 ::
         :: HOMO-LUMO gap              0.324779235300 eV    ::
         ::.................................................::
         :: SCC energy               -96.101623147587 Eh    ::
         :: -> isotropic ES            0.111414316888 Eh    ::
         :: -> anisotropic ES          0.005901224748 Eh    ::
         :: -> anisotropic XC          0.048512942695 Eh    ::
         :: -> dispersion             -0.071415502136 Eh    ::
         :: repulsion energy           1.309942748386 Eh    ::
         :: add. restraining           0.000000000000 Eh    ::
         :: total charge              -0.000000000000 e     ::
         :::::::::::::::::::::::::::::::::::::::::::::::::::::

           -------------------------------------------------
          |                Property Printout                |
           -------------------------------------------------

    * Orbital Energies and Occupations

         #    Occupation            Energy/Eh            Energy/eV
      -------------------------------------------------------------
         1        2.0000           -0.6953698             -18.9220
       ...           ...                  ...                  ...
        75        2.0000           -0.4230091             -11.5107
        76        2.0000           -0.4193801             -11.4119
        77        2.0000           -0.4152716             -11.3001
        78        2.0000           -0.4090841             -11.1317
        79        2.0000           -0.3977423             -10.8231
        80        2.0000           -0.3876685             -10.5490
        81        2.0000           -0.3847550             -10.4697
        82        2.0000           -0.3824457             -10.4069
        83        2.0000           -0.3777160             -10.2782
        84        1.9399           -0.3676524             -10.0043
        85        1.7558           -0.3661126              -9.9624
        86        1.3043           -0.3642538              -9.9119
        87        0.9981           -0.2687081              -7.3119 (HOMO)
        88        0.0019           -0.2567727              -6.9871 (LUMO)
        89                         -0.2449401              -6.6652
        90                         -0.2311493              -6.2899
        91                         -0.2103323              -5.7234
        92                         -0.1961489              -5.3375
        93                         -0.1407378              -3.8297
        94                         -0.1092562              -2.9730
        95                         -0.0716410              -1.9494
        96                         -0.0435862              -1.1860
        97                         -0.0034989              -0.0952
        98                          0.0069519               0.1892
       ...                                ...                  ...
       161                          0.7141974              19.4343
      -------------------------------------------------------------
                  HL-Gap            0.0119354 Eh            0.3248 eV
             Fermi-level           -0.3138899 Eh           -8.5414 eV

     #   Z          covCN         q      C6AA      α(0)
     1   6 C        3.754    -0.135    23.150     6.861
     2   6 C        2.817     0.244    22.921     7.844
     3   6 C        2.964    -0.073    29.809     8.955
     4   6 C        2.957    -0.001    28.058     8.688
     5   6 C        3.758    -0.108    22.615     6.780
     6   6 C        2.979    -0.039    28.962     8.828
     7   6 C        2.925     0.038    27.154     8.546
     8   7 N        1.837    -0.261    27.639     7.791
     9   6 C        2.883     0.210    23.559     7.957
    10   7 N        2.727    -0.121    23.621     7.218
    11   6 C        2.890     0.144    24.876     8.177
    12   7 N        1.852    -0.254    27.466     7.768
    13   6 C        2.906     0.037    27.182     8.549
    14   6 C        2.904     0.042    27.049     8.528
    15   6 C        2.933    -0.042    29.046     8.839
    16   6 C        2.910    -0.053    29.323     8.879
    17   7 N        2.741    -0.072    22.628     7.065
    18   6 C        3.748    -0.004    20.718     6.492
    19   6 C        3.745     0.012    20.443     6.450
    20   7 N        2.678    -0.254    26.592     7.659
    21   6 C        3.746     0.006    20.540     6.465
    22   6 C        3.746    -0.004    20.714     6.492
    23   7 N        1.862    -0.301    28.654     7.934
    24   6 C        2.917     0.167    24.412     8.102
    25   7 N        2.749    -0.079    22.777     7.088
    26   6 C        3.822     0.037    19.943     6.355
    27   6 C        3.819    -0.063    21.694     6.629
    28   6 C        3.827    -0.058    21.600     6.613
    29   6 C        3.829    -0.058    21.585     6.611
    30   6 C        3.826    -0.065    21.719     6.631
    31   6 C        2.777     0.254    22.734     7.809
    32   8 O        0.859    -0.452    22.753     6.395
    33   8 O        0.857    -0.371    21.104     6.159
    34   1 H        0.925     0.101     1.775     2.083
    35   1 H        0.925     0.054     2.273     2.358
    36   1 H        0.925     0.060     2.194     2.317
    37   1 H        0.925     0.049     2.331     2.388
    38   1 H        0.925     0.064     2.148     2.292
    39   1 H        0.925     0.040     2.452     2.449
    40   1 H        0.925     0.040     2.450     2.447
    41   1 H        0.860     0.212     1.047     1.603
    42   1 H        0.926     0.040     2.445     2.445
    43   1 H        0.926     0.038     2.478     2.462
    44   1 H        0.926     0.078     2.003     2.213
    45   1 H        0.924     0.055     2.255     2.348
    46   1 H        0.923     0.056     2.249     2.345
    47   1 H        0.923     0.023     2.685     2.562
    48   1 H        0.924     0.049     2.332     2.388
    49   1 H        0.860     0.141     1.461     1.893
    50   1 H        0.924     0.049     2.332     2.388
    51   1 H        0.924     0.043     2.406     2.426
    52   1 H        0.923     0.042     2.417     2.431
    53   1 H        0.924     0.052     2.299     2.371
    54   1 H        0.924     0.081     1.967     2.193
    55   1 H        0.925     0.042     2.418     2.432
    56   1 H        0.925     0.038     2.476     2.461
    57   1 H        0.925     0.032     2.552     2.498
    58   1 H        0.925     0.038     2.472     2.459
    59   1 H        0.924     0.037     2.492     2.469
    60   1 H        0.925     0.033     2.547     2.496
    61   1 H        0.925     0.037     2.488     2.466
    62   1 H        0.925     0.051     2.313     2.378

 Mol. C6AA /au·bohr⁶  :      42277.560504
 Mol. C8AA /au·bohr⁸  :     981940.085892
 Mol. α(0) /au        :        315.219289


Wiberg/Mayer (AO) data.
largest (>0.10) Wiberg bond orders for each atom

 ---------------------------------------------------------------------------
     #   Z sym  total        # sym  WBO       # sym  WBO       # sym  WBO
 ---------------------------------------------------------------------------
     1   6 C    3.961 --     2 C    0.994    36 H    0.981    35 H    0.968
                            34 H    0.940
     2   6 C    3.892 --    33 O    1.771     3 C    1.023     1 C    0.994
     3   6 C    3.823 --     4 C    1.375    31 C    1.127     2 C    1.023
     4   6 C    3.894 --     3 C    1.375     6 C    1.258     5 C    1.027
     5   6 C    3.988 --     4 C    1.027    38 H    0.977    39 H    0.969
                            37 H    0.967
     6   6 C    3.890 --     4 C    1.258     7 C    1.216    24 C    1.192
     7   6 C    3.866 --     8 N    1.441     6 C    1.216    40 H    0.952
     8   7 N    2.999 --     7 C    1.441     9 C    1.297
     9   6 C    3.912 --     8 N    1.297    23 N    1.237    10 N    1.168
    10   7 N    3.468 --     9 C    1.168    11 C    1.149    41 H    0.916
    11   6 C    3.903 --    12 N    1.300    16 C    1.285    10 N    1.149
    12   7 N    3.005 --    13 C    1.480    11 C    1.300
    13   6 C    3.933 --    12 N    1.480    14 C    1.291    42 H    0.959
    14   6 C    3.910 --    13 C    1.291    15 C    1.273    17 N    1.185
    15   6 C    3.946 --    16 C    1.528    14 C    1.273    43 H    0.965
    16   6 C    3.958 --    15 C    1.528    11 C    1.285    44 H    0.954
    17   7 N    3.348 --    14 C    1.185    18 C    0.996    22 C    0.995
    18   6 C    3.974 --    19 C    1.002    17 N    0.996    45 H    0.966
                            46 H    0.957
    19   6 C    3.984 --    20 N    1.010    18 C    1.002    48 H    0.970
                            47 H    0.970
    20   7 N    3.063 --    21 C    1.018    19 C    1.010    49 H    0.959
    21   6 C    3.983 --    20 N    1.018    22 C    0.988    51 H    0.976
                            50 H    0.969
    22   6 C    3.974 --    17 N    0.995    21 C    0.988    53 H    0.966
                            52 H    0.960
    23   7 N    2.956 --    24 C    1.374     9 C    1.237
    24   6 C    3.950 --    23 N    1.374    25 N    1.203     6 C    1.192
    25   7 N    3.562 --    24 C    1.203    31 C    1.068    26 C    0.961
                            32 O    0.108
    26   6 C    3.949 --    30 C    0.984    27 C    0.981    25 N    0.961
                            54 H    0.953
    27   6 C    3.994 --    28 C    1.006    56 H    0.981    26 C    0.981
                            55 H    0.977
    28   6 C    3.996 --    29 C    1.007    27 C    1.006    57 H    0.980
                            58 H    0.976
    29   6 C    3.996 --    30 C    1.007    28 C    1.007    59 H    0.979
                            60 H    0.979
    30   6 C    3.992 --    29 C    1.007    26 C    0.984    61 H    0.979
                            62 H    0.970
    31   6 C    3.935 --    32 O    1.604     3 C    1.127    25 N    1.068
    32   8 O    1.919 --    31 C    1.604    25 N    0.108
    33   8 O    1.989 --     2 C    1.771
    34   1 H    0.987 --     1 C    0.940
    35   1 H    0.995 --     1 C    0.968
    36   1 H    0.994 --     1 C    0.981
    37   1 H    0.994 --     5 C    0.967
    38   1 H    0.995 --     5 C    0.977
    39   1 H    0.994 --     5 C    0.969
    40   1 H    0.986 --     7 C    0.952
    41   1 H    0.954 --    10 N    0.916
    42   1 H    0.997 --    13 C    0.959
    43   1 H    0.998 --    15 C    0.965
    44   1 H    0.993 --    16 C    0.954
    45   1 H    0.994 --    18 C    0.966
    46   1 H    0.984 --    18 C    0.957
    47   1 H    0.998 --    19 C    0.970
    48   1 H    0.997 --    19 C    0.970
    49   1 H    0.980 --    20 N    0.959
    50   1 H    0.996 --    21 C    0.969
    51   1 H    0.997 --    21 C    0.976
    52   1 H    0.987 --    22 C    0.960
    53   1 H    0.995 --    22 C    0.966
    54   1 H    0.991 --    26 C    0.953
    55   1 H    0.998 --    27 C    0.977
    56   1 H    0.998 --    27 C    0.981
    57   1 H    0.999 --    28 C    0.980
    58   1 H    0.998 --    28 C    0.976
    59   1 H    0.998 --    29 C    0.979
    60   1 H    0.998 --    29 C    0.979
    61   1 H    0.998 --    30 C    0.979
    62   1 H    0.996 --    30 C    0.970
 ---------------------------------------------------------------------------

Topologies differ in total number of bonds
Writing topology from bond orders to xtbtopo.mol

molecular dipole:
                 x           y           z       tot (Debye)
 q only:        5.893       1.619       0.349
   full:        5.871       0.970       0.402      15.160
molecular quadrupole (traceless):
                xx          xy          yy          xz          yz          zz
 q only:        0.057     -24.154      -5.110      15.155       5.172       5.052
  q+dip:       -5.305     -32.765      -4.457      20.666       4.334       9.762
   full:       -7.408     -32.368      -7.126      19.318       5.085      14.534


           -------------------------------------------------
          | TOTAL ENERGY              -94.791680399201 Eh   |
          | GRADIENT NORM               0.101257333185 Eh/α |
          | HOMO-LUMO GAP               0.324779235300 eV   |
           -------------------------------------------------

------------------------------------------------------------------------
 * finished run on 2025/05/15 at 16:23:12.744     
------------------------------------------------------------------------
 total:
 * wall-time:     0 d,  0 h,  0 min,  0.202 sec
 *  cpu-time:     0 d,  0 h,  0 min,  0.180 sec
 * ratio c/w:     0.893 speedup
 SCF:
 * wall-time:     0 d,  0 h,  0 min,  0.182 sec
 *  cpu-time:     0 d,  0 h,  0 min,  0.162 sec
 * ratio c/w:     0.890 speedup


