62
 energy: -94.878154209759 gnorm: 0.000801296370 xtb: 6.7.1 (edcfbbe)
C           -7.07840773911526       -2.59625882595972       -2.27384468384002
C           -6.21482154194337       -3.02612621238333       -1.12443027170336
C           -4.99493879493038       -2.19078185154246       -0.88909278708076
C           -3.76727584475924       -2.76213406159935       -0.71383203217575
C           -3.52964690386273       -4.23717162306401       -0.77512859136783
C           -2.64442258497141       -1.90612803397993       -0.49653934944304
C           -1.32274527853022       -2.33676838802089       -0.32211965054861
N           -0.31368263600088       -1.52780538936058       -0.11004335549723
C           -0.59098582153747       -0.21460968506763       -0.06346951436585
N            0.39058027027326        0.68178935635782        0.15649669684934
C            1.75315086802362        0.51841219567538        0.36451037439502
N            2.39713085573779        1.66983211113624        0.53030096728931
C            3.69729253135904        1.65918562561750        0.73196261021885
C            4.47172537091308        0.48901930510481        0.79421828439647
C            3.77107461556588       -0.71727905905996        0.62341507053717
C            2.41034846047938       -0.70980994056000        0.40460780178628
N            5.81928771231693        0.51736460888493        1.02023380707568
C            6.49429134379507        1.71233970978839        1.47748387476826
C            7.74621006308020        1.32280775564769        2.25784004353404
N            8.70399074805996        0.65259974863422        1.38710251450001
C            8.06055683878790       -0.09570956477088        0.31989224918158
C            6.66923223664586       -0.61039845998525        0.70471684368951
N           -1.80322369303209        0.31710003671364       -0.21999419645970
C           -2.82604912713424       -0.50065428056682       -0.43033709918757
N           -4.06356601843911        0.03853363606817       -0.58293830392225
C           -4.26548205589765        1.48183600446823       -0.50693760953527
C           -3.45392484052701        2.28398903790648       -1.54603526582408
C           -2.70030337742020        3.35239292333482       -0.74873608834177
C           -3.51794858055863        3.51384979154366        0.52986757921427
C           -3.91543250792104        2.08021647672412        0.86342573106021
C           -5.19456165389657       -0.74537920178565       -0.82033571856180
O           -6.28306579214813       -0.20784148893807       -0.93899838320557
O           -6.46951673749045       -3.99240275668462       -0.44255475999500
H           -7.54714414247239       -1.64912372390711       -2.01046488496933
H           -6.47234585645291       -2.43159745334057       -3.16247950821808
H           -7.84083973643866       -3.34723001308294       -2.46478552052100
H           -3.12256285638958       -4.58145955027800        0.17451835215517
H           -4.44842766649908       -4.78053673762987       -0.96339132518854
H           -2.80885558822249       -4.46898121841303       -1.55877481094890
H           -1.06755597172517       -3.38721190619789       -0.35322642329252
H            0.09282244923953        1.64989995408612        0.17408797723156
H            4.14186383070209        2.63824590165693        0.83625191549114
H            4.28711695516513       -1.66296077597936        0.67862729566731
H            1.85521343295424       -1.62210831146611        0.27384948069106
H            5.82675796420902        2.26656218484624        2.14153538889957
H            6.77527715003770        2.36614586496444        0.64015944813541
H            7.43748550111193        0.69560907611030        3.10910171652408
H            8.22242547106089        2.22288264410192        2.65908958709918
H            9.30554438875449        0.05478174027394        1.94149857906971
H            7.95578080262628        0.56847221709603       -0.54595503377062
H            8.69733569318853       -0.93030127221479        0.02350207941593
H            6.75032674591473       -1.29738126770953        1.56157730834703
H            6.24753068698861       -1.16252862353807       -0.13951075923592
H           -5.33388316906268        1.61636447341864       -0.69510717422021
H           -2.77006665276170        1.64081422601603       -2.09578450967931
H           -4.13323914306958        2.74533731578522       -2.26292174339767
H           -2.59996404524697        4.28456770143960       -1.30258183685022
H           -1.70507829123352        2.98705994186133       -0.49795656538003
H           -4.40891978875627        4.11236642597564        0.33300760509718
H           -2.95333900304568        3.98641771303126        1.33201470970834
H           -4.75395779881609        2.01956132572774        1.55572168085752
H           -3.06427174668117        1.55232264708758        1.29059018384194
