42
 energy: -66.164883412844 gnorm: 0.000790027305 xtb: 6.7.1 (edcfbbe)
Cl          -0.25442125381756       -1.12109309987617       -2.59919944942792
C           -1.36928238982684       -1.40893545174504       -1.30190569459036
C           -1.20031286438773       -0.80833928207603       -0.05237114673142
C            0.00816182191967        0.08337117711319        0.22765732403849
C            1.24280431715664       -0.77556704840437       -0.05039216202400
C            1.29947680798124       -2.03407215975347        0.54401778866779
C            2.38265408041772       -2.86672408138498        0.33446681022562
C            3.42378942837639       -2.45905126623655       -0.48215203548209
C            3.36639191997623       -1.21787493687218       -1.09003362668658
C            2.28384989719563       -0.38065681286502       -0.87804722133337
C           -0.02621810660656        1.38778448486734       -0.56348095094390
C           -1.05268436322964        1.72426405032278       -1.43379003879038
C           -1.04565334276155        2.94675813620309       -2.08578317720758
C           -0.02466298864558        3.85314728002255       -1.86646764599828
C            0.98493919613185        3.54002092850451       -0.97128275788344
C            0.97951268196074        2.32150928502053       -0.32012110455832
N            0.03166777419892        0.50269467170568        1.62717375435863
C           -0.84053561313723        1.41611295491083        2.16224607756230
C           -0.46521510405967        1.58524774129757        3.46111878493680
N            0.61602350719663        0.80825380674272        3.73339820608565
C            0.89072433023550        0.18124773708510        2.62467126335174
C           -2.13481924666004       -1.10894143891513        0.93213460857673
C           -3.20111588745260       -1.95587419465970        0.68545946743208
C           -3.35561702873231       -2.53142062811248       -0.56212702414347
C           -2.43527263545337       -2.25615740717803       -1.55703497375004
H            0.48627733059420       -2.36556066139571        1.17464819300577
H            2.40929571982686       -3.83751192120243        0.80703157632456
H            4.26960631434103       -3.10870191232007       -0.65009661578203
H            4.16554790753386       -0.89533020795607       -1.74107938587857
H            2.24987961816618        0.57201525511885       -1.38387650748552
H           -1.87399947195646        1.04502925021758       -1.60410538186109
H           -1.85036294528574        3.19011848712970       -2.76388194049751
H           -0.02166756115273        4.80405667699234       -2.37790544799809
H            1.77642146672906        4.24779528503021       -0.77403170002307
H            1.75695826881980        2.09536973554720        0.39653370028098
H           -1.62563033134616        1.85728281828676        1.58259162645823
H           -0.90025391830596        2.21194952116215        4.21345706232231
H            1.70650652705032       -0.50260842392863        2.50883711634435
H           -2.03102553933140       -0.68094146618562        1.91738533550964
H           -3.90622931621951       -2.16616651329424        1.47505176803223
H           -4.18273832851956       -3.19455725828327       -0.76284159312416
H           -2.53297067891998       -2.69814311063461       -2.53607288131728
