----- Optimization -----
      -----------------------------------------------------------      
     |                   =====================                   |     
     |                           x T B                           |     
     |                   =====================                   |     
     |                         S. Grimme                         |     
     |          Mulliken Center for Theoretical Chemistry        |     
     |                    University of Bonn                     |     
      -----------------------------------------------------------      

   * xtb version 6.7.1 (edcfbbe) compiled by 'conda@3ef47c1a292c' on 2024-11-25

   xtb is free software: you can redistribute it and/or modify it under
   the terms of the GNU Lesser General Public License as published by
   the Free Software Foundation, either version 3 of the License, or
   (at your option) any later version.
   
   xtb is distributed in the hope that it will be useful,
   but WITHOUT ANY WARRANTY; without even the implied warranty of
   MERCHANTABILITY or FITNESS FOR A PARTICULAR PURPOSE.  See the
   GNU Lesser General Public License for more details.
   
   Cite this work as:
   * C. Bannwarth, E. Caldeweyher, S. Ehlert, A. Hansen, P. Pracht,
     J. Seibert, S. Spicher, S. Grimme, WIREs Comput. Mol. Sci., 2020, 11,
     e01493. DOI: 10.1002/wcms.1493
   
   for GFN2-xTB:
   * C. Bannwarth, S. Ehlert and S. Grimme., J. Chem. Theory Comput., 2019,
     15, 1652-1671. DOI: 10.1021/acs.jctc.8b01176
   for GFN1-xTB:
   * S. Grimme, C. Bannwarth, P. Shushkov, J. Chem. Theory Comput., 2017,
     13, 1989-2009. DOI: 10.1021/acs.jctc.7b00118
   for GFN0-xTB:
   * P. Pracht, E. Caldeweyher, S. Ehlert, S. Grimme, ChemRxiv, 2019, preprint.
     DOI: 10.26434/chemrxiv.8326202.v1
   for GFN-FF:
   * S. Spicher and S. Grimme, Angew. Chem. Int. Ed., 2020, 59, 15665-15673.
     DOI: 10.1002/anie.202004239
   
   for ALPB and GBSA implicit solvation:
   * S. Ehlert, M. Stahn, S. Spicher, S. Grimme, J. Chem. Theory Comput.,
     2021, 17, 4250-4261. DOI: 10.1021/acs.jctc.1c00471
   
   for ddCOSMO and CPCM-X implicit solvation:
   * M. Stahn, S. Ehlert, S. Grimme, J. Phys. Chem. A,
     2023, XX, XXXX-XXXX. DOI: 10.1021/acs.jpca.3c04382
   
   for DFT-D4:
   * E. Caldeweyher, C. Bannwarth and S. Grimme, J. Chem. Phys., 2017,
     147, 034112. DOI: 10.1063/1.4993215
   * E. Caldeweyher, S. Ehlert, A. Hansen, H. Neugebauer, S. Spicher,
     C. Bannwarth and S. Grimme, J. Chem. Phys., 2019, 150, 154122.
     DOI: 10.1063/1.5090222
   * E. Caldeweyher, J.-M. Mewes, S. Ehlert and S. Grimme, Phys. Chem. Chem. Phys.
     2020, 22, 8499-8512. DOI: 10.1039/D0CP00502A
   
   for sTDA-xTB:
   * S. Grimme and C. Bannwarth, J. Chem. Phys., 2016, 145, 054103.
     DOI: 10.1063/1.4959605
   
   in the mass-spec context:
   * V. Asgeirsson, C. Bauer and S. Grimme, Chem. Sci., 2017, 8, 4879.
     DOI: 10.1039/c7sc00601b
   * J. Koopman and S. Grimme, ACS Omega 2019, 4, 12, 15120-15133.
     DOI: 10.1021/acsomega.9b02011
   
   for metadynamics refer to:
   * S. Grimme, J. Chem. Theory Comput., 2019, 155, 2847-2862
     DOI: 10.1021/acs.jctc.9b00143
   
   for SPH calculations refer to:
   * S. Spicher and S. Grimme, J. Chem. Theory Comput., 2021, 17, 1701-1714
     DOI: 10.1021/acs.jctc.0c01306
   
   for ONIOM refer to:
   * C. Plett, A. Katbashev, S. Ehlert, S. Grimme, M. Bursch,
     Phys. Chem. Chem. Phys., 2023, 25, 17860-17868. DOI: 10.1039/D3CP02178E
   
   for DIPRO refer to:
   * J. Kohn, N. Gildemeister, S. Grimme, D. Fazzi, A. Hansen,
     J. Chem. Phys., 2023, just accepted.
   
   for PTB refer to:
   * S. Grimme, M. Mueller, A. Hansen, J. Chem. Phys., 2023, 158, 124111.
     DOI: 10.1063/5.0137838
   
   with help from (in alphabetical order)
   P. Atkinson, C. Bannwarth, F. Bohle, G. Brandenburg, E. Caldeweyher
   M. Checinski, S. Dohm, S. Ehlert, S. Ehrlich, I. Gerasimov, C. Hölzer
   A. Katbashev, J. Kohn, J. Koopman, C. Lavigne, S. Lehtola, F. März, M. Müller,
   F. Musil, H. Neugebauer, J. Pisarek, C. Plett, P. Pracht, F. Pultar,
   J. Seibert, P. Shushkov, S. Spicher, M. Stahn, M. Steiner, T. Strunk,
   J. Stückrath, T. Rose, and J. Unsleber
   
 * started run on 2025/05/15 at 16:25:49.482     
   ID    Z sym.   atoms
    1    7 N      1, 3, 6, 9, 11
    2    6 C      2, 4, 7, 8, 10, 12-15, 17
    3   17 Cl     5
    4    8 O      16, 18, 19
    5    1 H      20-31

           -------------------------------------------------
          |                Calculation Setup                |
           -------------------------------------------------

          program call               : xtb /rds/general/user/hgt20/home/callum/QDESCP/Cladribine_rdkit_conf_14/Cladribine_rdkit_conf_14.xyz --opt normal --acc 1 --gfn 2 --chrg 0 --uhf 0 -P 1
          hostname                   : login-c
          coordinate file            : /rds/general/user/hgt20/home/callum/QDESCP/Cladribine_rdkit_conf_14/Cladribine_rdkit_conf_14.xyz
          omp threads                :                     1


           -------------------------------------------------
          |                 G F N 2 - x T B                 |
           -------------------------------------------------

        Reference                      10.1021/acs.jctc.8b01176
      * Hamiltonian:
        H0-scaling (s, p, d)           1.850000    2.230000    2.230000
        zeta-weighting                 0.500000
      * Dispersion:
        s8                             2.700000
        a1                             0.520000
        a2                             5.000000
        s9                             5.000000
      * Repulsion:
        kExp                           1.500000    1.000000
        rExp                           1.000000
      * Coulomb:
        alpha                          2.000000
        third order                    shell-resolved
        anisotropic                    true
        a3                             3.000000
        a5                             4.000000
        cn-shift                       1.200000
        cn-exp                         4.000000
        max-rad                        5.000000


          ...................................................
          :                      SETUP                      :
          :.................................................:
          :  # basis functions                  94          :
          :  # atomic orbitals                  93          :
          :  # shells                           51          :
          :  # electrons                       102          :
          :  max. iterations                   250          :
          :  Hamiltonian                  GFN2-xTB          :
          :  restarted?                      false          :
          :  GBSA solvation                  false          :
          :  PC potential                    false          :
          :  electronic temp.          300.0000000     K    :
          :  accuracy                    1.0000000          :
          :  -> integral cutoff          0.2500000E+02      :
          :  -> integral neglect         0.1000000E-07      :
          :  -> SCF convergence          0.1000000E-05 Eh   :
          :  -> wf. convergence          0.1000000E-03 e    :
          :  Broyden damping             0.4000000          :
          :  net charge                          0          :
          :  unpaired electrons                  0          :
          ...................................................

 iter      E             dE          RMSdq      gap      omega  full diag
   1    -59.3817860 -0.593818E+02  0.432E+00    2.96       0.0  T
   2    -59.5003251 -0.118539E+00  0.260E+00    3.27       1.0  T
   3    -59.5125650 -0.122399E-01  0.126E+00    3.14       1.0  T
   4    -59.5177935 -0.522847E-02  0.273E-01    3.05       1.0  T
   5    -59.5191300 -0.133648E-02  0.112E-01    3.03       1.0  T
   6    -59.5192596 -0.129648E-03  0.536E-02    3.02       1.0  T
   7    -59.5192869 -0.273172E-04  0.304E-02    3.03       1.0  T
   8    -59.5192920 -0.512335E-05  0.159E-02    3.03       1.1  T
   9    -59.5192941 -0.205829E-05  0.124E-02    3.03       1.4  T
  10    -59.5192957 -0.155414E-05  0.821E-03    3.03       2.2  T
  11    -59.5192966 -0.943102E-06  0.396E-03    3.03       4.5  T
  12    -59.5192968 -0.212081E-06  0.201E-03    3.03       8.9  T
  13    -59.5192968 -0.368068E-07  0.683E-04    3.03      26.3  T
  14    -59.5192968 -0.385690E-08  0.408E-04    3.03      44.1  T

   *** convergence criteria satisfied after 14 iterations ***

         #    Occupation            Energy/Eh            Energy/eV
      -------------------------------------------------------------
         1        2.0000           -1.0610583             -28.8729
       ...           ...                  ...                  ...
        45        2.0000           -0.4313272             -11.7370
        46        2.0000           -0.4282005             -11.6519
        47        2.0000           -0.4260363             -11.5930
        48        2.0000           -0.4153522             -11.3023
        49        2.0000           -0.4137991             -11.2600
        50        2.0000           -0.4022519             -10.9458
        51        2.0000           -0.3908006             -10.6342 (HOMO)
        52                         -0.2795084              -7.6058 (LUMO)
        53                         -0.2526081              -6.8738
        54                         -0.2224728              -6.0538
        55                         -0.1474218              -4.0116
        56                         -0.1268451              -3.4516
       ...                                ...                  ...
        93                          0.6166007              16.7786
      -------------------------------------------------------------
                  HL-Gap            0.1112921 Eh            3.0284 eV
             Fermi-level           -0.3351545 Eh           -9.1200 eV

 SCC (total)                   0 d,  0 h,  0 min,  0.045 sec
 SCC setup                      ...        0 min,  0.000 sec (  0.691%)
 Dispersion                     ...        0 min,  0.000 sec (  0.603%)
 classical contributions        ...        0 min,  0.000 sec (  0.195%)
 integral evaluation            ...        0 min,  0.006 sec ( 13.431%)
 iterations                     ...        0 min,  0.022 sec ( 48.249%)
 molecular gradient             ...        0 min,  0.016 sec ( 36.519%)
 printout                       ...        0 min,  0.000 sec (  0.294%)

         :::::::::::::::::::::::::::::::::::::::::::::::::::::
         ::                     SUMMARY                     ::
         :::::::::::::::::::::::::::::::::::::::::::::::::::::
         :: total energy             -58.952904964638 Eh    ::
         :: gradient norm              0.091771195066 Eh/a0 ::
         :: HOMO-LUMO gap              3.028412623984 eV    ::
         ::.................................................::
         :: SCC energy               -59.518801823345 Eh    ::
         :: -> isotropic ES            0.113365901443 Eh    ::
         :: -> anisotropic ES         -0.000088607302 Eh    ::
         :: -> anisotropic XC          0.020080058280 Eh    ::
         :: -> dispersion             -0.034166205956 Eh    ::
         :: repulsion energy           0.565896858707 Eh    ::
         :: add. restraining           0.000000000000 Eh    ::
         :: total charge               0.000000000000 e     ::
         :::::::::::::::::::::::::::::::::::::::::::::::::::::

      ----------------------------------------------------------- 
     |                   =====================                   |
     |                        A N C O P T                        |
     |                   =====================                   |
     |               Approximate Normal Coordinate               |
     |                Rational Function Optimizer                |
      ----------------------------------------------------------- 
      ----------------------------------------------------------- 
     |                   =====================                   |
     |                        A N C O P T                        |
     |                   =====================                   |
     |               Approximate Normal Coordinate               |
     |                Rational Function Optimizer                |
      ----------------------------------------------------------- 

          ...................................................
          :                      SETUP                      :
          :.................................................:
          :   optimization level            normal          :
          :   max. optcycles                   200          :
          :   ANC micro-cycles                  20          :
          :   degrees of freedom                87          :
          :.................................................:
          :   RF solver                   davidson          :
          :   write xtbopt.log                true          :
          :   linear?                        false          :
          :   energy convergence         0.5000000E-05 Eh   :
          :   grad. convergence          0.1000000E-02 Eh/α :
          :   maxmium RF displ.          1.0000000          :
          :   Hlow (freq-cutoff)         0.1000000E-01      :
          :   Hmax (freq-cutoff)         5.0000000          :
          :   S6 in model hess.         20.0000000          :
          ...................................................

generating ANC from exact Hessian ...
Using Lindh-Hessian (1995)
 Shifting diagonal of input Hessian by    9.0811389855293603E-003
 Lowest  eigenvalues of input Hessian
    0.000000    0.000000    0.000000    0.000000    0.000000    0.000000
    0.010000    0.010083    0.010594    0.013135    0.014248    0.015936
    0.018335    0.019884    0.021240    0.022653    0.024777    0.028897
 Highest eigenvalues
    1.784774    1.921067    2.063250    2.088988    2.173746    2.289627


........................................................................
.............................. CYCLE    1 ..............................
........................................................................

 iter      E             dE          RMSdq      gap      omega  full diag
   1    -59.5192968 -0.595193E+02  0.270E-04    3.03       0.0  T
   2    -59.5192968 -0.320235E-09  0.224E-04    3.03      80.0  T
   3    -59.5192968 -0.182105E-09  0.166E-04    3.03     108.1  T
     SCC iter.                  ...        0 min,  0.005 sec
     gradient                   ...        0 min,  0.016 sec
 * total energy  :   -58.9529050 Eh     change       -0.1766551E-08 Eh
   gradient norm :     0.0917727 Eh/α   predicted     0.0000000E+00 (-100.00%)
   displ. norm   :     0.2367780 α      lambda       -0.1189157E-01
   maximum displ.:     0.0758125 α      in ANC's #25, #14, #38, ...

........................................................................
.............................. CYCLE    2 ..............................
........................................................................

 iter      E             dE          RMSdq      gap      omega  full diag
   1    -59.5494232 -0.595494E+02  0.228E-01    3.14       0.0  T
   2    -59.5495702 -0.147072E-03  0.138E-01    3.11       1.0  T
   3    -59.5495702 -0.108099E-07  0.741E-02    3.13       1.0  T
   4    -59.5496275 -0.572343E-04  0.183E-02    3.12       1.0  T
   5    -59.5496327 -0.520357E-05  0.108E-02    3.12       1.7  T
   6    -59.5496334 -0.695336E-06  0.818E-03    3.12       2.2  T
   7    -59.5496340 -0.620403E-06  0.588E-03    3.12       3.1  T
   8    -59.5496345 -0.519071E-06  0.267E-03    3.12       6.7  T
   9    -59.5496346 -0.859063E-07  0.132E-03    3.12      13.6  T
  10    -59.5496346 -0.237462E-07  0.457E-04    3.12      39.3  T
  11    -59.5496346 -0.255461E-08  0.202E-04    3.12      88.8  T
     SCC iter.                  ...        0 min,  0.016 sec
     gradient                   ...        0 min,  0.064 sec
 * total energy  :   -58.9611077 Eh     change       -0.8202688E-02 Eh
   gradient norm :     0.0416571 Eh/α   predicted    -0.6280234E-02 ( -23.44%)
   displ. norm   :     0.2035192 α      lambda       -0.3782214E-02
   maximum displ.:     0.1023832 α      in ANC's #3, #16, #14, ...

........................................................................
.............................. CYCLE    3 ..............................
........................................................................

 iter      E             dE          RMSdq      gap      omega  full diag
   1    -59.5644975 -0.595645E+02  0.157E-01    3.20       0.0  T
   2    -59.5646222 -0.124669E-03  0.924E-02    3.17       1.0  T
   3    -59.5646438 -0.216542E-04  0.514E-02    3.18       1.0  T
   4    -59.5646607 -0.168257E-04  0.145E-02    3.18       1.2  T
   5    -59.5646644 -0.376348E-05  0.692E-03    3.18       2.6  T
   6    -59.5646647 -0.280386E-06  0.499E-03    3.18       3.6  T
   7    -59.5646649 -0.211828E-06  0.372E-03    3.18       4.8  T
   8    -59.5646651 -0.185492E-06  0.199E-03    3.18       9.0  T
   9    -59.5646652 -0.515858E-07  0.966E-04    3.18      18.6  T
  10    -59.5646652 -0.145473E-07  0.348E-04    3.18      51.7  T
     SCC iter.                  ...        0 min,  0.015 sec
     gradient                   ...        0 min,  0.016 sec
 * total energy  :   -58.9632493 Eh     change       -0.2141658E-02 Eh
   gradient norm :     0.0119631 Eh/α   predicted    -0.1970141E-02 (  -8.01%)
   displ. norm   :     0.1507367 α      lambda       -0.5496940E-03
   maximum displ.:     0.1118501 α      in ANC's #3, #14, #6, ...

........................................................................
.............................. CYCLE    4 ..............................
........................................................................

 iter      E             dE          RMSdq      gap      omega  full diag
   1    -59.5642822 -0.595643E+02  0.591E-02    3.19       0.0  T
   2    -59.5642933 -0.111214E-04  0.335E-02    3.18       1.0  T
   3    -59.5642923  0.105486E-05  0.171E-02    3.19       1.0  T
   4    -59.5642960 -0.370300E-05  0.419E-03    3.18       4.3  T
   5    -59.5642964 -0.388515E-06  0.183E-03    3.18       9.8  T
   6    -59.5642964 -0.221653E-07  0.924E-04    3.18      19.4  T
   7    -59.5642964 -0.694555E-08  0.560E-04    3.18      32.1  T
     SCC iter.                  ...        0 min,  0.046 sec
     gradient                   ...        0 min,  0.016 sec
 * total energy  :   -58.9636839 Eh     change       -0.4346305E-03 Eh
   gradient norm :     0.0098478 Eh/α   predicted    -0.2811088E-03 ( -35.32%)
   displ. norm   :     0.2845746 α      lambda       -0.6953710E-03
   maximum displ.:     0.2150781 α      in ANC's #3, #1, #6, ...

........................................................................
.............................. CYCLE    5 ..............................
........................................................................

 iter      E             dE          RMSdq      gap      omega  full diag
   1    -59.5623823 -0.595624E+02  0.923E-02    3.20       0.0  T
   2    -59.5624018 -0.194910E-04  0.532E-02    3.19       1.0  T
   3    -59.5623957  0.609769E-05  0.253E-02    3.20       1.0  T
   4    -59.5624073 -0.115855E-04  0.608E-03    3.19       3.0  T
   5    -59.5624080 -0.678627E-06  0.309E-03    3.19       5.8  T
   6    -59.5624080 -0.555391E-07  0.172E-03    3.19      10.4  T
   7    -59.5624080 -0.240827E-07  0.120E-03    3.19      15.0  T
   8    -59.5624080 -0.125862E-07  0.802E-04    3.19      22.4  T
   9    -59.5624081 -0.742688E-08  0.440E-04    3.19      40.8  T
     SCC iter.                  ...        0 min,  0.013 sec
     gradient                   ...        0 min,  0.016 sec
 * total energy  :   -58.9641767 Eh     change       -0.4927400E-03 Eh
   gradient norm :     0.0092143 Eh/α   predicted    -0.3758519E-03 ( -23.72%)
   displ. norm   :     0.2758389 α      lambda       -0.4100075E-03
   maximum displ.:     0.2078339 α      in ANC's #3, #1, #5, ...

........................................................................
.............................. CYCLE    6 ..............................
........................................................................

 iter      E             dE          RMSdq      gap      omega  full diag
   1    -59.5620709 -0.595621E+02  0.755E-02    3.21       0.0  T
   2    -59.5620800 -0.914520E-05  0.443E-02    3.20       1.0  T
   3    -59.5620747  0.538576E-05  0.189E-02    3.20       1.0  T
   4    -59.5620829 -0.820251E-05  0.447E-03    3.20       4.0  T
   5    -59.5620832 -0.350044E-06  0.233E-03    3.20       7.7  T
   6    -59.5620832 -0.227624E-07  0.119E-03    3.20      15.1  T
   7    -59.5620832 -0.128746E-07  0.828E-04    3.20      21.7  T
   8    -59.5620832 -0.557120E-08  0.548E-04    3.20      32.8  T
     SCC iter.                  ...        0 min,  0.012 sec
     gradient                   ...        0 min,  0.016 sec
 * total energy  :   -58.9645034 Eh     change       -0.3267241E-03 Eh
   gradient norm :     0.0093853 Eh/α   predicted    -0.2206047E-03 ( -32.48%)
   displ. norm   :     0.3544103 α      lambda       -0.4615067E-03
   maximum displ.:     0.2590005 α      in ANC's #3, #1, #5, ...

........................................................................
.............................. CYCLE    7 ..............................
........................................................................

 iter      E             dE          RMSdq      gap      omega  full diag
   1    -59.5631772 -0.595632E+02  0.915E-02    3.21       0.0  T
   2    -59.5631864 -0.918048E-05  0.544E-02    3.21       1.0  T
   3    -59.5631789  0.748742E-05  0.195E-02    3.21       1.0  T
   4    -59.5631893 -0.104092E-04  0.479E-03    3.21       3.8  T
   5    -59.5631897 -0.356194E-06  0.251E-03    3.21       7.1  T
   6    -59.5631897 -0.238492E-07  0.112E-03    3.21      16.1  T
   7    -59.5631897 -0.120024E-07  0.771E-04    3.21      23.3  T
   8    -59.5631897 -0.458652E-08  0.521E-04    3.21      34.5  T
     SCC iter.                  ...        0 min,  0.012 sec
     gradient                   ...        0 min,  0.067 sec
 * total energy  :   -58.9648664 Eh     change       -0.3629750E-03 Eh
   gradient norm :     0.0077251 Eh/α   predicted    -0.2597378E-03 ( -28.44%)
   displ. norm   :     0.4005813 α      lambda       -0.4064978E-03
   maximum displ.:     0.2850697 α      in ANC's #3, #1, #5, ...

........................................................................
.............................. CYCLE    8 ..............................
........................................................................

 iter      E             dE          RMSdq      gap      omega  full diag
   1    -59.5646005 -0.595646E+02  0.100E-01    3.22       0.0  T
   2    -59.5646085 -0.800745E-05  0.595E-02    3.22       1.0  T
   3    -59.5646023  0.620534E-05  0.175E-02    3.22       1.0  T
   4    -59.5646111 -0.873455E-05  0.485E-03    3.22       3.7  T
   5    -59.5646114 -0.297117E-06  0.262E-03    3.22       6.9  T
   6    -59.5646114 -0.313628E-07  0.114E-03    3.22      15.7  T
   7    -59.5646114 -0.110163E-07  0.790E-04    3.22      22.7  T
   8    -59.5646114 -0.479096E-08  0.524E-04    3.22      34.3  T
     SCC iter.                  ...        0 min,  0.012 sec
     gradient                   ...        0 min,  0.016 sec
 * total energy  :   -58.9651549 Eh     change       -0.2884817E-03 Eh
   gradient norm :     0.0064450 Eh/α   predicted    -0.2358887E-03 ( -18.23%)
   displ. norm   :     0.2711265 α      lambda       -0.2106536E-03
   maximum displ.:     0.1765936 α      in ANC's #3, #1, #5, ...

........................................................................
.............................. CYCLE    9 ..............................
........................................................................

 iter      E             dE          RMSdq      gap      omega  full diag
   1    -59.5668248 -0.595668E+02  0.653E-02    3.22       0.0  T
   2    -59.5668273 -0.244820E-05  0.389E-02    3.22       1.0  T
   3    -59.5668266  0.649929E-06  0.779E-03    3.22       2.3  T
   4    -59.5668280 -0.138223E-05  0.275E-03    3.22       6.5  T
   5    -59.5668281 -0.480612E-07  0.151E-03    3.22      11.9  T
   6    -59.5668281 -0.182539E-07  0.695E-04    3.22      25.8  T
   7    -59.5668281 -0.334209E-08  0.504E-04    3.22      35.7  T
     SCC iter.                  ...        0 min,  0.010 sec
     gradient                   ...        0 min,  0.016 sec
 * total energy  :   -58.9652982 Eh     change       -0.1433116E-03 Eh
   gradient norm :     0.0050773 Eh/α   predicted    -0.1131147E-03 ( -21.07%)
   displ. norm   :     0.2440887 α      lambda       -0.1325643E-03
   maximum displ.:     0.1425757 α      in ANC's #3, #5, #1, ...

........................................................................
.............................. CYCLE   10 ..............................
........................................................................

 iter      E             dE          RMSdq      gap      omega  full diag
   1    -59.5668340 -0.595668E+02  0.610E-02    3.22       0.0  T
   2    -59.5668359 -0.188185E-05  0.363E-02    3.22       1.0  T
   3    -59.5668349  0.938433E-06  0.766E-03    3.22       2.3  T
   4    -59.5668366 -0.163754E-05  0.280E-03    3.22       6.4  T
   5    -59.5668366 -0.529965E-07  0.160E-03    3.22      11.3  T
   6    -59.5668366 -0.176947E-07  0.766E-04    3.22      23.5  T
   7    -59.5668366 -0.382091E-08  0.581E-04    3.22      30.9  T
     SCC iter.                  ...        0 min,  0.010 sec
     gradient                   ...        0 min,  0.016 sec
 * total energy  :   -58.9653701 Eh     change       -0.7196686E-04 Eh
   gradient norm :     0.0068404 Eh/α   predicted    -0.7023702E-04 (  -2.40%)
   displ. norm   :     0.1650559 α      lambda       -0.1307775E-03
   maximum displ.:     0.0902282 α      in ANC's #1, #5, #6, ...

........................................................................
.............................. CYCLE   11 ..............................
........................................................................

 iter      E             dE          RMSdq      gap      omega  full diag
   1    -59.5683205 -0.595683E+02  0.423E-02    3.21       0.0  T
   2    -59.5683220 -0.145460E-05  0.251E-02    3.21       1.0  T
   3    -59.5683218  0.147392E-06  0.557E-03    3.21       3.2  T
   4    -59.5683223 -0.452865E-06  0.195E-03    3.21       9.2  T
   5    -59.5683223 -0.318696E-07  0.123E-03    3.21      14.6  T
   6    -59.5683223 -0.111292E-07  0.655E-04    3.21      27.4  T
   7    -59.5683223 -0.312822E-08  0.450E-04    3.21      39.9  T
     SCC iter.                  ...        0 min,  0.010 sec
     gradient                   ...        0 min,  0.016 sec
 * total energy  :   -58.9654361 Eh     change       -0.6595329E-04 Eh
   gradient norm :     0.0050656 Eh/α   predicted    -0.6717525E-04 (   1.85%)
   displ. norm   :     0.0894984 α      lambda       -0.5263823E-04
   maximum displ.:     0.0533638 α      in ANC's #5, #1, #2, ...

........................................................................
.............................. CYCLE   12 ..............................
........................................................................

 iter      E             dE          RMSdq      gap      omega  full diag
   1    -59.5675966 -0.595676E+02  0.240E-02    3.21       0.0  T
   2    -59.5675969 -0.355039E-06  0.144E-02    3.21       1.2  T
   3    -59.5675969  0.494583E-07  0.283E-03    3.21       6.3  T
   4    -59.5675970 -0.139487E-06  0.112E-03    3.21      16.0  T
   5    -59.5675970 -0.114975E-07  0.661E-04    3.21      27.2  T
   6    -59.5675970 -0.298647E-08  0.372E-04    3.21      48.2  T
     SCC iter.                  ...        0 min,  0.009 sec
     gradient                   ...        0 min,  0.060 sec
 * total energy  :   -58.9654746 Eh     change       -0.3854648E-04 Eh
   gradient norm :     0.0037167 Eh/α   predicted    -0.2653454E-04 ( -31.16%)
   displ. norm   :     0.1219375 α      lambda       -0.5903525E-04
   maximum displ.:     0.0745643 α      in ANC's #5, #1, #6, ...

........................................................................
.............................. CYCLE   13 ..............................
........................................................................

 iter      E             dE          RMSdq      gap      omega  full diag
   1    -59.5659964 -0.595660E+02  0.354E-02    3.21       0.0  T
   2    -59.5659972 -0.848722E-06  0.211E-02    3.21       1.0  T
   3    -59.5659964  0.847284E-06  0.626E-03    3.21       2.9  T
   4    -59.5659975 -0.116764E-05  0.176E-03    3.21      10.2  T
   5    -59.5659976 -0.306383E-07  0.963E-04    3.21      18.6  T
   6    -59.5659976 -0.366993E-08  0.470E-04    3.21      38.2  T
     SCC iter.                  ...        0 min,  0.009 sec
     gradient                   ...        0 min,  0.016 sec
 * total energy  :   -58.9655021 Eh     change       -0.2743176E-04 Eh
   gradient norm :     0.0022620 Eh/α   predicted    -0.2996005E-04 (   9.22%)
   displ. norm   :     0.0615959 α      lambda       -0.2532738E-04
   maximum displ.:     0.0514582 α      in ANC's #3, #6, #10, ...

........................................................................
.............................. CYCLE   14 ..............................
........................................................................

 iter      E             dE          RMSdq      gap      omega  full diag
   1    -59.5673148 -0.595673E+02  0.159E-02    3.21       0.0  T
   2    -59.5673150 -0.191570E-06  0.930E-03    3.21       1.9  T
   3    -59.5673150  0.698723E-07  0.226E-03    3.21       8.0  T
   4    -59.5673151 -0.131564E-06  0.826E-04    3.21      21.7  T
   5    -59.5673151 -0.458455E-08  0.475E-04    3.21      37.8  T
     SCC iter.                  ...        0 min,  0.058 sec
     gradient                   ...        0 min,  0.016 sec
 * total energy  :   -58.9655104 Eh     change       -0.8321475E-05 Eh
   gradient norm :     0.0033979 Eh/α   predicted    -0.1271216E-04 (  52.76%)
   displ. norm   :     0.0395340 α      lambda       -0.1601721E-04
   maximum displ.:     0.0205765 α      in ANC's #1, #5, #2, ...

........................................................................
.............................. CYCLE   15 ..............................
........................................................................

 iter      E             dE          RMSdq      gap      omega  full diag
   1    -59.5669950 -0.595670E+02  0.109E-02    3.21       0.0  T
   2    -59.5669951 -0.734350E-07  0.657E-03    3.21       2.7  T
   3    -59.5669950  0.421153E-07  0.150E-03    3.21      12.0  T
   4    -59.5669951 -0.627106E-07  0.509E-04    3.21      35.3  T
   5    -59.5669951 -0.294225E-08  0.288E-04    3.21      62.3  T
     SCC iter.                  ...        0 min,  0.007 sec
     gradient                   ...        0 min,  0.016 sec
 * total energy  :   -58.9655206 Eh     change       -0.1016588E-04 Eh
   gradient norm :     0.0025646 Eh/α   predicted    -0.8023630E-05 ( -21.07%)
   displ. norm   :     0.0343266 α      lambda       -0.1587767E-04
   maximum displ.:     0.0237424 α      in ANC's #2, #1, #6, ...

........................................................................
.............................. CYCLE   16 ..............................
........................................................................

 iter      E             dE          RMSdq      gap      omega  full diag
   1    -59.5671964 -0.595672E+02  0.996E-03    3.21       0.0  T
   2    -59.5671965 -0.147462E-06  0.572E-03    3.21       3.1  T
   3    -59.5671964  0.979384E-07  0.237E-03    3.21       7.6  T
   4    -59.5671965 -0.139140E-06  0.513E-04    3.21      35.0  T
   5    -59.5671966 -0.452294E-08  0.210E-04    3.21      85.6  T
     SCC iter.                  ...        0 min,  0.046 sec
     gradient                   ...        0 min,  0.016 sec
 * total energy  :   -58.9655303 Eh     change       -0.9766593E-05 Eh
   gradient norm :     0.0014448 Eh/α   predicted    -0.7954129E-05 ( -18.56%)
   displ. norm   :     0.0970923 α      lambda       -0.1189355E-04
   maximum displ.:     0.0689957 α      in ANC's #2, #1, #5, ...

........................................................................
.............................. CYCLE   17 ..............................
........................................................................

 iter      E             dE          RMSdq      gap      omega  full diag
   1    -59.5670821 -0.595671E+02  0.228E-02    3.22       0.0  T
   2    -59.5670824 -0.290798E-06  0.135E-02    3.21       1.3  T
   3    -59.5670820  0.432707E-06  0.402E-03    3.22       4.5  T
   4    -59.5670825 -0.570516E-06  0.971E-04    3.21      18.5  T
   5    -59.5670826 -0.441386E-08  0.533E-04    3.21      33.7  T
     SCC iter.                  ...        0 min,  0.009 sec
     gradient                   ...        0 min,  0.016 sec
 * total energy  :   -58.9655425 Eh     change       -0.1213132E-04 Eh
   gradient norm :     0.0020438 Eh/α   predicted    -0.5978350E-05 ( -50.72%)
   displ. norm   :     0.0545757 α      lambda       -0.1269050E-04
   maximum displ.:     0.0433343 α      in ANC's #2, #1, #3, ...

........................................................................
.............................. CYCLE   18 ..............................
........................................................................

 iter      E             dE          RMSdq      gap      omega  full diag
   1    -59.5671426 -0.595671E+02  0.127E-02    3.22       0.0  T
   2    -59.5671427 -0.717706E-07  0.737E-03    3.21       2.4  T
   3    -59.5671426  0.503346E-07  0.154E-03    3.22      11.6  T
   4    -59.5671427 -0.836139E-07  0.504E-04    3.21      35.7  T
   5    -59.5671427 -0.439080E-09  0.281E-04    3.21      63.9  T
     SCC iter.                  ...        0 min,  0.051 sec
     gradient                   ...        0 min,  0.016 sec
 * total energy  :   -58.9655539 Eh     change       -0.1146855E-04 Eh
   gradient norm :     0.0017289 Eh/α   predicted    -0.6367441E-05 ( -44.48%)
   displ. norm   :     0.1467751 α      lambda       -0.2508613E-04
   maximum displ.:     0.1170144 α      in ANC's #2, #1, #5, ...

........................................................................
.............................. CYCLE   19 ..............................
........................................................................

 iter      E             dE          RMSdq      gap      omega  full diag
   1    -59.5670411 -0.595670E+02  0.357E-02    3.22       0.0  T
   2    -59.5670416 -0.517327E-06  0.207E-02    3.21       1.0  T
   3    -59.5670415  0.104070E-06  0.326E-03    3.22       5.5  T
   4    -59.5670418 -0.312856E-06  0.120E-03    3.21      15.0  T
   5    -59.5670418 -0.237259E-08  0.583E-04    3.21      30.8  T
   6    -59.5670418 -0.383199E-08  0.250E-04    3.21      71.8  T
     SCC iter.                  ...        0 min,  0.009 sec
     gradient                   ...        0 min,  0.016 sec
 * total energy  :   -58.9655836 Eh     change       -0.2967214E-04 Eh
   gradient norm :     0.0015537 Eh/α   predicted    -0.1266666E-04 ( -57.31%)
   displ. norm   :     0.2034783 α      lambda       -0.2558180E-04
   maximum displ.:     0.1581931 α      in ANC's #2, #1, #5, ...

........................................................................
.............................. CYCLE   20 ..............................
........................................................................

 iter      E             dE          RMSdq      gap      omega  full diag
   1    -59.5665979 -0.595666E+02  0.477E-02    3.21       0.0  T
   2    -59.5665987 -0.773981E-06  0.276E-02    3.21       1.0  T
   3    -59.5665987 -0.543843E-07  0.337E-03    3.21       5.3  T
   4    -59.5665990 -0.244866E-06  0.152E-03    3.21      11.8  T
   5    -59.5665990 -0.877198E-08  0.630E-04    3.21      28.5  T
   6    -59.5665990 -0.288291E-08  0.279E-04    3.21      64.4  T
     SCC iter.                  ...        0 min,  0.009 sec
     gradient                   ...        0 min,  0.016 sec
 * total energy  :   -58.9656148 Eh     change       -0.3115350E-04 Eh
   gradient norm :     0.0020892 Eh/α   predicted    -0.1303062E-04 ( -58.17%)
   displ. norm   :     0.1670559 α      lambda       -0.2636567E-04
   maximum displ.:     0.1274331 α      in ANC's #2, #1, #5, ...
 * RMSD in coord.:     0.4981332 α      energy gain  -0.1270979E-01 Eh

generating ANC from exact Hessian ...
Using Lindh-Hessian (1995)
 Shifting diagonal of input Hessian by    9.1482803133366760E-003
 Lowest  eigenvalues of input Hessian
    0.000000    0.000000    0.000000    0.000000    0.000000    0.000000
    0.010000    0.010055    0.010437    0.012969    0.014144    0.016211
    0.019005    0.020044    0.022136    0.025673    0.025959    0.027383
 Highest eigenvalues
    1.942076    2.010107    2.147512    2.193483    2.324537    2.342310


........................................................................
.............................. CYCLE   21 ..............................
........................................................................

 iter      E             dE          RMSdq      gap      omega  full diag
   1    -59.5666647 -0.595667E+02  0.391E-02    3.21       0.0  T
   2    -59.5666652 -0.503705E-06  0.227E-02    3.21       1.0  T
   3    -59.5666652 -0.738834E-07  0.254E-03    3.22       7.1  T
   4    -59.5666653 -0.113717E-06  0.126E-03    3.21      14.3  T
   5    -59.5666654 -0.754771E-08  0.560E-04    3.21      32.1  T
   6    -59.5666654 -0.266670E-08  0.225E-04    3.21      79.8  T
     SCC iter.                  ...        0 min,  0.054 sec
     gradient                   ...        0 min,  0.016 sec
 * total energy  :   -58.9656373 Eh     change       -0.2252454E-04 Eh
   gradient norm :     0.0018069 Eh/α   predicted     0.0000000E+00 (-100.00%)
   displ. norm   :     0.0250889 α      lambda       -0.7323592E-05
   maximum displ.:     0.0186923 α      in ANC's #1, #4, #3, ...

........................................................................
.............................. CYCLE   22 ..............................
........................................................................

 iter      E             dE          RMSdq      gap      omega  full diag
   1    -59.5674258 -0.595674E+02  0.905E-03    3.22       0.0  T
   2    -59.5674259 -0.609684E-07  0.541E-03    3.22       3.3  T
   3    -59.5674258  0.266463E-07  0.143E-03    3.22      12.6  T
   4    -59.5674259 -0.496648E-07  0.598E-04    3.22      30.0  T
   5    -59.5674259 -0.247316E-08  0.428E-04    3.22      41.9  T
     SCC iter.                  ...        0 min,  0.007 sec
     gradient                   ...        0 min,  0.016 sec
 * total energy  :   -58.9656461 Eh     change       -0.8850637E-05 Eh
   gradient norm :     0.0006677 Eh/α   predicted    -0.4063137E-05 ( -54.09%)
   displ. norm   :     0.0427038 α      lambda       -0.6450728E-05
   maximum displ.:     0.0318339 α      in ANC's #1, #4, #3, ...

........................................................................
.............................. CYCLE   23 ..............................
........................................................................

 iter      E             dE          RMSdq      gap      omega  full diag
   1    -59.5675592 -0.595676E+02  0.129E-02    3.22       0.0  T
   2    -59.5675593 -0.728465E-07  0.760E-03    3.22       2.4  T
   3    -59.5675593 -0.121148E-10  0.122E-03    3.22      14.7  T
   4    -59.5675593 -0.257020E-07  0.603E-04    3.22      29.8  T
   5    -59.5675593 -0.192937E-08  0.379E-04    3.22      47.4  T
     SCC iter.                  ...        0 min,  0.046 sec
     gradient                   ...        0 min,  0.016 sec
 * total energy  :   -58.9656530 Eh     change       -0.6853227E-05 Eh
   gradient norm :     0.0006460 Eh/α   predicted    -0.3230533E-05 ( -52.86%)
   displ. norm   :     0.0427440 α      lambda       -0.3715098E-05
   maximum displ.:     0.0321143 α      in ANC's #1, #4, #3, ...

........................................................................
.............................. CYCLE   24 ..............................
........................................................................

 iter      E             dE          RMSdq      gap      omega  full diag
   1    -59.5674708 -0.595675E+02  0.119E-02    3.22       0.0  T
   2    -59.5674708 -0.455341E-07  0.692E-03    3.22       2.6  T
   3    -59.5674708 -0.668059E-09  0.918E-04    3.22      19.6  T
   4    -59.5674708 -0.160515E-07  0.432E-04    3.22      41.6  T
     SCC iter.                  ...        0 min,  0.006 sec
     gradient                   ...        0 min,  0.016 sec
 * total energy  :   -58.9656577 Eh     change       -0.4672644E-05 Eh
   gradient norm :     0.0008151 Eh/α   predicted    -0.1890389E-05 ( -59.54%)
   displ. norm   :     0.0523013 α      lambda       -0.4292873E-05
   maximum displ.:     0.0380134 α      in ANC's #1, #3, #4, ...

   *** GEOMETRY OPTIMIZATION CONVERGED AFTER 24 ITERATIONS ***

------------------------------------------------------------------------
 total energy gain   :        -0.0127527 Eh       -8.0024 kcal/mol
 total RMSD          :         0.5082742 a0        0.2690 Å
 total power (kW/mol):        -1.3950909 (step)  -23.9817 (real)
------------------------------------------------------------------------

 ANCopt (total)                0 d,  0 h,  0 min,  1.396 sec
 optimizer setup                ...        0 min,  0.000 sec (  0.005%)
 model hessian                  ...        0 min,  0.023 sec (  1.627%)
 ANC generation                 ...        0 min,  0.002 sec (  0.122%)
 coordinate transformation      ...        0 min,  0.000 sec (  0.008%)
 single point calculation       ...        0 min,  1.365 sec ( 97.759%)
 optimization log               ...        0 min,  0.004 sec (  0.294%)
 hessian update                 ...        0 min,  0.000 sec (  0.016%)
 rational function              ...        0 min,  0.002 sec (  0.116%)

================
 final structure:
================
31
 xtb: 6.7.1 (edcfbbe)
N            4.71632342464734        0.07792561447577        1.01145654492012
C            3.42140386353228       -0.21923425625415        0.85143549870325
N            2.95031108857071       -1.34239305735449        1.40202418161512
C            1.67783651575933       -1.64323534818104        1.23951318947078
Cl           1.16822666993043       -3.09340831066608        1.98028531580564
N            0.74192533339936       -0.98613150412718        0.58853106851812
C            1.19685412949330        0.14172565828286        0.03765750933275
C            2.52631416248166        0.58992843313989        0.12755863158603
N            2.65807769043166        1.77700065622627       -0.54555443483693
C            1.47492821265293        2.02737753929801       -1.00783391838713
N            0.53425367230216        1.07666622879537       -0.70455370811647
C           -0.87128103948713        1.12970368392720       -1.06832479872616
C           -1.34391153640097       -0.14632659804088       -1.76638509600493
C           -2.03987270948554       -0.94246397591777       -0.65873930421639
C           -2.45374481687105        0.15005189156585        0.34998288239969
O           -1.66967597655580        1.31172874697149        0.06406022732428
C           -2.24407813892313       -0.25212594047667        1.81234588059363
O           -2.69807152106189        0.74231031101652        2.69136904587745
O           -3.13536352054994       -1.63313672737042       -1.20236200357304
H            5.29635944563303       -0.53987817727394        1.55034467708952
H            5.07967806893075        0.92348134902842        0.61087049224358
H            1.22935090914623        2.89482189442143       -1.58849425035113
H           -0.96976168592803        2.01919298967075       -1.70602082745409
H           -2.08447674581026        0.08830696600463       -2.53068594817072
H           -0.52017026182044       -0.69241260739131       -2.21807223445683
H           -1.33283765070144       -1.63114928770115       -0.18091262973969
H           -3.50830430892927        0.42048892717904        0.19337466555041
H           -1.17783228164755       -0.46509593246845        1.96873706589532
H           -2.82276898347838       -1.15072261618432        2.03886973962839
H           -2.28343013567873        1.57282545740025        2.42806460870146
H           -3.51616187358191       -2.20582200799515       -0.52884207122091

 Bond Distances (Angstroems)
 ---------------------------
N1-C2=1.3382         N1-H20=1.0043        N1-H21=1.0037        C2-N1=1.3382         C2-N3=1.3366         C2-C8=1.4071         
N3-C2=1.3366         N3-C4=1.3176         C4-N3=1.3176         C4-Cl5=1.7063        C4-N6=1.3159         Cl5-C4=1.7063        
N6-C4=1.3159         N6-C7=1.3351         C7-N6=1.3351         C7-C8=1.4059         C7-N11=1.3653        C8-C2=1.4071         
C8-C7=1.4059         C8-N9=1.3710         N9-C8=1.3710         N9-C10=1.2947        C10-N9=1.2947        C10-N11=1.3714       
C10-H22=1.0724       N11-C7=1.3653        N11-C10=1.3714       N11-C12=1.4528       C12-N11=1.4528       C12-C13=1.5294       
C12-O16=1.3974       C12-H23=1.0989       C13-C12=1.5294       C13-C14=1.5314       C13-H24=1.0898       C13-H25=1.0866       
C14-C13=1.5314       C14-C15=1.5435       C14-O19=1.4045       C14-H26=1.0966       C15-C14=1.5435       C15-O16=1.4304       
C15-C17=1.5311       C15-H27=1.0999       O16-C12=1.3974       O16-C15=1.4304       C17-C15=1.5311       C17-O18=1.4027       
C17-H28=1.0985       C17-H29=1.0926       O18-C17=1.4027       O18-H30=0.9649       O19-C14=1.4045       O19-H31=0.9626       
H20-N1=1.0043        H21-N1=1.0037        H22-C10=1.0724       H23-C12=1.0989       H24-C13=1.0898       H25-C13=1.0866       
H26-C14=1.0966       H27-C15=1.0999       H28-C17=1.0985       H29-C17=1.0926       H30-O18=0.9649       H31-O19=0.9626       
 C  H  Rav=1.0919 sigma=0.0086  Rmin=1.0724  Rmax=1.0999     8
 C  C  Rav=1.4914 sigma=0.0602  Rmin=1.4059  Rmax=1.5435     6
 N  H  Rav=1.0040 sigma=0.0003  Rmin=1.0037  Rmax=1.0043     2
 N  C  Rav=1.3499 sigma=0.0419  Rmin=1.2947  Rmax=1.4528    10
 O  H  Rav=0.9637 sigma=0.0011  Rmin=0.9626  Rmax=0.9649     2
 O  C  Rav=1.4088 sigma=0.0127  Rmin=1.3974  Rmax=1.4304     4
 Cl C  Rav=1.7063 sigma=0.0000  Rmin=1.7063  Rmax=1.7063     1

 selected bond angles (degree)
 --------------------
H20-N1-C2=119.11               H21-N1-C2=119.32               H21-N1-H20=121.56              N3-C2-N1=118.58                
C8-C2-N1=123.32                C8-C2-N3=118.09                C4-N3-C2=118.78                Cl5-C4-N3=115.40               
N6-C4-N3=129.34                N6-C4-Cl5=115.26               C7-N6-C4=112.56                C8-C7-N6=124.41                
N11-C7-N6=129.60               N11-C7-C8=105.99               C7-C8-C2=116.82                N9-C8-C2=133.58                
N9-C8-C7=109.61                C10-N9-C8=104.77               N11-C10-N9=114.44              H22-C10-N9=123.99              
H22-C10-N11=121.56             

 selected dihedral angles (degree)
 ---------------------------------
N3-C2-N1-H20=359.08           N3-C2-N1-H21=180.64           C8-C2-N1-H20=179.27           C8-C2-N1-H21=  0.83           
C4-N3-C2-N1=180.44            C4-N3-C2-C8=  0.26            Cl5-C4-N3-C2=180.10           N6-C4-N3-C2=  0.06            
C7-N6-C4-N3=359.68            C7-N6-C4-Cl5=179.64           C8-C7-N6-C4=  0.28            N11-C7-N6-C4=180.01           
C7-C8-C2-N1=179.54            C7-C8-C2-N3=359.73            N9-C8-C2-N1=359.52            N9-C8-C2-N3=179.72            
C2-C8-C7-N6=  0.00            C2-C8-C7-N11=180.21           N9-C8-C7-N6=180.00            N9-C8-C7-N11=  0.22           
C10-N9-C8-C2=180.21           C10-N9-C8-C7=  0.20           N11-C10-N9-C8=359.43          H22-C10-N9-C8=179.91          
           -------------------------------------------------
          |                Final Singlepoint                |
           -------------------------------------------------

          ...................................................
          :                      SETUP                      :
          :.................................................:
          :  # basis functions                  94          :
          :  # atomic orbitals                  93          :
          :  # shells                           51          :
          :  # electrons                       102          :
          :  max. iterations                   250          :
          :  Hamiltonian                  GFN2-xTB          :
          :  restarted?                      false          :
          :  GBSA solvation                  false          :
          :  PC potential                    false          :
          :  electronic temp.          300.0000000     K    :
          :  accuracy                    1.0000000          :
          :  -> integral cutoff          0.2500000E+02      :
          :  -> integral neglect         0.1000000E-07      :
          :  -> SCF convergence          0.1000000E-05 Eh   :
          :  -> wf. convergence          0.1000000E-03 e    :
          :  Broyden damping             0.4000000          :
          :  net charge                          0          :
          :  unpaired electrons                  0          :
          ...................................................

 iter      E             dE          RMSdq      gap      omega  full diag
   1    -59.5674708 -0.595675E+02  0.240E-04    3.22       0.0  T
   2    -59.5674708 -0.267249E-09  0.182E-04    3.22      98.9  T
   3    -59.5674708 -0.124537E-09  0.146E-04    3.22     123.4  T

   *** convergence criteria satisfied after 3 iterations ***

         #    Occupation            Energy/Eh            Energy/eV
      -------------------------------------------------------------
         1        2.0000           -1.0584824             -28.8028
       ...           ...                  ...                  ...
        45        2.0000           -0.4281516             -11.6506
        46        2.0000           -0.4259664             -11.5911
        47        2.0000           -0.4225901             -11.4993
        48        2.0000           -0.4114536             -11.1962
        49        2.0000           -0.4093374             -11.1386
        50        2.0000           -0.3974332             -10.8147
        51        2.0000           -0.3852225             -10.4824 (HOMO)
        52                         -0.2670133              -7.2658 (LUMO)
        53                         -0.2443558              -6.6493
        54                         -0.2121572              -5.7731
        55                         -0.1412585              -3.8438
        56                         -0.1159174              -3.1543
       ...                                ...                  ...
        93                          0.6431926              17.5022
      -------------------------------------------------------------
                  HL-Gap            0.1182091 Eh            3.2166 eV
             Fermi-level           -0.3261179 Eh           -8.8741 eV

 SCC (total)                   0 d,  0 h,  0 min,  0.071 sec
 SCC setup                      ...        0 min,  0.000 sec (  0.283%)
 Dispersion                     ...        0 min,  0.000 sec (  0.229%)
 classical contributions        ...        0 min,  0.000 sec (  0.109%)
 integral evaluation            ...        0 min,  0.006 sec (  8.149%)
 iterations                     ...        0 min,  0.048 sec ( 68.128%)
 molecular gradient             ...        0 min,  0.016 sec ( 22.932%)
 printout                       ...        0 min,  0.000 sec (  0.160%)

         :::::::::::::::::::::::::::::::::::::::::::::::::::::
         ::                     SUMMARY                     ::
         :::::::::::::::::::::::::::::::::::::::::::::::::::::
         :: total energy             -58.965657655723 Eh    ::
         :: gradient norm              0.000814207809 Eh/a0 ::
         :: HOMO-LUMO gap              3.216634565683 eV    ::
         ::.................................................::
         :: SCC energy               -59.566907727553 Eh    ::
         :: -> isotropic ES            0.112478982434 Eh    ::
         :: -> anisotropic ES         -0.001940477126 Eh    ::
         :: -> anisotropic XC          0.017688759415 Eh    ::
         :: -> dispersion             -0.035204243779 Eh    ::
         :: repulsion energy           0.601250071830 Eh    ::
         :: add. restraining           0.000000000000 Eh    ::
         :: total charge              -0.000000000000 e     ::
         :::::::::::::::::::::::::::::::::::::::::::::::::::::

           -------------------------------------------------
          |                Property Printout                |
           -------------------------------------------------

    * Orbital Energies and Occupations

         #    Occupation            Energy/Eh            Energy/eV
      -------------------------------------------------------------
         1        2.0000           -1.0584824             -28.8028
       ...           ...                  ...                  ...
        39        2.0000           -0.4678119             -12.7298
        40        2.0000           -0.4608312             -12.5399
        41        2.0000           -0.4558568             -12.4045
        42        2.0000           -0.4448359             -12.1046
        43        2.0000           -0.4393339             -11.9549
        44        2.0000           -0.4362227             -11.8702
        45        2.0000           -0.4281516             -11.6506
        46        2.0000           -0.4259664             -11.5911
        47        2.0000           -0.4225901             -11.4993
        48        2.0000           -0.4114536             -11.1962
        49        2.0000           -0.4093374             -11.1386
        50        2.0000           -0.3974332             -10.8147
        51        2.0000           -0.3852225             -10.4824 (HOMO)
        52                         -0.2670133              -7.2658 (LUMO)
        53                         -0.2443558              -6.6493
        54                         -0.2121572              -5.7731
        55                         -0.1412585              -3.8438
        56                         -0.1159174              -3.1543
        57                         -0.0336654              -0.9161
        58                         -0.0222809              -0.6063
        59                         -0.0036083              -0.0982
        60                          0.0126828               0.3451
        61                          0.0147151               0.4004
        62                          0.0148501               0.4041
       ...                                ...                  ...
        93                          0.6431926              17.5022
      -------------------------------------------------------------
                  HL-Gap            0.1182091 Eh            3.2166 eV
             Fermi-level           -0.3261179 Eh           -8.8741 eV

     #   Z          covCN         q      C6AA      α(0)
     1   7 N        2.647    -0.229    26.012     7.575
     2   6 C        2.883     0.175    24.253     8.074
     3   7 N        1.926    -0.303    28.689     7.942
     4   6 C        2.913     0.264    22.566     7.790
     5  17 Cl       1.051    -0.126   103.090    15.534
     6   7 N        1.910    -0.315    29.019     7.987
     7   6 C        3.166     0.143    24.565     8.099
     8   6 C        3.229     0.010    26.991     8.437
     9   7 N        1.881    -0.265    27.746     7.809
    10   6 C        3.195     0.100    25.295     8.200
    11   7 N        2.822    -0.071    22.615     7.063
    12   6 C        3.710     0.179    17.870     6.041
    13   6 C        3.817    -0.076    21.939     6.666
    14   6 C        3.738     0.104    18.950     6.212
    15   6 C        3.769     0.083    19.241     6.251
    16   8 O        1.701    -0.322    19.390     5.945
    17   6 C        3.674     0.069    19.644     6.351
    18   8 O        1.656    -0.431    21.453     6.253
    19   8 O        1.656    -0.434    21.522     6.263
    20   1 H        0.860     0.206     1.078     1.626
    21   1 H        0.861     0.205     1.082     1.629
    22   1 H        0.926     0.051     2.307     2.375
    23   1 H        0.923     0.049     2.333     2.389
    24   1 H        0.925     0.076     2.016     2.220
    25   1 H        0.925     0.060     2.204     2.322
    26   1 H        0.924     0.050     2.323     2.384
    27   1 H        0.923     0.056     2.251     2.346
    28   1 H        0.923     0.044     2.399     2.422
    29   1 H        0.924     0.051     2.306     2.375
    30   1 H        0.805     0.301     0.718     1.331
    31   1 H        0.805     0.298     0.726     1.339

 Mol. C6AA /au·bohr⁶  :      12596.290452
 Mol. C8AA /au·bohr⁸  :     307947.068517
 Mol. α(0) /au        :        169.247397


Wiberg/Mayer (AO) data.
largest (>0.10) Wiberg bond orders for each atom

 ---------------------------------------------------------------------------
     #   Z sym  total        # sym  WBO       # sym  WBO       # sym  WBO
 ---------------------------------------------------------------------------
     1   7 N    3.405 --     2 C    1.285    21 H    0.941    20 H    0.938
     2   6 C    3.971 --     3 N    1.316     1 N    1.285     8 C    1.219
     3   7 N    3.035 --     4 C    1.390     2 C    1.316
     4   6 C    3.937 --     6 N    1.413     3 N    1.390     5 Cl   0.995
     5  17 Cl   1.160 --     4 C    0.995
     6   7 N    3.032 --     4 C    1.413     7 C    1.281
     7   6 C    3.960 --     6 N    1.281     8 C    1.276    11 N    1.175
     8   6 C    3.972 --     7 C    1.276     2 C    1.219     9 N    1.207
     9   7 N    3.026 --    10 C    1.609     8 C    1.207    11 N    0.106
    10   6 C    3.951 --     9 N    1.609    11 N    1.195    22 H    0.961
    11   7 N    3.601 --    10 C    1.195     7 C    1.175    12 C    0.953
                             9 N    0.106
    12   6 C    3.945 --    16 O    0.995    13 C    0.981    23 H    0.953
                            11 N    0.953
    13   6 C    3.991 --    14 C    0.990    12 C    0.981    25 H    0.976
                            24 H    0.971
    14   6 C    3.956 --    19 O    1.001    13 C    0.990    15 C    0.962
                            26 H    0.956
    15   6 C    3.937 --    17 C    0.982    14 C    0.962    27 H    0.959
                            16 O    0.950
    16   8 O    2.089 --    12 C    0.995    15 C    0.950
    17   6 C    3.962 --    18 O    1.011    15 C    0.982    29 H    0.970
                            28 H    0.961
    18   8 O    1.966 --    17 C    1.011    30 H    0.894
    19   8 O    1.967 --    14 C    1.001    31 H    0.896
    20   1 H    0.957 --     1 N    0.938
    21   1 H    0.957 --     1 N    0.941
    22   1 H    0.996 --    10 C    0.961
    23   1 H    0.997 --    12 C    0.953
    24   1 H    0.994 --    13 C    0.971
    25   1 H    0.996 --    13 C    0.976
    26   1 H    0.998 --    14 C    0.956
    27   1 H    0.996 --    15 C    0.959
    28   1 H    0.998 --    17 C    0.961
    29   1 H    0.997 --    17 C    0.970
    30   1 H    0.909 --    18 O    0.894
    31   1 H    0.911 --    19 O    0.896
 ---------------------------------------------------------------------------

Topologies differ in total number of bonds
Writing topology from bond orders to xtbtopo.mol

molecular dipole:
                 x           y           z       tot (Debye)
 q only:        0.919       0.648      -0.800
   full:        0.981       0.874      -1.018       4.225
molecular quadrupole (traceless):
                xx          xy          yy          xz          yz          zz
 q only:       16.607       6.761      -7.271       5.868       0.405      -9.337
  q+dip:       15.754       4.301      -6.036       7.907      -0.277      -9.717
   full:       13.859       5.196      -5.481       6.362       1.223      -8.377

           -------------------------------------------------
          |                Geometry Summary                 |
           -------------------------------------------------

      molecular mass/u    :      285.6873164
   center of mass at/Å    :        0.3267453      -0.2912682       0.4152675
  moments of inertia/u·Å² :        0.1068150E+04   0.1796720E+04   0.2299782E+04
rotational constants/cm⁻¹ :        0.1578209E-01   0.9382451E-02   0.7330100E-02

 * 32 selected distances

     #   Z          #   Z                                           value/Å
     1   7 N        2   6 C                                       1.3381808
     2   6 C        3   7 N                                       1.3366235
     3   7 N        4   6 C                                       1.3176144
     4   6 C        5  17 Cl                                      1.7062965 (max)
     4   6 C        6   7 N                                       1.3158622
     6   7 N        7   6 C                                       1.3350970
     2   6 C        8   6 C                                       1.4070991
     7   6 C        8   6 C                                       1.4058564
     8   6 C        9   7 N                                       1.3709791
     9   7 N       10   6 C                                       1.2946945
     7   6 C       11   7 N                                       1.3652952
    10   6 C       11   7 N                                       1.3713861
    11   7 N       12   6 C                                       1.4528147
    12   6 C       13   6 C                                       1.5293533
    13   6 C       14   6 C                                       1.5313642
    12   6 C       16   8 O                                       1.3974490
    15   6 C       16   8 O                                       1.4303878
    15   6 C       17   6 C                                       1.5310823
    17   6 C       18   8 O                                       1.4027457
    14   6 C       19   8 O                                       1.4045124
     1   7 N       20   1 H                                       1.0042529
     1   7 N       21   1 H                                       1.0037233
    10   6 C       22   1 H                                       1.0723500
    12   6 C       23   1 H                                       1.0988840
    13   6 C       24   1 H                                       1.0897916
    13   6 C       25   1 H                                       1.0866375
    14   6 C       26   1 H                                       1.0965877
    15   6 C       27   1 H                                       1.0998901
    17   6 C       28   1 H                                       1.0984966
    17   6 C       29   1 H                                       1.0925531
    18   8 O       30   1 H                                       0.9648898
    19   8 O       31   1 H                                       0.9626033 (min)

 * 7 distinct bonds (by element types)

   Z      Z             #   av. dist./Å        max./Å        min./Å
   1 H    6 C           8     1.0918988     1.0998901     1.0723500
   6 C    6 C           5     1.4809511     1.5313642     1.4058564
   1 H    7 N           2     1.0039881     1.0042529     1.0037233
   6 C    7 N          10     1.3498547     1.4528147     1.2946945
   1 H    8 O           2     0.9637465     0.9648898     0.9626033
   6 C    8 O           4     1.4087737     1.4303878     1.3974490
   6 C   17 Cl          1     1.7062965     1.7062965     1.7062965


optimized geometry written to: xtbopt.xyz


           -------------------------------------------------
          | TOTAL ENERGY              -58.965657655723 Eh   |
          | GRADIENT NORM               0.000814207809 Eh/α |
          | HOMO-LUMO GAP               3.216634565683 eV   |
           -------------------------------------------------

------------------------------------------------------------------------
 * finished run on 2025/05/15 at 16:25:51.007     
------------------------------------------------------------------------
 total:
 * wall-time:     0 d,  0 h,  0 min,  1.525 sec
 *  cpu-time:     0 d,  0 h,  0 min,  0.869 sec
 * ratio c/w:     0.570 speedup
 SCF:
 * wall-time:     0 d,  0 h,  0 min,  0.045 sec
 *  cpu-time:     0 d,  0 h,  0 min,  0.045 sec
 * ratio c/w:     0.994 speedup
 ANC optimizer:
 * wall-time:     0 d,  0 h,  0 min,  1.469 sec
 *  cpu-time:     0 d,  0 h,  0 min,  0.814 sec
 * ratio c/w:     0.554 speedup



----- Single-point -----
      -----------------------------------------------------------      
     |                   =====================                   |     
     |                           x T B                           |     
     |                   =====================                   |     
     |                         S. Grimme                         |     
     |          Mulliken Center for Theoretical Chemistry        |     
     |                    University of Bonn                     |     
      -----------------------------------------------------------      

   * xtb version 6.7.1 (edcfbbe) compiled by 'conda@3ef47c1a292c' on 2024-11-25

   xtb is free software: you can redistribute it and/or modify it under
   the terms of the GNU Lesser General Public License as published by
   the Free Software Foundation, either version 3 of the License, or
   (at your option) any later version.
   
   xtb is distributed in the hope that it will be useful,
   but WITHOUT ANY WARRANTY; without even the implied warranty of
   MERCHANTABILITY or FITNESS FOR A PARTICULAR PURPOSE.  See the
   GNU Lesser General Public License for more details.
   
   Cite this work as:
   * C. Bannwarth, E. Caldeweyher, S. Ehlert, A. Hansen, P. Pracht,
     J. Seibert, S. Spicher, S. Grimme, WIREs Comput. Mol. Sci., 2020, 11,
     e01493. DOI: 10.1002/wcms.1493
   
   for GFN2-xTB:
   * C. Bannwarth, S. Ehlert and S. Grimme., J. Chem. Theory Comput., 2019,
     15, 1652-1671. DOI: 10.1021/acs.jctc.8b01176
   for GFN1-xTB:
   * S. Grimme, C. Bannwarth, P. Shushkov, J. Chem. Theory Comput., 2017,
     13, 1989-2009. DOI: 10.1021/acs.jctc.7b00118
   for GFN0-xTB:
   * P. Pracht, E. Caldeweyher, S. Ehlert, S. Grimme, ChemRxiv, 2019, preprint.
     DOI: 10.26434/chemrxiv.8326202.v1
   for GFN-FF:
   * S. Spicher and S. Grimme, Angew. Chem. Int. Ed., 2020, 59, 15665-15673.
     DOI: 10.1002/anie.202004239
   
   for ALPB and GBSA implicit solvation:
   * S. Ehlert, M. Stahn, S. Spicher, S. Grimme, J. Chem. Theory Comput.,
     2021, 17, 4250-4261. DOI: 10.1021/acs.jctc.1c00471
   
   for ddCOSMO and CPCM-X implicit solvation:
   * M. Stahn, S. Ehlert, S. Grimme, J. Phys. Chem. A,
     2023, XX, XXXX-XXXX. DOI: 10.1021/acs.jpca.3c04382
   
   for DFT-D4:
   * E. Caldeweyher, C. Bannwarth and S. Grimme, J. Chem. Phys., 2017,
     147, 034112. DOI: 10.1063/1.4993215
   * E. Caldeweyher, S. Ehlert, A. Hansen, H. Neugebauer, S. Spicher,
     C. Bannwarth and S. Grimme, J. Chem. Phys., 2019, 150, 154122.
     DOI: 10.1063/1.5090222
   * E. Caldeweyher, J.-M. Mewes, S. Ehlert and S. Grimme, Phys. Chem. Chem. Phys.
     2020, 22, 8499-8512. DOI: 10.1039/D0CP00502A
   
   for sTDA-xTB:
   * S. Grimme and C. Bannwarth, J. Chem. Phys., 2016, 145, 054103.
     DOI: 10.1063/1.4959605
   
   in the mass-spec context:
   * V. Asgeirsson, C. Bauer and S. Grimme, Chem. Sci., 2017, 8, 4879.
     DOI: 10.1039/c7sc00601b
   * J. Koopman and S. Grimme, ACS Omega 2019, 4, 12, 15120-15133.
     DOI: 10.1021/acsomega.9b02011
   
   for metadynamics refer to:
   * S. Grimme, J. Chem. Theory Comput., 2019, 155, 2847-2862
     DOI: 10.1021/acs.jctc.9b00143
   
   for SPH calculations refer to:
   * S. Spicher and S. Grimme, J. Chem. Theory Comput., 2021, 17, 1701-1714
     DOI: 10.1021/acs.jctc.0c01306
   
   for ONIOM refer to:
   * C. Plett, A. Katbashev, S. Ehlert, S. Grimme, M. Bursch,
     Phys. Chem. Chem. Phys., 2023, 25, 17860-17868. DOI: 10.1039/D3CP02178E
   
   for DIPRO refer to:
   * J. Kohn, N. Gildemeister, S. Grimme, D. Fazzi, A. Hansen,
     J. Chem. Phys., 2023, just accepted.
   
   for PTB refer to:
   * S. Grimme, M. Mueller, A. Hansen, J. Chem. Phys., 2023, 158, 124111.
     DOI: 10.1063/5.0137838
   
   with help from (in alphabetical order)
   P. Atkinson, C. Bannwarth, F. Bohle, G. Brandenburg, E. Caldeweyher
   M. Checinski, S. Dohm, S. Ehlert, S. Ehrlich, I. Gerasimov, C. Hölzer
   A. Katbashev, J. Kohn, J. Koopman, C. Lavigne, S. Lehtola, F. März, M. Müller,
   F. Musil, H. Neugebauer, J. Pisarek, C. Plett, P. Pracht, F. Pultar,
   J. Seibert, P. Shushkov, S. Spicher, M. Stahn, M. Steiner, T. Strunk,
   J. Stückrath, T. Rose, and J. Unsleber
   
 * started run on 2025/05/15 at 16:25:51.020     
   ID    Z sym.   atoms
    1    7 N      1, 3, 6, 9, 11
    2    6 C      2, 4, 7, 8, 10, 12-15, 17
    3   17 Cl     5
    4    8 O      16, 18, 19
    5    1 H      20-31

           -------------------------------------------------
          |                Calculation Setup                |
           -------------------------------------------------

          program call               : xtb /rds/general/user/hgt20/home/callum/QDESCP/Cladribine_rdkit_conf_14/Cladribine_rdkit_conf_14.xyz --acc 1 --gfn 2 --chrg 0 --uhf 0 --etemp 300 --input /rds/general/user/hgt20/home/callum/QDESCP/Cladribine_rdkit_conf_14/Cladribine_rdkit_conf_14_xtb.inp -P 1
          hostname                   : login-c
          coordinate file            : /rds/general/user/hgt20/home/callum/QDESCP/Cladribine_rdkit_conf_14/Cladribine_rdkit_conf_14.xyz
          omp threads                :                     1


           -------------------------------------------------
          |                 G F N 2 - x T B                 |
           -------------------------------------------------

        Reference                      10.1021/acs.jctc.8b01176
      * Hamiltonian:
        H0-scaling (s, p, d)           1.850000    2.230000    2.230000
        zeta-weighting                 0.500000
      * Dispersion:
        s8                             2.700000
        a1                             0.520000
        a2                             5.000000
        s9                             5.000000
      * Repulsion:
        kExp                           1.500000    1.000000
        rExp                           1.000000
      * Coulomb:
        alpha                          2.000000
        third order                    shell-resolved
        anisotropic                    true
        a3                             3.000000
        a5                             4.000000
        cn-shift                       1.200000
        cn-exp                         4.000000
        max-rad                        5.000000

q/qsh data taken from xtbrestart
CAMM data taken from xtbrestart

          ...................................................
          :                      SETUP                      :
          :.................................................:
          :  # basis functions                  94          :
          :  # atomic orbitals                  93          :
          :  # shells                           51          :
          :  # electrons                       102          :
          :  max. iterations                   250          :
          :  Hamiltonian                  GFN2-xTB          :
          :  restarted?                       true          :
          :  GBSA solvation                  false          :
          :  PC potential                    false          :
          :  electronic temp.          300.0000000     K    :
          :  accuracy                    1.0000000          :
          :  -> integral cutoff          0.2500000E+02      :
          :  -> integral neglect         0.1000000E-07      :
          :  -> SCF convergence          0.1000000E-05 Eh   :
          :  -> wf. convergence          0.1000000E-03 e    :
          :  Broyden damping             0.4000000          :
          :  net charge                          0          :
          :  unpaired electrons                  0          :
          ...................................................

 iter      E             dE          RMSdq      gap      omega  full diag
   1    -59.5674708 -0.595675E+02  0.779E-05    3.22       0.0  T
   2    -59.5674708 -0.262190E-10  0.644E-05    3.22     279.0  T
   3    -59.5674708 -0.186802E-10  0.492E-05    3.22     364.8  T

   *** convergence criteria satisfied after 3 iterations ***

         #    Occupation            Energy/Eh            Energy/eV
      -------------------------------------------------------------
         1        2.0000           -1.0584822             -28.8028
       ...           ...                  ...                  ...
        45        2.0000           -0.4281519             -11.6506
        46        2.0000           -0.4259671             -11.5912
        47        2.0000           -0.4225905             -11.4993
        48        2.0000           -0.4114548             -11.1963
        49        2.0000           -0.4093382             -11.1387
        50        2.0000           -0.3974343             -10.8147
        51        2.0000           -0.3852232             -10.4825 (HOMO)
        52                         -0.2670144              -7.2658 (LUMO)
        53                         -0.2443565              -6.6493
        54                         -0.2121581              -5.7731
        55                         -0.1412611              -3.8439
        56                         -0.1159187              -3.1543
       ...                                ...                  ...
        93                          0.6431918              17.5021
      -------------------------------------------------------------
                  HL-Gap            0.1182088 Eh            3.2166 eV
             Fermi-level           -0.3261188 Eh           -8.8741 eV

 SCC (total)                   0 d,  0 h,  0 min,  0.074 sec
 SCC setup                      ...        0 min,  0.000 sec (  0.427%)
 Dispersion                     ...        0 min,  0.000 sec (  0.390%)
 classical contributions        ...        0 min,  0.000 sec (  0.122%)
 integral evaluation            ...        0 min,  0.006 sec (  8.376%)
 iterations                     ...        0 min,  0.050 sec ( 67.534%)
 molecular gradient             ...        0 min,  0.017 sec ( 22.903%)
 printout                       ...        0 min,  0.000 sec (  0.238%)

         :::::::::::::::::::::::::::::::::::::::::::::::::::::
         ::                     SUMMARY                     ::
         :::::::::::::::::::::::::::::::::::::::::::::::::::::
         :: total energy             -58.965657656031 Eh    ::
         :: gradient norm              0.000813791610 Eh/a0 ::
         :: HOMO-LUMO gap              3.216625532988 eV    ::
         ::.................................................::
         :: SCC energy               -59.566907727861 Eh    ::
         :: -> isotropic ES            0.112479920367 Eh    ::
         :: -> anisotropic ES         -0.001940533163 Eh    ::
         :: -> anisotropic XC          0.017687908128 Eh    ::
         :: -> dispersion             -0.035204248646 Eh    ::
         :: repulsion energy           0.601250071830 Eh    ::
         :: add. restraining           0.000000000000 Eh    ::
         :: total charge               0.000000000000 e     ::
         :::::::::::::::::::::::::::::::::::::::::::::::::::::

           -------------------------------------------------
          |                Property Printout                |
           -------------------------------------------------

    * Orbital Energies and Occupations

         #    Occupation            Energy/Eh            Energy/eV
      -------------------------------------------------------------
         1        2.0000           -1.0584822             -28.8028
       ...           ...                  ...                  ...
        39        2.0000           -0.4678122             -12.7298
        40        2.0000           -0.4608318             -12.5399
        41        2.0000           -0.4558571             -12.4045
        42        2.0000           -0.4448366             -12.1046
        43        2.0000           -0.4393346             -11.9549
        44        2.0000           -0.4362233             -11.8702
        45        2.0000           -0.4281519             -11.6506
        46        2.0000           -0.4259671             -11.5912
        47        2.0000           -0.4225905             -11.4993
        48        2.0000           -0.4114548             -11.1963
        49        2.0000           -0.4093382             -11.1387
        50        2.0000           -0.3974343             -10.8147
        51        2.0000           -0.3852232             -10.4825 (HOMO)
        52                         -0.2670144              -7.2658 (LUMO)
        53                         -0.2443565              -6.6493
        54                         -0.2121581              -5.7731
        55                         -0.1412611              -3.8439
        56                         -0.1159187              -3.1543
        57                         -0.0336658              -0.9161
        58                         -0.0222813              -0.6063
        59                         -0.0036092              -0.0982
        60                          0.0126826               0.3451
        61                          0.0147151               0.4004
        62                          0.0148501               0.4041
       ...                                ...                  ...
        93                          0.6431918              17.5021
      -------------------------------------------------------------
                  HL-Gap            0.1182088 Eh            3.2166 eV
             Fermi-level           -0.3261188 Eh           -8.8741 eV

     #   Z          covCN         q      C6AA      α(0)
     1   7 N        2.647    -0.229    26.012     7.575
     2   6 C        2.883     0.175    24.253     8.074
     3   7 N        1.926    -0.303    28.689     7.942
     4   6 C        2.913     0.264    22.566     7.790
     5  17 Cl       1.051    -0.126   103.090    15.534
     6   7 N        1.910    -0.315    29.019     7.987
     7   6 C        3.166     0.143    24.565     8.099
     8   6 C        3.229     0.010    26.991     8.437
     9   7 N        1.881    -0.265    27.746     7.809
    10   6 C        3.195     0.100    25.295     8.200
    11   7 N        2.822    -0.071    22.615     7.063
    12   6 C        3.710     0.179    17.870     6.041
    13   6 C        3.817    -0.076    21.939     6.666
    14   6 C        3.738     0.104    18.950     6.212
[...]
      -----------------------------------------------------------      

   * xtb version 6.7.1 (edcfbbe) compiled by 'conda@3ef47c1a292c' on 2024-11-25

   xtb is free software: you can redistribute it and/or modify it under
   the terms of the GNU Lesser General Public License as published by
   the Free Software Foundation, either version 3 of the License, or
   (at your option) any later version.
   
   xtb is distributed in the hope that it will be useful,
   but WITHOUT ANY WARRANTY; without even the implied warranty of
   MERCHANTABILITY or FITNESS FOR A PARTICULAR PURPOSE.  See the
   GNU Lesser General Public License for more details.
   
   Cite this work as:
   * C. Bannwarth, E. Caldeweyher, S. Ehlert, A. Hansen, P. Pracht,
     J. Seibert, S. Spicher, S. Grimme, WIREs Comput. Mol. Sci., 2020, 11,
     e01493. DOI: 10.1002/wcms.1493
   
   for GFN2-xTB:
   * C. Bannwarth, S. Ehlert and S. Grimme., J. Chem. Theory Comput., 2019,
     15, 1652-1671. DOI: 10.1021/acs.jctc.8b01176
   for GFN1-xTB:
   * S. Grimme, C. Bannwarth, P. Shushkov, J. Chem. Theory Comput., 2017,
     13, 1989-2009. DOI: 10.1021/acs.jctc.7b00118
   for GFN0-xTB:
   * P. Pracht, E. Caldeweyher, S. Ehlert, S. Grimme, ChemRxiv, 2019, preprint.
     DOI: 10.26434/chemrxiv.8326202.v1
   for GFN-FF:
   * S. Spicher and S. Grimme, Angew. Chem. Int. Ed., 2020, 59, 15665-15673.
     DOI: 10.1002/anie.202004239
   
   for ALPB and GBSA implicit solvation:
   * S. Ehlert, M. Stahn, S. Spicher, S. Grimme, J. Chem. Theory Comput.,
     2021, 17, 4250-4261. DOI: 10.1021/acs.jctc.1c00471
   
   for ddCOSMO and CPCM-X implicit solvation:
   * M. Stahn, S. Ehlert, S. Grimme, J. Phys. Chem. A,
     2023, XX, XXXX-XXXX. DOI: 10.1021/acs.jpca.3c04382
   
   for DFT-D4:
   * E. Caldeweyher, C. Bannwarth and S. Grimme, J. Chem. Phys., 2017,
     147, 034112. DOI: 10.1063/1.4993215
   * E. Caldeweyher, S. Ehlert, A. Hansen, H. Neugebauer, S. Spicher,
     C. Bannwarth and S. Grimme, J. Chem. Phys., 2019, 150, 154122.
     DOI: 10.1063/1.5090222
   * E. Caldeweyher, J.-M. Mewes, S. Ehlert and S. Grimme, Phys. Chem. Chem. Phys.
     2020, 22, 8499-8512. DOI: 10.1039/D0CP00502A
   
   for sTDA-xTB:
   * S. Grimme and C. Bannwarth, J. Chem. Phys., 2016, 145, 054103.
     DOI: 10.1063/1.4959605
   
   in the mass-spec context:
   * V. Asgeirsson, C. Bauer and S. Grimme, Chem. Sci., 2017, 8, 4879.
     DOI: 10.1039/c7sc00601b
   * J. Koopman and S. Grimme, ACS Omega 2019, 4, 12, 15120-15133.
     DOI: 10.1021/acsomega.9b02011
   
   for metadynamics refer to:
   * S. Grimme, J. Chem. Theory Comput., 2019, 155, 2847-2862
     DOI: 10.1021/acs.jctc.9b00143
   
   for SPH calculations refer to:
   * S. Spicher and S. Grimme, J. Chem. Theory Comput., 2021, 17, 1701-1714
     DOI: 10.1021/acs.jctc.0c01306
   
   for ONIOM refer to:
   * C. Plett, A. Katbashev, S. Ehlert, S. Grimme, M. Bursch,
     Phys. Chem. Chem. Phys., 2023, 25, 17860-17868. DOI: 10.1039/D3CP02178E
   
   for DIPRO refer to:
   * J. Kohn, N. Gildemeister, S. Grimme, D. Fazzi, A. Hansen,
     J. Chem. Phys., 2023, just accepted.
   
   for PTB refer to:
   * S. Grimme, M. Mueller, A. Hansen, J. Chem. Phys., 2023, 158, 124111.
     DOI: 10.1063/5.0137838
   
   with help from (in alphabetical order)
   P. Atkinson, C. Bannwarth, F. Bohle, G. Brandenburg, E. Caldeweyher
   M. Checinski, S. Dohm, S. Ehlert, S. Ehrlich, I. Gerasimov, C. Hölzer
   A. Katbashev, J. Kohn, J. Koopman, C. Lavigne, S. Lehtola, F. März, M. Müller,
   F. Musil, H. Neugebauer, J. Pisarek, C. Plett, P. Pracht, F. Pultar,
   J. Seibert, P. Shushkov, S. Spicher, M. Stahn, M. Steiner, T. Strunk,
   J. Stückrath, T. Rose, and J. Unsleber
   
 * started run on 2025/05/15 at 16:25:53.003     
   ID    Z sym.   atoms
    1    7 N      1, 3, 6, 9, 11
    2    6 C      2, 4, 7, 8, 10, 12-15, 17
    3   17 Cl     5
    4    8 O      16, 18, 19
    5    1 H      20-31

           -------------------------------------------------
          |                Calculation Setup                |
           -------------------------------------------------

          program call               : xtb /rds/general/user/hgt20/home/callum/QDESCP/Cladribine_rdkit_conf_14/Cladribine_rdkit_conf_14.xyz --acc 1 --gfn 2 --chrg 0 --uhf 2 --etemp 300 --input /rds/general/user/hgt20/home/callum/QDESCP/Cladribine_rdkit_conf_14/Cladribine_rdkit_conf_14_xtb.inp -P 1
          hostname                   : login-c
          coordinate file            : /rds/general/user/hgt20/home/callum/QDESCP/Cladribine_rdkit_conf_14/Cladribine_rdkit_conf_14.xyz
          omp threads                :                     1


           -------------------------------------------------
          |                 G F N 2 - x T B                 |
           -------------------------------------------------

        Reference                      10.1021/acs.jctc.8b01176
      * Hamiltonian:
        H0-scaling (s, p, d)           1.850000    2.230000    2.230000
        zeta-weighting                 0.500000
      * Dispersion:
        s8                             2.700000
        a1                             0.520000
        a2                             5.000000
        s9                             5.000000
      * Repulsion:
        kExp                           1.500000    1.000000
        rExp                           1.000000
      * Coulomb:
        alpha                          2.000000
        third order                    shell-resolved
        anisotropic                    true
        a3                             3.000000
        a5                             4.000000
        cn-shift                       1.200000
        cn-exp                         4.000000
        max-rad                        5.000000


          ...................................................
          :                      SETUP                      :
          :.................................................:
          :  # basis functions                  94          :
          :  # atomic orbitals                  93          :
          :  # shells                           51          :
          :  # electrons                       102          :
          :  max. iterations                   250          :
          :  Hamiltonian                  GFN2-xTB          :
          :  restarted?                      false          :
          :  GBSA solvation                  false          :
          :  PC potential                    false          :
          :  electronic temp.          300.0000000     K    :
          :  accuracy                    1.0000000          :
          :  -> integral cutoff          0.2500000E+02      :
          :  -> integral neglect         0.1000000E-07      :
          :  -> SCF convergence          0.1000000E-05 Eh   :
          :  -> wf. convergence          0.1000000E-03 e    :
          :  Broyden damping             0.4000000          :
          :  net charge                          0          :
          :  unpaired electrons                  2          :
          ...................................................

 iter      E             dE          RMSdq      gap      omega  full diag
   1    -59.1800914 -0.591801E+02  0.448E+00    0.35       0.0  T
   2    -59.3278216 -0.147730E+00  0.303E+00    0.87       1.0  T
   3    -59.3528406 -0.250190E-01  0.210E+00    0.56       1.0  T
   4    -59.2974965  0.553441E-01  0.178E+00    0.75       1.0  T
   5    -59.3880023 -0.905059E-01  0.115E+00    0.33       1.0  T
   6    -59.4336903 -0.456880E-01  0.387E-01    0.38       1.0  T
   7    -59.4376751 -0.398479E-02  0.217E-01    0.38       1.0  T
   8    -59.4385613 -0.886252E-03  0.974E-02    0.39       1.0  T
   9    -59.4385844 -0.230703E-04  0.827E-02    0.38       1.0  T
  10    -59.4386536 -0.691420E-04  0.508E-02    0.38       1.0  T
  11    -59.4387049 -0.513283E-04  0.253E-02    0.38       1.0  T
  12    -59.4387089 -0.399598E-05  0.192E-02    0.38       1.0  T
  13    -59.4387134 -0.452642E-05  0.115E-02    0.38       1.6  T
  14    -59.4387151 -0.171498E-05  0.521E-03    0.38       3.4  T
  15    -59.4387156 -0.480930E-06  0.232E-03    0.38       7.7  T
  16    -59.4387156  0.469409E-07  0.201E-03    0.38       9.0  T
  17    -59.4387157 -0.110728E-06  0.105E-03    0.38      17.0  T
  18    -59.4387157 -0.214839E-07  0.595E-04    0.38      30.2  T
  19    -59.4387157 -0.194827E-08  0.419E-04    0.38      42.9  T

   *** convergence criteria satisfied after 19 iterations ***

         #    Occupation            Energy/Eh            Energy/eV
      -------------------------------------------------------------
         1        2.0000           -1.0571722             -28.7671
       ...           ...                  ...                  ...
        46        2.0000           -0.4265921             -11.6082
        47        2.0000           -0.4243973             -11.5484
        48        2.0000           -0.4173938             -11.3579
        49        2.0000           -0.4137223             -11.2580
        50        1.6062           -0.3944096             -10.7324
        51        1.3938           -0.3935903             -10.7101
        52        0.9993           -0.2570051              -6.9935 (HOMO)
        53        0.0007           -0.2430833              -6.6146 (LUMO)
        54                         -0.2064102              -5.6167
        55                         -0.1382077              -3.7608
        56                         -0.1132704              -3.0822
        57                         -0.0350103              -0.9527
       ...                                ...                  ...
        93                          0.6438589              17.5203
      -------------------------------------------------------------
                  HL-Gap            0.0139218 Eh            0.3788 eV
             Fermi-level           -0.3220221 Eh           -8.7627 eV

 transition dipole moment (au) for excitation:          51          52
     X       Y       Z   
  -0.2192   0.1322  -0.1489  total (au/Debye):    0.296   0.753
 dE (eV)             :    3.717
 oscillator strength :  0.11294E-01

 SCC (total)                   0 d,  0 h,  0 min,  0.114 sec
 SCC setup                      ...        0 min,  0.000 sec (  0.237%)
 Dispersion                     ...        0 min,  0.000 sec (  0.247%)
 classical contributions        ...        0 min,  0.000 sec (  0.077%)
 integral evaluation            ...        0 min,  0.006 sec (  5.388%)
 iterations                     ...        0 min,  0.084 sec ( 74.119%)
 molecular gradient             ...        0 min,  0.017 sec ( 14.542%)
 printout                       ...        0 min,  0.006 sec (  5.382%)

         :::::::::::::::::::::::::::::::::::::::::::::::::::::
         ::                     SUMMARY                     ::
         :::::::::::::::::::::::::::::::::::::::::::::::::::::
         :: total energy             -58.836902503217 Eh    ::
         :: gradient norm              0.128450330261 Eh/a0 ::
         :: HOMO-LUMO gap              0.378830549956 eV    ::
         ::.................................................::
         :: SCC energy               -59.438152575048 Eh    ::
         :: -> isotropic ES            0.103325410482 Eh    ::
         :: -> anisotropic ES         -0.001313285713 Eh    ::
         :: -> anisotropic XC          0.009980219372 Eh    ::
         :: -> dispersion             -0.035142675894 Eh    ::
         :: repulsion energy           0.601250071830 Eh    ::
         :: add. restraining           0.000000000000 Eh    ::
         :: total charge               0.000000001023 e     ::
         :::::::::::::::::::::::::::::::::::::::::::::::::::::

           -------------------------------------------------
          |                Property Printout                |
           -------------------------------------------------

    * Orbital Energies and Occupations

         #    Occupation            Energy/Eh            Energy/eV
      -------------------------------------------------------------
         1        2.0000           -1.0571722             -28.7671
       ...           ...                  ...                  ...
        40        2.0000           -0.4611965             -12.5498
        41        2.0000           -0.4568437             -12.4314
        42        2.0000           -0.4480159             -12.1911
        43        2.0000           -0.4434010             -12.0656
        44        2.0000           -0.4382635             -11.9258
        45        2.0000           -0.4278154             -11.6414
        46        2.0000           -0.4265921             -11.6082
        47        2.0000           -0.4243973             -11.5484
        48        2.0000           -0.4173938             -11.3579
        49        2.0000           -0.4137223             -11.2580
        50        1.6062           -0.3944096             -10.7324
        51        1.3938           -0.3935903             -10.7101
        52        0.9993           -0.2570051              -6.9935 (HOMO)
        53        0.0007           -0.2430833              -6.6146 (LUMO)
        54                         -0.2064102              -5.6167
        55                         -0.1382077              -3.7608
        56                         -0.1132704              -3.0822
        57                         -0.0350103              -0.9527
        58                         -0.0225825              -0.6145
        59                          0.0000533               0.0014
        60                          0.0125379               0.3412
        61                          0.0161031               0.4382
        62                          0.0162566               0.4424
        63                          0.0163664               0.4454
       ...                                ...                  ...
        93                          0.6438589              17.5203
      -------------------------------------------------------------
                  HL-Gap            0.0139218 Eh            0.3788 eV
             Fermi-level           -0.3220221 Eh           -8.7627 eV

     #   Z          covCN         q      C6AA      α(0)
     1   7 N        2.647    -0.228    25.986     7.571
     2   6 C        2.883     0.122    25.328     8.251
     3   7 N        1.926    -0.255    27.482     7.773
     4   6 C        2.913     0.224    23.302     7.916
     5  17 Cl       1.051    -0.129   103.208    15.543
     6   7 N        1.910    -0.283    28.190     7.872
     7   6 C        3.166     0.148    24.473     8.084
     8   6 C        3.229     0.031    26.521     8.363
     9   7 N        1.881    -0.246    27.260     7.740
    10   6 C        3.195     0.069    25.948     8.305
    11   7 N        2.822    -0.076    22.716     7.079
    12   6 C        3.710     0.177    17.887     6.044
    13   6 C        3.817    -0.077    21.963     6.670
    14   6 C        3.738     0.106    18.916     6.206
    15   6 C        3.769     0.082    19.245     6.252
    16   8 O        1.701    -0.321    19.370     5.942
    17   6 C        3.674     0.070    19.635     6.350
    18   8 O        1.656    -0.426    21.355     6.238
    19   8 O        1.656    -0.432    21.472     6.255
    20   1 H        0.860     0.201     1.101     1.644
    21   1 H        0.861     0.198     1.114     1.653
    22   1 H        0.926     0.042     2.416     2.431
    23   1 H        0.923     0.054     2.272     2.357
    24   1 H        0.925     0.078     2.004     2.214
    25   1 H        0.925     0.061     2.184     2.311
    26   1 H        0.924     0.047     2.352     2.398
    27   1 H        0.923     0.059     2.215     2.327
    28   1 H        0.923     0.047     2.358     2.402
    29   1 H        0.924     0.053     2.283     2.363
    30   1 H        0.805     0.304     0.710     1.323
    31   1 H        0.805     0.299     0.723     1.336

 Mol. C6AA /au·bohr⁶  :      12585.822838
 Mol. C8AA /au·bohr⁸  :     307864.895551
 Mol. α(0) /au        :        169.212070


Wiberg/Mayer (AO) data.
largest (>0.10) Wiberg bond orders for each atom

 ---------------------------------------------------------------------------
     #   Z sym  total        # sym  WBO       # sym  WBO       # sym  WBO
 ---------------------------------------------------------------------------
     1   7 N    3.272 --     2 C    1.222    21 H    0.944    20 H    0.941
     2   6 C    3.872 --     3 N    1.286     1 N    1.222     8 C    1.094
     3   7 N    3.051 --     4 C    1.399     2 C    1.286
     4   6 C    3.841 --     3 N    1.399     6 N    1.201     5 Cl   0.985
     5  17 Cl   1.139 --     4 C    0.985
     6   7 N    2.905 --     7 C    1.290     4 C    1.201
     7   6 C    3.907 --     6 N    1.290     8 C    1.221    11 N    1.183
     8   6 C    3.833 --     9 N    1.301     7 C    1.221     2 C    1.094
     9   7 N    3.023 --    10 C    1.407     8 C    1.301
    10   6 C    3.805 --     9 N    1.407    11 N    1.150    22 H    0.963
    11   7 N    3.572 --     7 C    1.183    10 C    1.150    12 C    0.957
    12   6 C    3.944 --    16 O    0.992    13 C    0.980    11 N    0.957
                            23 H    0.951
    13   6 C    3.989 --    14 C    0.990    12 C    0.980    25 H    0.976
                            24 H    0.971
    14   6 C    3.952 --    19 O    1.002    13 C    0.990    15 C    0.962
                            26 H    0.951
    15   6 C    3.935 --    17 C    0.979    14 C    0.962    27 H    0.957
                            16 O    0.952
    16   8 O    2.089 --    12 C    0.992    15 C    0.952
    17   6 C    3.955 --    18 O    1.013    15 C    0.979    29 H    0.970
                            28 H    0.956
    18   8 O    1.967 --    17 C    1.013    30 H    0.892
    19   8 O    1.968 --    14 C    1.002    31 H    0.895
    20   1 H    0.958 --     1 N    0.941
    21   1 H    0.960 --     1 N    0.944
    22   1 H    0.997 --    10 C    0.963
    23   1 H    0.995 --    12 C    0.951
    24   1 H    0.993 --    13 C    0.971
    25   1 H    0.996 --    13 C    0.976
    26   1 H    0.996 --    14 C    0.951
    27   1 H    0.993 --    15 C    0.957
    28   1 H    0.996 --    17 C    0.956
    29   1 H    0.997 --    17 C    0.970
    30   1 H    0.908 --    18 O    0.892
    31   1 H    0.910 --    19 O    0.895
 ---------------------------------------------------------------------------

Topologies differ in total number of bonds
Writing topology from bond orders to xtbtopo.mol

molecular dipole:
                 x           y           z       tot (Debye)
 q only:        0.640       0.563      -0.744
   full:        0.739       0.769      -0.937       3.608
molecular quadrupole (traceless):
                xx          xy          yy          xz          yz          zz
 q only:       16.007       6.380      -7.397       5.376       0.945      -8.610
  q+dip:       15.910       4.273      -6.558       7.432       0.509      -9.352
   full:       14.529       5.159      -6.121       6.220       1.654      -8.408


           -------------------------------------------------
          | TOTAL ENERGY              -58.836902503217 Eh   |
          | GRADIENT NORM               0.128450330261 Eh/α |
          | HOMO-LUMO GAP               0.378830549956 eV   |
           -------------------------------------------------

------------------------------------------------------------------------
 * finished run on 2025/05/15 at 16:25:53.128     
------------------------------------------------------------------------
 total:
 * wall-time:     0 d,  0 h,  0 min,  0.125 sec
 *  cpu-time:     0 d,  0 h,  0 min,  0.069 sec
 * ratio c/w:     0.549 speedup
 SCF:
 * wall-time:     0 d,  0 h,  0 min,  0.114 sec
 *  cpu-time:     0 d,  0 h,  0 min,  0.059 sec
 * ratio c/w:     0.514 speedup


