31
 energy: -58.965657655723 gnorm: 0.000814207809 xtb: 6.7.1 (edcfbbe)
N            4.71632342464734        0.07792561447577        1.01145654492012
C            3.42140386353228       -0.21923425625415        0.85143549870325
N            2.95031108857071       -1.34239305735449        1.40202418161512
C            1.67783651575933       -1.64323534818104        1.23951318947078
Cl           1.16822666993043       -3.09340831066608        1.98028531580564
N            0.74192533339936       -0.98613150412718        0.58853106851812
C            1.19685412949330        0.14172565828286        0.03765750933275
C            2.52631416248166        0.58992843313989        0.12755863158603
N            2.65807769043166        1.77700065622627       -0.54555443483693
C            1.47492821265293        2.02737753929801       -1.00783391838713
N            0.53425367230216        1.07666622879537       -0.70455370811647
C           -0.87128103948713        1.12970368392720       -1.06832479872616
C           -1.34391153640097       -0.14632659804088       -1.76638509600493
C           -2.03987270948554       -0.94246397591777       -0.65873930421639
C           -2.45374481687105        0.15005189156585        0.34998288239969
O           -1.66967597655580        1.31172874697149        0.06406022732428
C           -2.24407813892313       -0.25212594047667        1.81234588059363
O           -2.69807152106189        0.74231031101652        2.69136904587745
O           -3.13536352054994       -1.63313672737042       -1.20236200357304
H            5.29635944563303       -0.53987817727394        1.55034467708952
H            5.07967806893075        0.92348134902842        0.61087049224358
H            1.22935090914623        2.89482189442143       -1.58849425035113
H           -0.96976168592803        2.01919298967075       -1.70602082745409
H           -2.08447674581026        0.08830696600463       -2.53068594817072
H           -0.52017026182044       -0.69241260739131       -2.21807223445683
H           -1.33283765070144       -1.63114928770115       -0.18091262973969
H           -3.50830430892927        0.42048892717904        0.19337466555041
H           -1.17783228164755       -0.46509593246845        1.96873706589532
H           -2.82276898347838       -1.15072261618432        2.03886973962839
H           -2.28343013567873        1.57282545740025        2.42806460870146
H           -3.51616187358191       -2.20582200799515       -0.52884207122091
