33
 energy: -45.171900045440 gnorm: 0.000671511001 xtb: 6.7.1 (edcfbbe)
C            3.17693766044924       -0.61694192878395        1.14623538378544
C            3.08981494274786        0.65600770651470        0.30973577070976
C            2.23349177153501        0.42440214786627       -0.94717582453911
C            0.80593324460332        0.11598351661077       -0.60286311583966
C           -0.04747704899555        1.12712708540744       -0.17585529861766
C           -1.35721108573209        0.85468302400363        0.16821880372083
C           -1.85004563216107       -0.44249636114519        0.09213025916872
C           -3.28338339035481       -0.74637584358959        0.47605009165914
C           -4.16425687609274        0.12232259762716       -0.39497825506454
O           -4.54556331851131       -0.52288582809765       -1.50491245946957
O           -4.47567473648872        1.26077870749848       -0.17155636408425
C           -3.53701476189226       -0.46654028749103        1.95766480485038
C           -1.00531361214564       -1.45395068023501       -0.34072121522611
C            0.30739923614815       -1.17723835890063       -0.67946348215774
C            4.48519494356243        1.13096023762920       -0.08648604804633
H            3.64444937620921       -1.41566298671076        0.57363263132206
H            2.18539930422759       -0.94423985782537        1.44988427738126
H            3.77163201123530       -0.44417582742723        2.04033914007336
H            2.61093174174980        1.43551105089914        0.91255639164658
H            2.26850604451174        1.32564736559489       -1.56407400259764
H            2.66378746149329       -0.39789492791260       -1.52238159312025
H            0.31812425899861        2.14257843106992       -0.11930817355824
H           -2.00884614789194        1.65589495997644        0.48293025352561
H           -3.50066284154456       -1.79148452482441        0.24095525291595
H           -5.07017379311454        0.06113096240715       -2.07526790314096
H           -2.81468935424806       -1.00545793438766        2.56571079835183
H           -3.44469805783118        0.59718999734033        2.15772404641948
H           -4.53949260164530       -0.78337897085602        2.23611112702718
H           -1.37440090235704       -2.46717464756477       -0.41285196970084
H            0.95077735706128       -1.97919715232285       -1.01247035907375
H            5.09270458043901        1.30782974998892        0.79814576911775
H            4.43190357461324        2.05661299059960       -0.65547184995105
H            4.98181665142309        0.38043558704037       -0.69828688748677
