98
 energy: -148.198841764744 gnorm: 0.000798921053 xtb: 6.7.1 (edcfbbe)
O           -4.45420197677301        0.26565749279041        0.35663581341752
C           -5.10598136483913        0.75080376209662       -0.53641861960524
N           -4.67903764571857        0.98896205353924       -1.78774721475023
C           -3.39929275982142        0.51994824953852       -2.28554580349631
C           -3.59541873558084       -0.19848775812074       -3.62483486034224
C           -4.52661102831249       -1.36493868341647       -3.45060072541854
C           -4.12243103008469       -2.46126516066079       -2.69637463403892
C           -4.98222946756342       -3.52459707635348       -2.49318354224586
C           -6.25567052620987       -3.50658702170976       -3.03885068645238
C           -6.66540799058318       -2.41869543516898       -3.78870629574577
C           -5.80476199230502       -1.35278614747611       -3.99040535210022
C           -2.40954580306606        1.70041255932486       -2.41599179007366
C           -2.08400206331098        2.33427376487505       -1.05569680901436
C           -1.42793296927414        1.35858068702335       -0.07195042059259
N           -0.23451801474292        0.77566172858007       -0.64476272601061
C           -0.15132397880879       -0.50659793534698       -1.02390295600033
C            1.26842116509753       -0.88725121012119       -1.47996238104597
N            2.13286588070106       -0.96627019045161       -0.31489786018448
C            2.72699856532955        0.15736737296280        0.18296506240729
N            3.53330424524877       -0.03022101661278        1.26232850852292
C            3.88062713692621       -1.33950448469027        1.76352316582731
C            4.31009703535052        1.09716738804008        1.74519765151860
C            5.72322434537399        1.01831663321145        1.25429394449920
C            6.18064046410216        1.52723062111217        0.07867418226730
S            7.84165495404101        1.14483072801084       -0.13955704277314
C            7.79911290252584        0.30111336603820        1.39984127952570
C            9.02617380341902       -0.33214199011283        1.96015253295524
C            9.73973507774596        0.67845825461512        2.86530926655630
C            8.66430548313129       -1.59708420973803        2.73616864444196
N            6.65192752304875        0.33254976149575        1.97374146112526
O            2.56118927864734        1.26124548230747       -0.32690406182037
C            1.29409162046757       -2.20358189665585       -2.26620675934936
C            0.47164866576383       -2.06166545579077       -3.54493154294490
C            2.72900147612698       -2.60118491194786       -2.60264687252399
O           -1.08035408325668       -1.29327923733426       -0.99844228666412
C           -1.08042535556757        2.04861905222160        1.25346511178464
C           -0.58506541856129        1.04146357269266        2.25306652099110
C           -1.43192316511778        0.03038991192286        2.69506788878848
C           -0.97835758292575       -0.92209613815985        3.58825393321932
C            0.32386056053581       -0.87234531085143        4.05911328119395
C            1.16836336943002        0.13694197133977        3.63245910412825
C            0.71713332076060        1.08486982571989        2.72943176322027
O           -2.89225760587198        2.67362183241278       -3.31606381324929
O           -6.38645358478192        1.18508759772574       -0.38354635975327
C           -6.89646200060607        1.08101601310826        0.94534261643084
C           -6.35251200802014        2.14662817107241        1.83435940624638
C           -6.98224302256868        3.25612254002862        2.31590806770210
N           -6.22992287076100        4.06281932509590        3.09587900139586
C           -5.03758452258030        3.60572042014131        3.22499443956177
S           -4.71326965530912        2.12431916827796        2.38791340318667
H           -5.36527968086979        1.29867239441763       -2.45879495428218
H           -3.00535166456782       -0.19226622722817       -1.55686267181876
H           -3.98254734730768        0.50700620545225       -4.36315143775811
H           -2.61978814890358       -0.54764084124493       -3.96676484178485
H           -3.13395641529433       -2.47306822670754       -2.26090489680230
H           -4.65914233542742       -4.37092505528547       -1.90507075870733
H           -6.92682586455790       -4.33796719189853       -2.87937915393817
H           -7.65754546653582       -2.39732877501896       -4.21641737602281
H           -6.13054603355138       -0.50680024603669       -4.58097326616610
H           -1.48895938895012        1.32355695720068       -2.87195547256639
H           -1.41830893299797        3.18299959466844       -1.23122570202297
H           -3.00685827979146        2.70946811904043       -0.60640351672943
H           -2.11879898156910        0.53732598511488        0.13572297579182
H            0.61934736163874        1.32788295469876       -0.63769255384827
H            1.66401177968401       -0.07604201857802       -2.10180457992774
H            1.97320107581506       -1.75105778837894        0.29471448065227
H            4.17998042614695       -2.00869695803796        0.95265080824279
H            4.72446675796271       -1.23270556340775        2.44189094167040
H            3.04257167785435       -1.78491492011682        2.30847834077576
H            4.30191650529065        1.09744722274585        2.83798058057484
H            3.83526973627350        2.00229862503311        1.36358373311292
H            5.63837835711096        2.08886963537407       -0.65380033481599
H            9.69175373264124       -0.58807593298980        1.12881349068898
H           10.64557574701102        0.23764613603680        3.27370323443840
H            9.08764771338527        0.96595993650790        3.68645705347708
H           10.00913157438163        1.57077642466606        2.30451948257635
H            7.98801157920588       -1.34939636053468        3.54923183231350
H            9.56175519115756       -2.05283923309761        3.14655821069310
H            8.17322912930615       -2.31642752756352        2.08545653199203
H            0.83535344040290       -2.97773554006331       -1.64225077716547
H            0.50854793830539       -2.98467221832343       -4.11829278883108
H           -0.56538774527404       -1.84964826880006       -3.30318138993619
H            0.86222623543954       -1.25525226495568       -4.16264256108091
H            3.19219295337216       -1.83980317457728       -3.22665632799524
H            2.73952999079395       -3.54365704054833       -3.14455958948696
H            3.32738340457711       -2.71458665394018       -1.70237656455029
H           -1.98161147306176        2.53154759842790        1.63646203801996
H           -0.32073777484261        2.81366602862858        1.07873584723449
H           -2.44864242564535       -0.00913462426410        2.33346662624741
H           -1.64283849270149       -1.70576456786695        3.92117773594889
H            0.67662918611760       -1.61495319126770        4.76074574918959
H            2.18037619346869        0.18868035609510        4.00721970995992
H            1.38287805865987        1.86707788916198        2.39459937312119
H           -3.66389954844874        3.09145561830464       -2.91553403702933
H           -6.64307266026442        0.09127119282454        1.34365187169212
H           -7.97859070895691        1.18428524948742        0.84910408303918
H           -8.00718662699495        3.51863250480643        2.12809334541351
H           -4.27496840016975        4.09471574560675        3.79772284219500
