----- Optimization -----
      -----------------------------------------------------------      
     |                   =====================                   |     
     |                           x T B                           |     
     |                   =====================                   |     
     |                         S. Grimme                         |     
     |          Mulliken Center for Theoretical Chemistry        |     
     |                    University of Bonn                     |     
      -----------------------------------------------------------      

   * xtb version 6.7.1 (edcfbbe) compiled by 'conda@3ef47c1a292c' on 2024-11-25

   xtb is free software: you can redistribute it and/or modify it under
   the terms of the GNU Lesser General Public License as published by
   the Free Software Foundation, either version 3 of the License, or
   (at your option) any later version.
   
   xtb is distributed in the hope that it will be useful,
   but WITHOUT ANY WARRANTY; without even the implied warranty of
   MERCHANTABILITY or FITNESS FOR A PARTICULAR PURPOSE.  See the
   GNU Lesser General Public License for more details.
   
   Cite this work as:
   * C. Bannwarth, E. Caldeweyher, S. Ehlert, A. Hansen, P. Pracht,
     J. Seibert, S. Spicher, S. Grimme, WIREs Comput. Mol. Sci., 2020, 11,
     e01493. DOI: 10.1002/wcms.1493
   
   for GFN2-xTB:
   * C. Bannwarth, S. Ehlert and S. Grimme., J. Chem. Theory Comput., 2019,
     15, 1652-1671. DOI: 10.1021/acs.jctc.8b01176
   for GFN1-xTB:
   * S. Grimme, C. Bannwarth, P. Shushkov, J. Chem. Theory Comput., 2017,
     13, 1989-2009. DOI: 10.1021/acs.jctc.7b00118
   for GFN0-xTB:
   * P. Pracht, E. Caldeweyher, S. Ehlert, S. Grimme, ChemRxiv, 2019, preprint.
     DOI: 10.26434/chemrxiv.8326202.v1
   for GFN-FF:
   * S. Spicher and S. Grimme, Angew. Chem. Int. Ed., 2020, 59, 15665-15673.
     DOI: 10.1002/anie.202004239
   
   for ALPB and GBSA implicit solvation:
   * S. Ehlert, M. Stahn, S. Spicher, S. Grimme, J. Chem. Theory Comput.,
     2021, 17, 4250-4261. DOI: 10.1021/acs.jctc.1c00471
   
   for ddCOSMO and CPCM-X implicit solvation:
   * M. Stahn, S. Ehlert, S. Grimme, J. Phys. Chem. A,
     2023, XX, XXXX-XXXX. DOI: 10.1021/acs.jpca.3c04382
   
   for DFT-D4:
   * E. Caldeweyher, C. Bannwarth and S. Grimme, J. Chem. Phys., 2017,
     147, 034112. DOI: 10.1063/1.4993215
   * E. Caldeweyher, S. Ehlert, A. Hansen, H. Neugebauer, S. Spicher,
     C. Bannwarth and S. Grimme, J. Chem. Phys., 2019, 150, 154122.
     DOI: 10.1063/1.5090222
   * E. Caldeweyher, J.-M. Mewes, S. Ehlert and S. Grimme, Phys. Chem. Chem. Phys.
     2020, 22, 8499-8512. DOI: 10.1039/D0CP00502A
   
   for sTDA-xTB:
   * S. Grimme and C. Bannwarth, J. Chem. Phys., 2016, 145, 054103.
     DOI: 10.1063/1.4959605
   
   in the mass-spec context:
   * V. Asgeirsson, C. Bauer and S. Grimme, Chem. Sci., 2017, 8, 4879.
     DOI: 10.1039/c7sc00601b
   * J. Koopman and S. Grimme, ACS Omega 2019, 4, 12, 15120-15133.
     DOI: 10.1021/acsomega.9b02011
   
   for metadynamics refer to:
   * S. Grimme, J. Chem. Theory Comput., 2019, 155, 2847-2862
     DOI: 10.1021/acs.jctc.9b00143
   
   for SPH calculations refer to:
   * S. Spicher and S. Grimme, J. Chem. Theory Comput., 2021, 17, 1701-1714
     DOI: 10.1021/acs.jctc.0c01306
   
   for ONIOM refer to:
   * C. Plett, A. Katbashev, S. Ehlert, S. Grimme, M. Bursch,
     Phys. Chem. Chem. Phys., 2023, 25, 17860-17868. DOI: 10.1039/D3CP02178E
   
   for DIPRO refer to:
   * J. Kohn, N. Gildemeister, S. Grimme, D. Fazzi, A. Hansen,
     J. Chem. Phys., 2023, just accepted.
   
   for PTB refer to:
   * S. Grimme, M. Mueller, A. Hansen, J. Chem. Phys., 2023, 158, 124111.
     DOI: 10.1063/5.0137838
   
   with help from (in alphabetical order)
   P. Atkinson, C. Bannwarth, F. Bohle, G. Brandenburg, E. Caldeweyher
   M. Checinski, S. Dohm, S. Ehlert, S. Ehrlich, I. Gerasimov, C. Hölzer
   A. Katbashev, J. Kohn, J. Koopman, C. Lavigne, S. Lehtola, F. März, M. Müller,
   F. Musil, H. Neugebauer, J. Pisarek, C. Plett, P. Pracht, F. Pultar,
   J. Seibert, P. Shushkov, S. Spicher, M. Stahn, M. Steiner, T. Strunk,
   J. Stückrath, T. Rose, and J. Unsleber
   
 * started run on 2025/05/15 at 16:08:32.139     
   ID    Z sym.   atoms
    1    8 O      1, 31, 35, 43, 44
    2    6 C      2, 4-14, 16, 17, 19, 21-24, 26-29, 32-34, 36-42, 45-47, 49
    3    7 N      3, 15, 18, 20, 30, 48
    4   16 S      25, 50
    5    1 H      51-98

           -------------------------------------------------
          |                Calculation Setup                |
           -------------------------------------------------

          program call               : xtb /rds/general/user/hgt20/home/callum/QDESCP/Ritonavir_rdkit_conf_7/Ritonavir_rdkit_conf_7.xyz --opt normal --acc 1 --gfn 2 --chrg 0 --uhf 0 -P 1
          hostname                   : login-c
          coordinate file            : /rds/general/user/hgt20/home/callum/QDESCP/Ritonavir_rdkit_conf_7/Ritonavir_rdkit_conf_7.xyz
          omp threads                :                     1


           -------------------------------------------------
          |                 G F N 2 - x T B                 |
           -------------------------------------------------

        Reference                      10.1021/acs.jctc.8b01176
      * Hamiltonian:
        H0-scaling (s, p, d)           1.850000    2.230000    2.230000
        zeta-weighting                 0.500000
      * Dispersion:
        s8                             2.700000
        a1                             0.520000
        a2                             5.000000
        s9                             5.000000
      * Repulsion:
        kExp                           1.500000    1.000000
        rExp                           1.000000
      * Coulomb:
        alpha                          2.000000
        third order                    shell-resolved
        anisotropic                    true
        a3                             3.000000
        a5                             4.000000
        cn-shift                       1.200000
        cn-exp                         4.000000
        max-rad                        5.000000


          ...................................................
          :                      SETUP                      :
          :.................................................:
          :  # basis functions                 260          :
          :  # atomic orbitals                 258          :
          :  # shells                          150          :
          :  # electrons                       268          :
          :  max. iterations                   250          :
          :  Hamiltonian                  GFN2-xTB          :
          :  restarted?                      false          :
          :  GBSA solvation                  false          :
          :  PC potential                    false          :
          :  electronic temp.          300.0000000     K    :
          :  accuracy                    1.0000000          :
          :  -> integral cutoff          0.2500000E+02      :
          :  -> integral neglect         0.1000000E-07      :
          :  -> SCF convergence          0.1000000E-05 Eh   :
          :  -> wf. convergence          0.1000000E-03 e    :
          :  Broyden damping             0.4000000          :
          :  net charge                          0          :
          :  unpaired electrons                  0          :
          ...................................................

 iter      E             dE          RMSdq      gap      omega  full diag
   1   -149.8169121 -0.149817E+03  0.383E+00    2.82       0.0  T
   2   -150.0301432 -0.213231E+00  0.215E+00    3.10       1.0  T
   3   -150.0291299  0.101323E-02  0.981E-01    2.96       1.0  T
   4   -150.0323135 -0.318352E-02  0.431E-01    2.71       1.0  T
   5   -150.0449343 -0.126208E-01  0.127E-01    2.69       1.0  T
   6   -150.0454605 -0.526183E-03  0.591E-02    2.71       1.0  T
   7   -150.0455544 -0.939728E-04  0.261E-02    2.70       1.0  T
   8   -150.0455783 -0.238980E-04  0.105E-02    2.71       1.0  T
   9   -150.0455803 -0.191605E-05  0.421E-03    2.71       2.4  T
  10   -150.0455805 -0.287322E-06  0.162E-03    2.71       6.2  T
  11   -150.0455806 -0.835946E-07  0.780E-04    2.71      13.0  T
  12   -150.0455806 -0.212388E-07  0.375E-04    2.71      27.0  T

   *** convergence criteria satisfied after 12 iterations ***

         #    Occupation            Energy/Eh            Energy/eV
      -------------------------------------------------------------
         1        2.0000           -0.7533429             -20.4995
       ...           ...                  ...                  ...
       128        2.0000           -0.3965221             -10.7899
       129        2.0000           -0.3946687             -10.7395
       130        2.0000           -0.3945016             -10.7349
       131        2.0000           -0.3898200             -10.6075
       132        2.0000           -0.3895464             -10.6001
       133        2.0000           -0.3848929             -10.4735
       134        2.0000           -0.3741757             -10.1818 (HOMO)
       135                         -0.2744052              -7.4669 (LUMO)
       136                         -0.2585116              -7.0345
       137                         -0.2207728              -6.0075
       138                         -0.2204487              -5.9987
       139                         -0.2199227              -5.9844
       ...                                ...                  ...
       258                          0.6384668              17.3736
      -------------------------------------------------------------
                  HL-Gap            0.0997705 Eh            2.7149 eV
             Fermi-level           -0.3242905 Eh           -8.8244 eV

 SCC (total)                   0 d,  0 h,  0 min,  0.450 sec
 SCC setup                      ...        0 min,  0.002 sec (  0.338%)
 Dispersion                     ...        0 min,  0.017 sec (  3.863%)
 classical contributions        ...        0 min,  0.001 sec (  0.166%)
 integral evaluation            ...        0 min,  0.028 sec (  6.313%)
 iterations                     ...        0 min,  0.206 sec ( 45.819%)
 molecular gradient             ...        0 min,  0.195 sec ( 43.249%)
 printout                       ...        0 min,  0.001 sec (  0.249%)

         :::::::::::::::::::::::::::::::::::::::::::::::::::::
         ::                     SUMMARY                     ::
         :::::::::::::::::::::::::::::::::::::::::::::::::::::
         :: total energy            -148.167739124175 Eh    ::
         :: gradient norm              0.113854178456 Eh/a0 ::
         :: HOMO-LUMO gap              2.714892220313 eV    ::
         ::.................................................::
         :: SCC energy              -150.042660090464 Eh    ::
         :: -> isotropic ES            0.191636224778 Eh    ::
         :: -> anisotropic ES          0.013210228675 Eh    ::
         :: -> anisotropic XC          0.066235930248 Eh    ::
         :: -> dispersion             -0.114129385088 Eh    ::
         :: repulsion energy           1.874920966289 Eh    ::
         :: add. restraining           0.000000000000 Eh    ::
         :: total charge              -0.000000000000 e     ::
         :::::::::::::::::::::::::::::::::::::::::::::::::::::

      ----------------------------------------------------------- 
     |                   =====================                   |
     |                        A N C O P T                        |
     |                   =====================                   |
     |               Approximate Normal Coordinate               |
     |                Rational Function Optimizer                |
      ----------------------------------------------------------- 
      ----------------------------------------------------------- 
     |                   =====================                   |
     |                        A N C O P T                        |
     |                   =====================                   |
     |               Approximate Normal Coordinate               |
     |                Rational Function Optimizer                |
      ----------------------------------------------------------- 

          ...................................................
          :                      SETUP                      :
          :.................................................:
          :   optimization level            normal          :
          :   max. optcycles                   294          :
          :   ANC micro-cycles                  20          :
          :   degrees of freedom               288          :
          :.................................................:
          :   RF solver                   davidson          :
          :   write xtbopt.log                true          :
          :   linear?                        false          :
          :   energy convergence         0.5000000E-05 Eh   :
          :   grad. convergence          0.1000000E-02 Eh/α :
          :   maxmium RF displ.          1.0000000          :
          :   Hlow (freq-cutoff)         0.1000000E-01      :
          :   Hmax (freq-cutoff)         5.0000000          :
          :   S6 in model hess.         20.0000000          :
          ...................................................

generating ANC from exact Hessian ...
Using Lindh-Hessian (1995)
 Shifting diagonal of input Hessian by    9.9667834515376509E-003
 Lowest  eigenvalues of input Hessian
    0.000000    0.000000    0.000000    0.000000    0.000000    0.000000
    0.010000    0.010006    0.010043    0.010104    0.010155    0.010184
    0.010212    0.010362    0.010445    0.010529    0.010634    0.010670
 Highest eigenvalues
    1.945685    2.041959    2.075355    2.200056    2.361259    2.472044


........................................................................
.............................. CYCLE    1 ..............................
........................................................................

 iter      E             dE          RMSdq      gap      omega  full diag
   1   -150.0455806 -0.150046E+03  0.132E-04    2.71       0.0  T
   2   -150.0455806 -0.328782E-09  0.943E-05    2.71     107.1  T
   3   -150.0455806 -0.534243E-09  0.505E-05    2.71     200.0  T
     SCC iter.                  ...        0 min,  0.070 sec
     gradient                   ...        0 min,  0.161 sec
 * total energy  :  -148.1677391 Eh     change       -0.3233708E-08 Eh
   gradient norm :     0.1138601 Eh/α   predicted     0.0000000E+00 (-100.00%)
   displ. norm   :     0.3535516 α      lambda       -0.2177758E-01
   maximum displ.:     0.0926635 α      in ANC's #94, #70, #56, ...

........................................................................
.............................. CYCLE    2 ..............................
........................................................................

 iter      E             dE          RMSdq      gap      omega  full diag
   1   -150.1447187 -0.150145E+03  0.162E-01    2.75       0.0  T
   2   -150.1450128 -0.294151E-03  0.100E-01    2.73       1.0  T
   3   -150.1449874  0.254195E-04  0.589E-02    2.74       1.0  T
   4   -150.1450863 -0.989402E-04  0.262E-02    2.74       1.0  T
   5   -150.1451257 -0.393288E-04  0.514E-03    2.74       2.0  T
   6   -150.1451261 -0.455871E-06  0.270E-03    2.74       3.7  T
   7   -150.1451263 -0.222289E-06  0.102E-03    2.74       9.9  T
   8   -150.1451264 -0.272933E-07  0.410E-04    2.74      24.6  T
   9   -150.1451264 -0.258868E-08  0.191E-04    2.74      53.0  T
     SCC iter.                  ...        0 min,  0.137 sec
     gradient                   ...        0 min,  0.194 sec
 * total energy  :  -148.1825073 Eh     change       -0.1476815E-01 Eh
   gradient norm :     0.0457545 Eh/α   predicted    -0.1225894E-01 ( -16.99%)
   displ. norm   :     0.3584486 α      lambda       -0.6263551E-02
   maximum displ.:     0.1119552 α      in ANC's #30, #39, #26, ...

........................................................................
.............................. CYCLE    3 ..............................
........................................................................

 iter      E             dE          RMSdq      gap      omega  full diag
   1   -150.1918600 -0.150192E+03  0.101E-01    2.73       0.0  T
   2   -150.1920450 -0.185035E-03  0.628E-02    2.72       1.0  T
   3   -150.1920656 -0.205498E-04  0.360E-02    2.73       1.0  T
   4   -150.1920789 -0.133300E-04  0.197E-02    2.73       1.0  T
   5   -150.1921011 -0.222328E-04  0.327E-03    2.73       3.1  T
   6   -150.1921014 -0.290483E-06  0.173E-03    2.73       5.8  T
   7   -150.1921015 -0.981969E-07  0.586E-04    2.73      17.2  T
   8   -150.1921015 -0.687501E-08  0.237E-04    2.73      42.7  T
     SCC iter.                  ...        0 min,  0.131 sec
     gradient                   ...        0 min,  0.183 sec
 * total energy  :  -148.1863716 Eh     change       -0.3864330E-02 Eh
   gradient norm :     0.0167425 Eh/α   predicted    -0.3537989E-02 (  -8.44%)
   displ. norm   :     0.3014593 α      lambda       -0.1619109E-02
   maximum displ.:     0.1138162 α      in ANC's #30, #32, #12, ...

........................................................................
.............................. CYCLE    4 ..............................
........................................................................

 iter      E             dE          RMSdq      gap      omega  full diag
   1   -150.1982295 -0.150198E+03  0.515E-02    2.71       0.0  T
   2   -150.1982671 -0.375893E-04  0.297E-02    2.72       1.0  T
   3   -150.1982660  0.110793E-05  0.155E-02    2.72       1.0  T
   4   -150.1982686 -0.258969E-05  0.814E-03    2.72       1.2  T
   5   -150.1982733 -0.469445E-05  0.141E-03    2.72       7.2  T
   6   -150.1982733 -0.437157E-07  0.781E-04    2.72      12.9  T
   7   -150.1982733 -0.212931E-07  0.262E-04    2.72      38.6  T
     SCC iter.                  ...        0 min,  0.140 sec
     gradient                   ...        0 min,  0.199 sec
 * total energy  :  -148.1875945 Eh     change       -0.1222922E-02 Eh
   gradient norm :     0.0119005 Eh/α   predicted    -0.8831559E-03 ( -27.78%)
   displ. norm   :     0.4326975 α      lambda       -0.1494269E-02
   maximum displ.:     0.1514564 α      in ANC's #30, #12, #32, ...

........................................................................
.............................. CYCLE    5 ..............................
........................................................................

 iter      E             dE          RMSdq      gap      omega  full diag
   1   -150.1967024 -0.150197E+03  0.659E-02    2.69       0.0  T
   2   -150.1967399 -0.374597E-04  0.373E-02    2.71       1.0  T
   3   -150.1967380  0.190185E-05  0.144E-02    2.71       1.0  T
   4   -150.1967408 -0.277859E-05  0.614E-03    2.72       1.6  T
   5   -150.1967436 -0.284160E-05  0.165E-03    2.72       6.1  T
   6   -150.1967437 -0.393284E-07  0.925E-04    2.71      10.9  T
   7   -150.1967437 -0.299793E-07  0.349E-04    2.71      29.0  T
     SCC iter.                  ...        0 min,  0.103 sec
     gradient                   ...        0 min,  0.203 sec
 * total energy  :  -148.1886858 Eh     change       -0.1091257E-02 Eh
   gradient norm :     0.0114184 Eh/α   predicted    -0.8870258E-03 ( -18.72%)
   displ. norm   :     0.4445319 α      lambda       -0.1028899E-02
   maximum displ.:     0.1753407 α      in ANC's #12, #17, #30, ...

........................................................................
.............................. CYCLE    6 ..............................
........................................................................

 iter      E             dE          RMSdq      gap      omega  full diag
   1   -150.1933740 -0.150193E+03  0.639E-02    2.70       0.0  T
   2   -150.1933969 -0.228974E-04  0.367E-02    2.71       1.0  T
   3   -150.1933959  0.100882E-05  0.103E-02    2.71       1.0  T
   4   -150.1933981 -0.217789E-05  0.372E-03    2.72       2.7  T
   5   -150.1933990 -0.929344E-06  0.151E-03    2.72       6.7  T
   6   -150.1933991 -0.460365E-07  0.770E-04    2.72      13.1  T
   7   -150.1933991 -0.209548E-07  0.278E-04    2.72      36.3  T
     SCC iter.                  ...        0 min,  0.094 sec
     gradient                   ...        0 min,  0.171 sec
 * total energy  :  -148.1894802 Eh     change       -0.7943962E-03 Eh
   gradient norm :     0.0133048 Eh/α   predicted    -0.6161128E-03 ( -22.44%)
   displ. norm   :     0.4931626 α      lambda       -0.9827823E-03
   maximum displ.:     0.2130841 α      in ANC's #12, #17, #11, ...

........................................................................
.............................. CYCLE    7 ..............................
........................................................................

 iter      E             dE          RMSdq      gap      omega  full diag
   1   -150.1916247 -0.150192E+03  0.701E-02    2.71       0.0  T
   2   -150.1916440 -0.192849E-04  0.409E-02    2.72       1.0  T
   3   -150.1916402  0.384351E-05  0.109E-02    2.72       1.0  T
   4   -150.1916453 -0.509574E-05  0.427E-03    2.73       2.4  T
   5   -150.1916466 -0.131050E-05  0.159E-03    2.73       6.3  T
   6   -150.1916466 -0.424988E-07  0.807E-04    2.73      12.5  T
   7   -150.1916466 -0.253450E-07  0.300E-04    2.73      33.7  T
     SCC iter.                  ...        0 min,  0.085 sec
     gradient                   ...        0 min,  0.168 sec
 * total energy  :  -148.1902576 Eh     change       -0.7774117E-03 Eh
   gradient norm :     0.0131227 Eh/α   predicted    -0.6109032E-03 ( -21.42%)
   displ. norm   :     0.5085514 α      lambda       -0.9429571E-03
   maximum displ.:     0.2322379 α      in ANC's #12, #17, #11, ...

........................................................................
.............................. CYCLE    8 ..............................
........................................................................

 iter      E             dE          RMSdq      gap      omega  full diag
   1   -150.1930707 -0.150193E+03  0.757E-02    2.73       0.0  T
   2   -150.1930858 -0.151564E-04  0.443E-02    2.74       1.0  T
   3   -150.1930806  0.521890E-05  0.109E-02    2.73       1.0  T
   4   -150.1930874 -0.677428E-05  0.389E-03    2.74       2.6  T
   5   -150.1930884 -0.105322E-05  0.153E-03    2.74       6.6  T
   6   -150.1930884 -0.267948E-07  0.790E-04    2.74      12.8  T
   7   -150.1930885 -0.298733E-07  0.299E-04    2.74      33.8  T
     SCC iter.                  ...        0 min,  0.104 sec
     gradient                   ...        0 min,  0.166 sec
 * total energy  :  -148.1909965 Eh     change       -0.7388839E-03 Eh
   gradient norm :     0.0105899 Eh/α   predicted    -0.5934150E-03 ( -19.69%)
   displ. norm   :     0.5017999 α      lambda       -0.7735909E-03
   maximum displ.:     0.2350270 α      in ANC's #12, #11, #17, ...

........................................................................
.............................. CYCLE    9 ..............................
........................................................................

 iter      E             dE          RMSdq      gap      omega  full diag
   1   -150.1964023 -0.150196E+03  0.795E-02    2.73       0.0  T
   2   -150.1964122 -0.987880E-05  0.464E-02    2.74       1.0  T
   3   -150.1964093  0.285616E-05  0.836E-03    2.74       1.2  T
   4   -150.1964135 -0.419156E-05  0.275E-03    2.74       3.7  T
   5   -150.1964140 -0.489862E-06  0.132E-03    2.74       7.6  T
   6   -150.1964140 -0.312785E-07  0.519E-04    2.74      19.5  T
   7   -150.1964140 -0.100430E-07  0.257E-04    2.74      39.3  T
     SCC iter.                  ...        0 min,  0.103 sec
     gradient                   ...        0 min,  0.160 sec
 * total energy  :  -148.1915883 Eh     change       -0.5918489E-03 Eh
   gradient norm :     0.0076607 Eh/α   predicted    -0.4842245E-03 ( -18.18%)
   displ. norm   :     0.4641194 α      lambda       -0.5474645E-03
   maximum displ.:     0.2198639 α      in ANC's #12, #11, #16, ...

........................................................................
.............................. CYCLE   10 ..............................
........................................................................

 iter      E             dE          RMSdq      gap      omega  full diag
   1   -150.2000528 -0.150200E+03  0.756E-02    2.73       0.0  T
   2   -150.2000588 -0.599711E-05  0.441E-02    2.74       1.0  T
   3   -150.2000562  0.262593E-05  0.767E-03    2.73       1.3  T
   4   -150.2000594 -0.321197E-05  0.296E-03    2.73       3.4  T
   5   -150.2000600 -0.610969E-06  0.130E-03    2.73       7.8  T
   6   -150.2000600 -0.318468E-07  0.556E-04    2.73      18.2  T
   7   -150.2000600 -0.197331E-07  0.212E-04    2.73      47.7  T
     SCC iter.                  ...        0 min,  0.082 sec
     gradient                   ...        0 min,  0.189 sec
 * total energy  :  -148.1919965 Eh     change       -0.4081909E-03 Eh
   gradient norm :     0.0064433 Eh/α   predicted    -0.3326969E-03 ( -18.49%)
   displ. norm   :     0.4326213 α      lambda       -0.3800336E-03
   maximum displ.:     0.2039385 α      in ANC's #12, #11, #6, ...

........................................................................
.............................. CYCLE   11 ..............................
........................................................................

 iter      E             dE          RMSdq      gap      omega  full diag
   1   -150.2014559 -0.150201E+03  0.681E-02    2.72       0.0  T
   2   -150.2014596 -0.362722E-05  0.398E-02    2.73       1.0  T
   3   -150.2014553  0.431798E-05  0.843E-03    2.72       1.2  T
   4   -150.2014602 -0.496584E-05  0.270E-03    2.72       3.7  T
   5   -150.2014607 -0.447835E-06  0.112E-03    2.73       9.1  T
   6   -150.2014607 -0.172807E-07  0.436E-04    2.72      23.2  T
   7   -150.2014607 -0.124781E-07  0.175E-04    2.72      57.7  T
     SCC iter.                  ...        0 min,  0.095 sec
     gradient                   ...        0 min,  0.141 sec
 * total energy  :  -148.1922689 Eh     change       -0.2724248E-03 Eh
   gradient norm :     0.0059546 Eh/α   predicted    -0.2255840E-03 ( -17.19%)
   displ. norm   :     0.3789172 α      lambda       -0.3774654E-03
   maximum displ.:     0.1693213 α      in ANC's #12, #11, #6, ...

........................................................................
.............................. CYCLE   12 ..............................
........................................................................

 iter      E             dE          RMSdq      gap      omega  full diag
   1   -150.2082134 -0.150208E+03  0.637E-02    2.72       0.0  T
   2   -150.2082180 -0.459552E-05  0.371E-02    2.71       1.0  T
   3   -150.2082149  0.313078E-05  0.776E-03    2.71       1.3  T
   4   -150.2082184 -0.353989E-05  0.286E-03    2.71       3.5  T
   5   -150.2082190 -0.555567E-06  0.113E-03    2.71       8.9  T
   6   -150.2082190 -0.289050E-07  0.390E-04    2.71      25.9  T
   7   -150.2082190 -0.689735E-08  0.162E-04    2.71      62.4  T
     SCC iter.                  ...        0 min,  0.092 sec
     gradient                   ...        0 min,  0.137 sec
 * total energy  :  -148.1924272 Eh     change       -0.1582855E-03 Eh
   gradient norm :     0.0139401 Eh/α   predicted    -0.2158321E-03 (  36.36%)
   displ. norm   :     0.3382278 α      lambda       -0.3354249E-03
   maximum displ.:     0.1481533 α      in ANC's #12, #11, #40, ...

........................................................................
.............................. CYCLE   13 ..............................
........................................................................

 iter      E             dE          RMSdq      gap      omega  full diag
   1   -150.2033230 -0.150203E+03  0.486E-02    2.71       0.0  T
   2   -150.2033265 -0.353593E-05  0.282E-02    2.71       1.0  T
   3   -150.2033249  0.164986E-05  0.573E-03    2.71       1.8  T
   4   -150.2033269 -0.196900E-05  0.249E-03    2.71       4.1  T
   5   -150.2033273 -0.397689E-06  0.961E-04    2.71      10.5  T
   6   -150.2033273 -0.449495E-08  0.434E-04    2.71      23.3  T
     SCC iter.                  ...        0 min,  0.072 sec
     gradient                   ...        0 min,  0.141 sec
 * total energy  :  -148.1925992 Eh     change       -0.1720165E-03 Eh
   gradient norm :     0.0092497 Eh/α   predicted    -0.1869002E-03 (   8.65%)
   displ. norm   :     0.1578002 α      lambda       -0.3119413E-03
   maximum displ.:     0.0606020 α      in ANC's #17, #11, #6, ...

........................................................................
.............................. CYCLE   14 ..............................
........................................................................

 iter      E             dE          RMSdq      gap      omega  full diag
   1   -150.2040229 -0.150204E+03  0.282E-02    2.71       0.0  T
   2   -150.2040265 -0.360847E-05  0.159E-02    2.71       1.0  T
   3   -150.2040266 -0.524125E-07  0.447E-03    2.71       2.3  T
   4   -150.2040268 -0.227136E-06  0.138E-03    2.71       7.3  T
   5   -150.2040269 -0.867513E-07  0.728E-04    2.71      13.9  T
   6   -150.2040269 -0.132672E-07  0.294E-04    2.71      34.4  T
     SCC iter.                  ...        0 min,  0.073 sec
     gradient                   ...        0 min,  0.144 sec
 * total energy  :  -148.1927129 Eh     change       -0.1136391E-03 Eh
   gradient norm :     0.0086940 Eh/α   predicted    -0.1598552E-03 (  40.67%)
   displ. norm   :     0.1676244 α      lambda       -0.2368729E-03
   maximum displ.:     0.0644407 α      in ANC's #6, #11, #17, ...

........................................................................
.............................. CYCLE   15 ..............................
........................................................................

 iter      E             dE          RMSdq      gap      omega  full diag
   1   -150.2037102 -0.150204E+03  0.233E-02    2.72       0.0  T
   2   -150.2037112 -0.100425E-05  0.135E-02    2.72       1.0  T
   3   -150.2037099  0.122104E-05  0.455E-03    2.72       2.2  T
   4   -150.2037114 -0.143984E-05  0.135E-03    2.71       7.5  T
   5   -150.2037115 -0.103876E-06  0.519E-04    2.71      19.4  T
   6   -150.2037115 -0.291931E-08  0.237E-04    2.71      42.6  T
     SCC iter.                  ...        0 min,  0.073 sec
     gradient                   ...        0 min,  0.137 sec
 * total energy  :  -148.1928952 Eh     change       -0.1822995E-03 Eh
   gradient norm :     0.0039254 Eh/α   predicted    -0.1217852E-03 ( -33.20%)
   displ. norm   :     0.3231113 α      lambda       -0.2488976E-03
   maximum displ.:     0.1258928 α      in ANC's #6, #11, #17, ...

........................................................................
.............................. CYCLE   16 ..............................
........................................................................

 iter      E             dE          RMSdq      gap      omega  full diag
   1   -150.2027735 -0.150203E+03  0.413E-02    2.72       0.0  T
   2   -150.2027762 -0.267853E-05  0.240E-02    2.72       1.0  T
   3   -150.2027729  0.324891E-05  0.716E-03    2.72       1.4  T
   4   -150.2027768 -0.383832E-05  0.210E-03    2.72       4.8  T
   5   -150.2027770 -0.250772E-06  0.854E-04    2.72      11.8  T
   6   -150.2027770 -0.120861E-07  0.415E-04    2.72      24.3  T
     SCC iter.                  ...        0 min,  0.083 sec
     gradient                   ...        0 min,  0.152 sec
 * total energy  :  -148.1930642 Eh     change       -0.1689907E-03 Eh
   gradient norm :     0.0051313 Eh/α   predicted    -0.1374420E-03 ( -18.67%)
   displ. norm   :     0.2624372 α      lambda       -0.1360963E-03
   maximum displ.:     0.1066601 α      in ANC's #6, #11, #17, ...

........................................................................
.............................. CYCLE   17 ..............................
........................................................................

 iter      E             dE          RMSdq      gap      omega  full diag
   1   -150.2022909 -0.150202E+03  0.304E-02    2.73       0.0  T
   2   -150.2022925 -0.158214E-05  0.177E-02    2.73       1.0  T
   3   -150.2022903  0.219090E-05  0.579E-03    2.73       1.7  T
   4   -150.2022929 -0.258189E-05  0.159E-03    2.72       6.4  T
   5   -150.2022930 -0.147236E-06  0.623E-04    2.72      16.2  T
   6   -150.2022930 -0.586317E-08  0.293E-04    2.72      34.4  T
     SCC iter.                  ...        0 min,  0.072 sec
     gradient                   ...        0 min,  0.151 sec
 * total energy  :  -148.1931692 Eh     change       -0.1050204E-03 Eh
   gradient norm :     0.0059857 Eh/α   predicted    -0.7273713E-04 ( -30.74%)
   displ. norm   :     0.3497412 α      lambda       -0.1776043E-03
   maximum displ.:     0.1503098 α      in ANC's #6, #11, #5, ...

........................................................................
.............................. CYCLE   18 ..............................
........................................................................

 iter      E             dE          RMSdq      gap      omega  full diag
   1   -150.2027759 -0.150203E+03  0.379E-02    2.73       0.0  T
   2   -150.2027788 -0.288207E-05  0.221E-02    2.73       1.0  T
   3   -150.2027760  0.281202E-05  0.652E-03    2.73       1.5  T
   4   -150.2027793 -0.329379E-05  0.203E-03    2.73       5.0  T
   5   -150.2027796 -0.259768E-06  0.730E-04    2.73      13.8  T
   6   -150.2027796 -0.996087E-08  0.376E-04    2.73      26.8  T
     SCC iter.                  ...        0 min,  0.074 sec
     gradient                   ...        0 min,  0.136 sec
 * total energy  :  -148.1933044 Eh     change       -0.1352264E-03 Eh
   gradient norm :     0.0054896 Eh/α   predicted    -0.9966789E-04 ( -26.30%)
   displ. norm   :     0.4099190 α      lambda       -0.2003427E-03
   maximum displ.:     0.1849110 α      in ANC's #6, #11, #5, ...

........................................................................
.............................. CYCLE   19 ..............................
........................................................................

 iter      E             dE          RMSdq      gap      omega  full diag
   1   -150.2016627 -0.150202E+03  0.435E-02    2.73       0.0  T
   2   -150.2016663 -0.360247E-05  0.254E-02    2.73       1.0  T
   3   -150.2016638  0.245822E-05  0.640E-03    2.72       1.6  T
   4   -150.2016667 -0.285397E-05  0.230E-03    2.72       4.4  T
   5   -150.2016671 -0.370580E-06  0.791E-04    2.72      12.8  T
   6   -150.2016671 -0.845282E-08  0.407E-04    2.72      24.8  T
     SCC iter.                  ...        0 min,  0.074 sec
     gradient                   ...        0 min,  0.145 sec
 * total energy  :  -148.1934418 Eh     change       -0.1374035E-03 Eh
   gradient norm :     0.0055585 Eh/α   predicted    -0.1170047E-03 ( -14.85%)
   displ. norm   :     0.3882964 α      lambda       -0.1877460E-03
   maximum displ.:     0.1810981 α      in ANC's #6, #11, #5, ...

........................................................................
.............................. CYCLE   20 ..............................
........................................................................

 iter      E             dE          RMSdq      gap      omega  full diag
   1   -150.2027578 -0.150203E+03  0.423E-02    2.72       0.0  T
   2   -150.2027634 -0.568152E-05  0.247E-02    2.72       1.0  T
   3   -150.2027615  0.197146E-05  0.668E-03    2.72       1.5  T
   4   -150.2027639 -0.239526E-05  0.250E-03    2.72       4.0  T
   5   -150.2027643 -0.455189E-06  0.883E-04    2.72      11.4  T
   6   -150.2027643 -0.159900E-07  0.425E-04    2.72      23.8  T
     SCC iter.                  ...        0 min,  0.074 sec
     gradient                   ...        0 min,  0.139 sec
 * total energy  :  -148.1935558 Eh     change       -0.1140060E-03 Eh
   gradient norm :     0.0062966 Eh/α   predicted    -0.1080278E-03 (  -5.24%)
   displ. norm   :     0.2755337 α      lambda       -0.1428501E-03
   maximum displ.:     0.1214197 α      in ANC's #6, #11, #5, ...
 * RMSD in coord.:     0.5621005 α      energy gain  -0.2581671E-01 Eh

generating ANC from exact Hessian ...
Using Lindh-Hessian (1995)
 Shifting diagonal of input Hessian by    9.9741754048097101E-003
 Lowest  eigenvalues of input Hessian
    0.000000    0.000000    0.000000    0.000000    0.000000    0.000000
    0.010000    0.010014    0.010055    0.010116    0.010186    0.010224
    0.010262    0.010416    0.010548    0.010580    0.010667    0.010752
 Highest eigenvalues
    2.065704    2.135793    2.143415    2.341276    2.433992    2.545329


........................................................................
.............................. CYCLE   21 ..............................
........................................................................

 iter      E             dE          RMSdq      gap      omega  full diag
   1   -150.2035839 -0.150204E+03  0.324E-02    2.72       0.0  T
   2   -150.2035864 -0.241717E-05  0.191E-02    2.72       1.0  T
   3   -150.2035851  0.127294E-05  0.498E-03    2.72       2.0  T
   4   -150.2035866 -0.153017E-05  0.165E-03    2.72       6.1  T
   5   -150.2035868 -0.207538E-06  0.607E-04    2.72      16.6  T
   6   -150.2035868 -0.800770E-08  0.293E-04    2.72      34.5  T
     SCC iter.                  ...        0 min,  0.072 sec
     gradient                   ...        0 min,  0.136 sec
 * total energy  :  -148.1936615 Eh     change       -0.1056576E-03 Eh
   gradient norm :     0.0041466 Eh/α   predicted     0.0000000E+00 (-100.00%)
   displ. norm   :     0.0503173 α      lambda       -0.5926842E-04
   maximum displ.:     0.0237526 α      in ANC's #21, #12, #7, ...

........................................................................
.............................. CYCLE   22 ..............................
........................................................................

 iter      E             dE          RMSdq      gap      omega  full diag
   1   -150.2044264 -0.150204E+03  0.789E-03    2.72       0.0  T
   2   -150.2044266 -0.226300E-06  0.454E-03    2.72       2.2  T
   3   -150.2044266  0.348784E-07  0.132E-03    2.72       7.7  T
   4   -150.2044267 -0.513350E-07  0.475E-04    2.72      21.3  T
   5   -150.2044267 -0.163177E-07  0.188E-04    2.72      53.7  T
     SCC iter.                  ...        0 min,  0.060 sec
     gradient                   ...        0 min,  0.139 sec
 * total energy  :  -148.1937107 Eh     change       -0.4916668E-04 Eh
   gradient norm :     0.0019775 Eh/α   predicted    -0.3055227E-04 ( -37.86%)
   displ. norm   :     0.2073099 α      lambda       -0.9739760E-04
   maximum displ.:     0.0988349 α      in ANC's #21, #7, #12, ...

........................................................................
.............................. CYCLE   23 ..............................
........................................................................

 iter      E             dE          RMSdq      gap      omega  full diag
   1   -150.2051829 -0.150205E+03  0.250E-02    2.73       0.0  T
   2   -150.2051847 -0.172081E-05  0.144E-02    2.73       1.0  T
   3   -150.2051843  0.359366E-06  0.373E-03    2.73       2.7  T
   4   -150.2051848 -0.531823E-06  0.129E-03    2.73       7.8  T
   5   -150.2051850 -0.120053E-06  0.506E-04    2.73      20.0  T
   6   -150.2051850 -0.286241E-08  0.254E-04    2.73      39.8  T
     SCC iter.                  ...        0 min,  0.071 sec
     gradient                   ...        0 min,  0.139 sec
 * total energy  :  -148.1937780 Eh     change       -0.6739252E-04 Eh
   gradient norm :     0.0040553 Eh/α   predicted    -0.4962975E-04 ( -26.36%)
   displ. norm   :     0.0499089 α      lambda       -0.2968569E-04
   maximum displ.:     0.0188063 α      in ANC's #21, #7, #11, ...

........................................................................
.............................. CYCLE   24 ..............................
........................................................................

 iter      E             dE          RMSdq      gap      omega  full diag
   1   -150.2048211 -0.150205E+03  0.526E-03    2.73       0.0  T
   2   -150.2048212 -0.604441E-07  0.312E-03    2.73       3.2  T
   3   -150.2048211  0.758492E-07  0.109E-03    2.73       9.3  T
   4   -150.2048212 -0.851835E-07  0.321E-04    2.73      31.5  T
   5   -150.2048212 -0.704671E-08  0.108E-04    2.73      93.8  T
     SCC iter.                  ...        0 min,  0.059 sec
     gradient                   ...        0 min,  0.137 sec
 * total energy  :  -148.1938048 Eh     change       -0.2675947E-04 Eh
   gradient norm :     0.0029368 Eh/α   predicted    -0.1488039E-04 ( -44.39%)
   displ. norm   :     0.2712223 α      lambda       -0.1251164E-03
   maximum displ.:     0.0950957 α      in ANC's #21, #7, #11, ...

........................................................................
.............................. CYCLE   25 ..............................
........................................................................

 iter      E             dE          RMSdq      gap      omega  full diag
   1   -150.2034324 -0.150203E+03  0.259E-02    2.72       0.0  T
   2   -150.2034339 -0.144322E-05  0.152E-02    2.72       1.0  T
   3   -150.2034328  0.108862E-05  0.444E-03    2.72       2.3  T
   4   -150.2034340 -0.121773E-05  0.166E-03    2.72       6.1  T
   5   -150.2034342 -0.186549E-06  0.564E-04    2.72      17.9  T
   6   -150.2034342 -0.370687E-08  0.235E-04    2.72      42.9  T
     SCC iter.                  ...        0 min,  0.071 sec
     gradient                   ...        0 min,  0.148 sec
 * total energy  :  -148.1938852 Eh     change       -0.8039374E-04 Eh
   gradient norm :     0.0026819 Eh/α   predicted    -0.6725035E-04 ( -16.35%)
   displ. norm   :     0.1934040 α      lambda       -0.4525971E-04
   maximum displ.:     0.0660196 α      in ANC's #7, #21, #11, ...

........................................................................
.............................. CYCLE   26 ..............................
........................................................................

 iter      E             dE          RMSdq      gap      omega  full diag
   1   -150.2030131 -0.150203E+03  0.175E-02    2.72       0.0  T
   2   -150.2030136 -0.478700E-06  0.102E-02    2.72       1.0  T
   3   -150.2030134  0.199715E-06  0.215E-03    2.72       4.7  T
   4   -150.2030137 -0.247953E-06  0.952E-04    2.72      10.6  T
   5   -150.2030137 -0.555269E-07  0.357E-04    2.72      28.3  T
     SCC iter.                  ...        0 min,  0.059 sec
     gradient                   ...        0 min,  0.134 sec
 * total energy  :  -148.1939219 Eh     change       -0.3673570E-04 Eh
   gradient norm :     0.0034245 Eh/α   predicted    -0.2347901E-04 ( -36.09%)
   displ. norm   :     0.3245067 α      lambda       -0.7870823E-04
   maximum displ.:     0.1135064 α      in ANC's #7, #11, #1, ...

........................................................................
.............................. CYCLE   27 ..............................
........................................................................

 iter      E             dE          RMSdq      gap      omega  full diag
   1   -150.2028116 -0.150203E+03  0.290E-02    2.72       0.0  T
   2   -150.2028128 -0.117264E-05  0.169E-02    2.72       1.0  T
   3   -150.2028124  0.380144E-06  0.319E-03    2.72       3.2  T
   4   -150.2028130 -0.541903E-06  0.141E-03    2.72       7.2  T
   5   -150.2028131 -0.103911E-06  0.608E-04    2.72      16.6  T
   6   -150.2028131 -0.659605E-08  0.243E-04    2.72      41.6  T
     SCC iter.                  ...        0 min,  0.070 sec
     gradient                   ...        0 min,  0.136 sec
 * total energy  :  -148.1939840 Eh     change       -0.6210180E-04 Eh
   gradient norm :     0.0031452 Eh/α   predicted    -0.4350040E-04 ( -29.95%)
   displ. norm   :     0.3556927 α      lambda       -0.8399371E-04
   maximum displ.:     0.1282607 α      in ANC's #7, #1, #11, ...

........................................................................
.............................. CYCLE   28 ..............................
........................................................................

 iter      E             dE          RMSdq      gap      omega  full diag
   1   -150.2029840 -0.150203E+03  0.322E-02    2.72       0.0  T
   2   -150.2029853 -0.131361E-05  0.188E-02    2.72       1.0  T
   3   -150.2029846  0.728285E-06  0.390E-03    2.72       2.6  T
   4   -150.2029855 -0.950699E-06  0.156E-03    2.72       6.5  T
   5   -150.2029857 -0.122004E-06  0.673E-04    2.72      15.0  T
   6   -150.2029857 -0.713914E-08  0.277E-04    2.72      36.4  T
     SCC iter.                  ...        0 min,  0.070 sec
     gradient                   ...        0 min,  0.136 sec
 * total energy  :  -148.1940474 Eh     change       -0.6338103E-04 Eh
   gradient norm :     0.0022138 Eh/α   predicted    -0.4731131E-04 ( -25.35%)
   displ. norm   :     0.3048578 α      lambda       -0.6571659E-04
   maximum displ.:     0.1131021 α      in ANC's #7, #1, #11, ...

........................................................................
.............................. CYCLE   29 ..............................
........................................................................

 iter      E             dE          RMSdq      gap      omega  full diag
   1   -150.2035508 -0.150204E+03  0.277E-02    2.72       0.0  T
   2   -150.2035516 -0.878687E-06  0.162E-02    2.72       1.0  T
   3   -150.2035509  0.780431E-06  0.369E-03    2.72       2.7  T
   4   -150.2035518 -0.978059E-06  0.125E-03    2.72       8.1  T
   5   -150.2035519 -0.665261E-07  0.586E-04    2.72      17.2  T
   6   -150.2035519 -0.705521E-08  0.244E-04    2.72      41.3  T
     SCC iter.                  ...        0 min,  0.071 sec
     gradient                   ...        0 min,  0.136 sec
 * total energy  :  -148.1940977 Eh     change       -0.5027414E-04 Eh
   gradient norm :     0.0021298 Eh/α   predicted    -0.3596387E-04 ( -28.46%)
   displ. norm   :     0.3019695 α      lambda       -0.6041458E-04
   maximum displ.:     0.1138344 α      in ANC's #7, #11, #1, ...

........................................................................
.............................. CYCLE   30 ..............................
........................................................................

 iter      E             dE          RMSdq      gap      omega  full diag
   1   -150.2038939 -0.150204E+03  0.274E-02    2.73       0.0  T
   2   -150.2038946 -0.777377E-06  0.160E-02    2.73       1.0  T
   3   -150.2038937  0.938819E-06  0.387E-03    2.73       2.6  T
   4   -150.2038948 -0.114724E-05  0.118E-03    2.73       8.6  T
   5   -150.2038949 -0.509707E-07  0.563E-04    2.73      17.9  T
   6   -150.2038949 -0.784308E-08  0.230E-04    2.73      43.8  T
     SCC iter.                  ...        0 min,  0.071 sec
     gradient                   ...        0 min,  0.143 sec
 * total energy  :  -148.1941460 Eh     change       -0.4825746E-04 Eh
   gradient norm :     0.0025195 Eh/α   predicted    -0.3296321E-04 ( -31.69%)
   displ. norm   :     0.3488024 α      lambda       -0.7169587E-04
   maximum displ.:     0.1326325 α      in ANC's #7, #11, #1, ...

........................................................................
.............................. CYCLE   31 ..............................
........................................................................

 iter      E             dE          RMSdq      gap      omega  full diag
   1   -150.2039164 -0.150204E+03  0.316E-02    2.73       0.0  T
   2   -150.2039174 -0.981418E-06  0.184E-02    2.73       1.0  T
   3   -150.2039160  0.138746E-05  0.466E-03    2.73       2.2  T
   4   -150.2039177 -0.166031E-05  0.140E-03    2.73       7.2  T
   5   -150.2039178 -0.731938E-07  0.630E-04    2.73      16.0  T
   6   -150.2039178 -0.991986E-08  0.254E-04    2.73      39.8  T
     SCC iter.                  ...        0 min,  0.080 sec
     gradient                   ...        0 min,  0.163 sec
 * total energy  :  -148.1942031 Eh     change       -0.5716767E-04 Eh
   gradient norm :     0.0025489 Eh/α   predicted    -0.4020984E-04 ( -29.66%)
   displ. norm   :     0.3695324 α      lambda       -0.7604022E-04
   maximum displ.:     0.1415146 α      in ANC's #7, #11, #1, ...

........................................................................
.............................. CYCLE   32 ..............................
........................................................................

 iter      E             dE          RMSdq      gap      omega  full diag
   1   -150.2036417 -0.150204E+03  0.340E-02    2.74       0.0  T
   2   -150.2036429 -0.113357E-05  0.198E-02    2.74       1.0  T
   3   -150.2036409  0.193192E-05  0.545E-03    2.74       1.9  T
   4   -150.2036432 -0.226623E-05  0.157E-03    2.74       6.4  T
   5   -150.2036433 -0.988315E-07  0.650E-04    2.74      15.6  T
   6   -150.2036433 -0.801339E-08  0.264E-04    2.74      38.2  T
     SCC iter.                  ...        0 min,  0.080 sec
     gradient                   ...        0 min,  0.166 sec
 * total energy  :  -148.1942619 Eh     change       -0.5876439E-04 Eh
   gradient norm :     0.0022612 Eh/α   predicted    -0.4321639E-04 ( -26.46%)
   displ. norm   :     0.3319399 α      lambda       -0.6574360E-04
   maximum displ.:     0.1282046 α      in ANC's #7, #11, #1, ...

........................................................................
.............................. CYCLE   33 ..............................
........................................................................

 iter      E             dE          RMSdq      gap      omega  full diag
   1   -150.2034523 -0.150203E+03  0.317E-02    2.74       0.0  T
   2   -150.2034533 -0.966333E-06  0.185E-02    2.74       1.0  T
   3   -150.2034513  0.195864E-05  0.545E-03    2.74       1.9  T
   4   -150.2034536 -0.227796E-05  0.143E-03    2.74       7.0  T
   5   -150.2034537 -0.820402E-07  0.580E-04    2.74      17.4  T
   6   -150.2034537 -0.546194E-08  0.226E-04    2.74      44.6  T
     SCC iter.                  ...        0 min,  0.092 sec
     gradient                   ...        0 min,  0.151 sec
 * total energy  :  -148.1943119 Eh     change       -0.5001799E-04 Eh
   gradient norm :     0.0020962 Eh/α   predicted    -0.3649439E-04 ( -27.04%)
   displ. norm   :     0.2899705 α      lambda       -0.5498614E-04
   maximum displ.:     0.1131823 α      in ANC's #7, #11, #1, ...

........................................................................
.............................. CYCLE   34 ..............................
........................................................................

 iter      E             dE          RMSdq      gap      omega  full diag
   1   -150.2033481 -0.150203E+03  0.293E-02    2.74       0.0  T
   2   -150.2033489 -0.796595E-06  0.171E-02    2.74       1.0  T
   3   -150.2033471  0.183685E-05  0.525E-03    2.74       1.9  T
   4   -150.2033492 -0.212287E-05  0.124E-03    2.74       8.1  T
   5   -150.2033492 -0.615699E-07  0.509E-04    2.74      19.9  T
   6   -150.2033493 -0.428207E-08  0.193E-04    2.74      52.3  T
     SCC iter.                  ...        0 min,  0.086 sec
     gradient                   ...        0 min,  0.150 sec
 * total energy  :  -148.1943542 Eh     change       -0.4232845E-04 Eh
   gradient norm :     0.0020895 Eh/α   predicted    -0.2981708E-04 ( -29.56%)
   displ. norm   :     0.2735420 α      lambda       -0.5073080E-04
   maximum displ.:     0.1069859 α      in ANC's #7, #11, #1, ...

........................................................................
.............................. CYCLE   35 ..............................
........................................................................

 iter      E             dE          RMSdq      gap      omega  full diag
   1   -150.2034675 -0.150203E+03  0.287E-02    2.73       0.0  T
   2   -150.2034683 -0.796356E-06  0.167E-02    2.73       1.0  T
   3   -150.2034666  0.166823E-05  0.506E-03    2.73       2.0  T
   4   -150.2034685 -0.191336E-05  0.123E-03    2.73       8.2  T
   5   -150.2034686 -0.722020E-07  0.487E-04    2.73      20.7  T
   6   -150.2034686 -0.376792E-08  0.188E-04    2.73      53.8  T
     SCC iter.                  ...        0 min,  0.071 sec
     gradient                   ...        0 min,  0.152 sec
 * total energy  :  -148.1943933 Eh     change       -0.3904574E-04 Eh
   gradient norm :     0.0020249 Eh/α   predicted    -0.2726614E-04 ( -30.17%)
   displ. norm   :     0.2823100 α      lambda       -0.4732455E-04
   maximum displ.:     0.1113781 α      in ANC's #7, #11, #1, ...

........................................................................
.............................. CYCLE   36 ..............................
........................................................................

 iter      E             dE          RMSdq      gap      omega  full diag
   1   -150.2032546 -0.150203E+03  0.290E-02    2.73       0.0  T
   2   -150.2032555 -0.902173E-06  0.169E-02    2.73       1.0  T
   3   -150.2032539  0.160741E-05  0.506E-03    2.73       2.0  T
   4   -150.2032557 -0.182823E-05  0.136E-03    2.73       7.4  T
   5   -150.2032558 -0.103587E-06  0.501E-04    2.73      20.1  T
   6   -150.2032558 -0.325019E-08  0.195E-04    2.73      51.7  T
     SCC iter.                  ...        0 min,  0.092 sec
     gradient                   ...        0 min,  0.177 sec
 * total energy  :  -148.1944297 Eh     change       -0.3646642E-04 Eh
   gradient norm :     0.0020025 Eh/α   predicted    -0.2555283E-04 ( -29.93%)
   displ. norm   :     0.2795334 α      lambda       -0.4605393E-04
   maximum displ.:     0.1085166 α      in ANC's #7, #1, #11, ...

........................................................................
.............................. CYCLE   37 ..............................
........................................................................

 iter      E             dE          RMSdq      gap      omega  full diag
   1   -150.2038799 -0.150204E+03  0.274E-02    2.73       0.0  T
   2   -150.2038807 -0.857939E-06  0.160E-02    2.73       1.0  T
   3   -150.2038793  0.142495E-05  0.478E-03    2.73       2.1  T
   4   -150.2038809 -0.161838E-05  0.136E-03    2.73       7.5  T
   5   -150.2038810 -0.107318E-06  0.497E-04    2.73      20.3  T
   6   -150.2038810 -0.336928E-08  0.202E-04    2.73      50.1  T
     SCC iter.                  ...        0 min,  0.092 sec
     gradient                   ...        0 min,  0.167 sec
 * total energy  :  -148.1944644 Eh     change       -0.3467857E-04 Eh
   gradient norm :     0.0019662 Eh/α   predicted    -0.2482992E-04 ( -28.40%)
   displ. norm   :     0.5113582 α      lambda       -0.4577640E-04
   maximum displ.:     0.2055568 α      in ANC's #7, #1, #11, ...

........................................................................
.............................. CYCLE   38 ..............................
........................................................................

 iter      E             dE          RMSdq      gap      omega  full diag
   1   -150.2013991 -0.150201E+03  0.473E-02    2.73       0.0  T
   2   -150.2014020 -0.293405E-05  0.275E-02    2.73       1.0  T
   3   -150.2013978  0.424620E-05  0.835E-03    2.73       1.2  T
   4   -150.2014027 -0.486528E-05  0.253E-03    2.73       4.0  T
   5   -150.2014030 -0.359631E-06  0.903E-04    2.73      11.2  T
   6   -150.2014030 -0.977175E-08  0.358E-04    2.73      28.2  T
     SCC iter.                  ...        0 min,  0.078 sec
     gradient                   ...        0 min,  0.177 sec
 * total energy  :  -148.1945008 Eh     change       -0.3638846E-04 Eh
   gradient norm :     0.0032241 Eh/α   predicted    -0.2554845E-04 ( -29.79%)
   displ. norm   :     0.1703049 α      lambda       -0.4886150E-04
   maximum displ.:     0.0669398 α      in ANC's #12, #1, #3, ...

........................................................................
.............................. CYCLE   39 ..............................
........................................................................

 iter      E             dE          RMSdq      gap      omega  full diag
   1   -150.2049970 -0.150205E+03  0.156E-02    2.74       0.0  T
   2   -150.2049976 -0.547081E-06  0.906E-03    2.74       1.1  T
   3   -150.2049967  0.848535E-06  0.387E-03    2.74       2.6  T
   4   -150.2049977 -0.100446E-05  0.103E-03    2.74       9.8  T
   5   -150.2049978 -0.574821E-07  0.386E-04    2.74      26.1  T
   6   -150.2049978 -0.284305E-08  0.187E-04    2.74      54.0  T
     SCC iter.                  ...        0 min,  0.084 sec
     gradient                   ...        0 min,  0.176 sec
 * total energy  :  -148.1945251 Eh     change       -0.2433545E-04 Eh
   gradient norm :     0.0027823 Eh/α   predicted    -0.2514163E-04 (   3.31%)
   displ. norm   :     0.1456888 α      lambda       -0.2748637E-04
   maximum displ.:     0.0584932 α      in ANC's #7, #1, #3, ...

........................................................................
.............................. CYCLE   40 ..............................
........................................................................

 iter      E             dE          RMSdq      gap      omega  full diag
   1   -150.2044653 -0.150204E+03  0.136E-02    2.74       0.0  T
   2   -150.2044656 -0.311136E-06  0.785E-03    2.74       1.3  T
   3   -150.2044653  0.306951E-06  0.232E-03    2.74       4.4  T
   4   -150.2044656 -0.341011E-06  0.874E-04    2.74      11.6  T
   5   -150.2044656 -0.464868E-07  0.253E-04    2.74      40.0  T
     SCC iter.                  ...        0 min,  0.074 sec
     gradient                   ...        0 min,  0.156 sec
 * total energy  :  -148.1945476 Eh     change       -0.2246607E-04 Eh
   gradient norm :     0.0018631 Eh/α   predicted    -0.1404514E-04 ( -37.48%)
   displ. norm   :     0.3582230 α      lambda       -0.3800720E-04
   maximum displ.:     0.1464195 α      in ANC's #7, #1, #3, ...

........................................................................
.............................. CYCLE   41 ..............................
........................................................................

 iter      E             dE          RMSdq      gap      omega  full diag
   1   -150.2032947 -0.150203E+03  0.334E-02    2.74       0.0  T
   2   -150.2032966 -0.188738E-05  0.193E-02    2.75       1.0  T
   3   -150.2032948  0.185226E-05  0.564E-03    2.75       1.8  T
   4   -150.2032969 -0.207418E-05  0.211E-03    2.75       4.8  T
   5   -150.2032971 -0.275926E-06  0.618E-04    2.75      16.3  T
   6   -150.2032971 -0.271879E-08  0.274E-04    2.75      36.8  T
     SCC iter.                  ...        0 min,  0.091 sec
     gradient                   ...        0 min,  0.156 sec
 * total energy  :  -148.1945697 Eh     change       -0.2204056E-04 Eh
   gradient norm :     0.0022030 Eh/α   predicted    -0.2009258E-04 (  -8.84%)
   displ. norm   :     0.0727478 α      lambda       -0.1104694E-04
   maximum displ.:     0.0293645 α      in ANC's #7, #1, #3, ...

........................................................................
.............................. CYCLE   42 ..............................
........................................................................

 iter      E             dE          RMSdq      gap      omega  full diag
   1   -150.2034349 -0.150203E+03  0.731E-03    2.75       0.0  T
   2   -150.2034350 -0.941756E-07  0.428E-03    2.75       2.4  T
   3   -150.2034349  0.150703E-06  0.161E-03    2.75       6.3  T
   4   -150.2034350 -0.171521E-06  0.399E-04    2.75      25.3  T
   5   -150.2034350 -0.970809E-08  0.137E-04    2.75      73.7  T
     SCC iter.                  ...        0 min,  0.059 sec
     gradient                   ...        0 min,  0.147 sec
 * total energy  :  -148.1945779 Eh     change       -0.8243760E-05 Eh
   gradient norm :     0.0015285 Eh/α   predicted    -0.5554783E-05 ( -32.62%)
   displ. norm   :     0.1333209 α      lambda       -0.1641325E-04
   maximum displ.:     0.0533351 α      in ANC's #7, #1, #3, ...
 * RMSD in coord.:     0.5060884 α      energy gain  -0.1022064E-02 Eh

generating ANC from exact Hessian ...
Using Lindh-Hessian (1995)
 Shifting diagonal of input Hessian by    9.9740432918553924E-003
 Lowest  eigenvalues of input Hessian
    0.000000    0.000000    0.000000    0.000000    0.000000    0.000000
    0.010000    0.010017    0.010057    0.010111    0.010200    0.010245
    0.010294    0.010413    0.010568    0.010591    0.010676    0.010748
 Highest eigenvalues
    2.067229    2.127945    2.140280    2.338660    2.437316    2.539538


........................................................................
.............................. CYCLE   43 ..............................
........................................................................

 iter      E             dE          RMSdq      gap      omega  full diag
   1   -150.2050397 -0.150205E+03  0.142E-02    2.75       0.0  T
   2   -150.2050402 -0.442914E-06  0.823E-03    2.74       1.2  T
   3   -150.2050399  0.252545E-06  0.237E-03    2.74       4.3  T
   4   -150.2050402 -0.273481E-06  0.909E-04    2.74      11.1  T
   5   -150.2050403 -0.577856E-07  0.281E-04    2.74      35.9  T
     SCC iter.                  ...        0 min,  0.059 sec
     gradient                   ...        0 min,  0.137 sec
 * total energy  :  -148.1945900 Eh     change       -0.1207735E-04 Eh
   gradient norm :     0.0013670 Eh/α   predicted     0.0000000E+00 (-100.00%)
   displ. norm   :     0.0224480 α      lambda       -0.6163223E-05
   maximum displ.:     0.0093520 α      in ANC's #6, #13, #5, ...

........................................................................
.............................. CYCLE   44 ..............................
........................................................................

 iter      E             dE          RMSdq      gap      omega  full diag
   1   -150.2040180 -0.150204E+03  0.404E-03    2.74       0.0  T
   2   -150.2040181 -0.728028E-07  0.232E-03    2.74       4.4  T
   3   -150.2040181  0.173537E-08  0.594E-04    2.74      17.0  T
   4   -150.2040181 -0.789498E-08  0.177E-04    2.74      57.1  T
     SCC iter.                  ...        0 min,  0.048 sec
     gradient                   ...        0 min,  0.139 sec
 * total energy  :  -148.1945960 Eh     change       -0.5989351E-05 Eh
   gradient norm :     0.0003686 Eh/α   predicted    -0.3090162E-05 ( -48.41%)
   displ. norm   :     0.0227070 α      lambda        0.7841751E-06
   maximum displ.:     0.0094673 α      in ANC's #6, #13, #5, ...

........................................................................
.............................. CYCLE   45 ..............................
........................................................................

 iter      E             dE          RMSdq      gap      omega  full diag
   1   -150.2029811 -0.150203E+03  0.409E-03    2.74       0.0  T
   2   -150.2029812 -0.739587E-07  0.235E-03    2.74       4.3  T
   3   -150.2029812  0.606960E-08  0.650E-04    2.74      15.5  T
   4   -150.2029812 -0.110917E-07  0.242E-04    2.74      41.8  T
     SCC iter.                  ...        0 min,  0.048 sec
     gradient                   ...        0 min,  0.154 sec
 * total energy  :  -148.1945954 Eh     change        0.5665002E-06 Eh
   gradient norm :     0.0017208 Eh/α   predicted     0.3920695E-06 ( -30.79%)
   displ. norm   :     0.0203078 α      lambda       -0.5335381E-05
   maximum displ.:     0.0089955 α      in ANC's #6, #13, #5, ...

........................................................................
.............................. CYCLE   46 ..............................
........................................................................

 iter      E             dE          RMSdq      gap      omega  full diag
   1   -150.2037096 -0.150204E+03  0.337E-03    2.74       0.0  T
   2   -150.2037097 -0.290478E-07  0.195E-03    2.74       5.2  T
   3   -150.2037097  0.107779E-07  0.513E-04    2.74      19.7  T
   4   -150.2037097 -0.140897E-07  0.191E-04    2.74      52.9  T
     SCC iter.                  ...        0 min,  0.047 sec
     gradient                   ...        0 min,  0.141 sec
 * total energy  :  -148.1946017 Eh     change       -0.6347018E-05 Eh
   gradient norm :     0.0007833 Eh/α   predicted    -0.2668363E-05 ( -57.96%)
   displ. norm   :     0.0843916 α      lambda       -0.9753911E-05
   maximum displ.:     0.0372525 α      in ANC's #6, #13, #5, ...

........................................................................
.............................. CYCLE   47 ..............................
........................................................................

 iter      E             dE          RMSdq      gap      omega  full diag
   1   -150.2046507 -0.150205E+03  0.104E-02    2.75       0.0  T
   2   -150.2046508 -0.993586E-07  0.605E-03    2.75       1.7  T
   3   -150.2046506  0.146388E-06  0.145E-03    2.75       7.0  T
   4   -150.2046508 -0.179366E-06  0.435E-04    2.75      23.2  T
   5   -150.2046508 -0.492861E-08  0.207E-04    2.75      48.8  T
     SCC iter.                  ...        0 min,  0.059 sec
     gradient                   ...        0 min,  0.143 sec
 * total energy  :  -148.1946125 Eh     change       -0.1073980E-04 Eh
   gradient norm :     0.0006960 Eh/α   predicted    -0.4892739E-05 ( -54.44%)
   displ. norm   :     0.1352780 α      lambda       -0.9752417E-05
   maximum displ.:     0.0603664 α      in ANC's #6, #5, #13, ...

........................................................................
.............................. CYCLE   48 ..............................
........................................................................

 iter      E             dE          RMSdq      gap      omega  full diag
   1   -150.2048493 -0.150205E+03  0.159E-02    2.75       0.0  T
   2   -150.2048495 -0.181300E-06  0.922E-03    2.75       1.1  T
   3   -150.2048492  0.243855E-06  0.180E-03    2.75       5.6  T
   4   -150.2048495 -0.316575E-06  0.574E-04    2.75      17.6  T
   5   -150.2048496 -0.410793E-08  0.269E-04    2.75      37.6  T
     SCC iter.                  ...        0 min,  0.059 sec
     gradient                   ...        0 min,  0.137 sec
 * total energy  :  -148.1946234 Eh     change       -0.1093391E-04 Eh
   gradient norm :     0.0011689 Eh/α   predicted    -0.4917120E-05 ( -55.03%)
   displ. norm   :     0.1788662 α      lambda       -0.1061271E-04
   maximum displ.:     0.0809768 α      in ANC's #6, #5, #13, ...

........................................................................
.............................. CYCLE   49 ..............................
........................................................................

 iter      E             dE          RMSdq      gap      omega  full diag
   1   -150.2045868 -0.150205E+03  0.204E-02    2.75       0.0  T
   2   -150.2045870 -0.288929E-06  0.118E-02    2.75       1.0  T
   3   -150.2045867  0.346189E-06  0.215E-03    2.75       4.7  T
   4   -150.2045872 -0.462013E-06  0.705E-04    2.75      14.3  T
   5   -150.2045872 -0.847808E-08  0.240E-04    2.75      42.1  T
     SCC iter.                  ...        0 min,  0.059 sec
     gradient                   ...        0 min,  0.137 sec
 * total energy  :  -148.1946344 Eh     change       -0.1096069E-04 Eh
   gradient norm :     0.0010056 Eh/α   predicted    -0.5385016E-05 ( -50.87%)
   displ. norm   :     0.1499024 α      lambda       -0.7879315E-05
   maximum displ.:     0.0699740 α      in ANC's #6, #5, #3, ...

........................................................................
.............................. CYCLE   50 ..............................
........................................................................

 iter      E             dE          RMSdq      gap      omega  full diag
   1   -150.2040787 -0.150204E+03  0.163E-02    2.75       0.0  T
   2   -150.2040789 -0.207664E-06  0.940E-03    2.75       1.1  T
   3   -150.2040787  0.215100E-06  0.177E-03    2.75       5.7  T
   4   -150.2040790 -0.291560E-06  0.613E-04    2.75      16.5  T
   5   -150.2040790 -0.663815E-08  0.258E-04    2.75      39.2  T
     SCC iter.                  ...        0 min,  0.059 sec
     gradient                   ...        0 min,  0.144 sec
 * total energy  :  -148.1946429 Eh     change       -0.8499698E-05 Eh
   gradient norm :     0.0004447 Eh/α   predicted    -0.3989101E-05 ( -53.07%)
   displ. norm   :     0.1335972 α      lambda       -0.7387490E-05
   maximum displ.:     0.0633941 α      in ANC's #6, #5, #3, ...

........................................................................
.............................. CYCLE   51 ..............................
........................................................................

 iter      E             dE          RMSdq      gap      omega  full diag
   1   -150.2037370 -0.150204E+03  0.138E-02    2.75       0.0  T
   2   -150.2037371 -0.136635E-06  0.800E-03    2.75       1.3  T
   3   -150.2037369  0.161467E-06  0.148E-03    2.75       6.8  T
   4   -150.2037371 -0.215094E-06  0.502E-04    2.75      20.1  T
   5   -150.2037372 -0.342271E-08  0.222E-04    2.75      45.5  T
     SCC iter.                  ...        0 min,  0.059 sec
     gradient                   ...        0 min,  0.135 sec
 * total energy  :  -148.1946520 Eh     change       -0.9142615E-05 Eh
   gradient norm :     0.0006306 Eh/α   predicted    -0.3727529E-05 ( -59.23%)
   displ. norm   :     0.2185929 α      lambda       -0.1314837E-04
   maximum displ.:     0.1019484 α      in ANC's #6, #5, #3, ...

........................................................................
.............................. CYCLE   52 ..............................
........................................................................

 iter      E             dE          RMSdq      gap      omega  full diag
   1   -150.2033391 -0.150203E+03  0.221E-02    2.75       0.0  T
   2   -150.2033394 -0.349311E-06  0.128E-02    2.75       1.0  T
   3   -150.2033390  0.392170E-06  0.239E-03    2.75       4.2  T
   4   -150.2033395 -0.515181E-06  0.839E-04    2.75      12.0  T
   5   -150.2033396 -0.122859E-07  0.424E-04    2.75      23.8  T
     SCC iter.                  ...        0 min,  0.059 sec
     gradient                   ...        0 min,  0.138 sec
 * total energy  :  -148.1946673 Eh     change       -0.1528543E-04 Eh
   gradient norm :     0.0011664 Eh/α   predicted    -0.6718619E-05 ( -56.05%)
   displ. norm   :     0.2508107 α      lambda       -0.1320503E-04
   maximum displ.:     0.1145962 α      in ANC's #6, #5, #3, ...

........................................................................
.............................. CYCLE   53 ..............................
........................................................................

 iter      E             dE          RMSdq      gap      omega  full diag
   1   -150.2030758 -0.150203E+03  0.252E-02    2.75       0.0  T
   2   -150.2030762 -0.449664E-06  0.147E-02    2.75       1.0  T
   3   -150.2030757  0.544196E-06  0.279E-03    2.75       3.6  T
   4   -150.2030764 -0.688511E-06  0.976E-04    2.75      10.4  T
   5   -150.2030764 -0.243421E-07  0.481E-04    2.75      21.0  T
     SCC iter.                  ...        0 min,  0.059 sec
     gradient                   ...        0 min,  0.136 sec
 * total energy  :  -148.1946817 Eh     change       -0.1441218E-04 Eh
   gradient norm :     0.0012250 Eh/α   predicted    -0.6788982E-05 ( -52.89%)
   displ. norm   :     0.2293139 α      lambda       -0.1022855E-04
   maximum displ.:     0.1030322 α      in ANC's #6, #5, #3, ...

........................................................................
.............................. CYCLE   54 ..............................
........................................................................

 iter      E             dE          RMSdq      gap      omega  full diag
   1   -150.2033867 -0.150203E+03  0.229E-02    2.75       0.0  T
   2   -150.2033870 -0.374546E-06  0.133E-02    2.75       1.0  T
   3   -150.2033866  0.416679E-06  0.250E-03    2.75       4.0  T
   4   -150.2033871 -0.524222E-06  0.920E-04    2.75      11.0  T
   5   -150.2033872 -0.260077E-07  0.431E-04    2.75      23.4  T
     SCC iter.                  ...        0 min,  0.059 sec
     gradient                   ...        0 min,  0.138 sec
 * total energy  :  -148.1946933 Eh     change       -0.1163203E-04 Eh
   gradient norm :     0.0007908 Eh/α   predicted    -0.5236484E-05 ( -54.98%)
   displ. norm   :     0.2340560 α      lambda       -0.1031314E-04
   maximum displ.:     0.1024377 α      in ANC's #6, #5, #3, ...

........................................................................
.............................. CYCLE   55 ..............................
........................................................................

 iter      E             dE          RMSdq      gap      omega  full diag
   1   -150.2038814 -0.150204E+03  0.236E-02    2.75       0.0  T
   2   -150.2038817 -0.339583E-06  0.138E-02    2.75       1.0  T
   3   -150.2038814  0.320298E-06  0.227E-03    2.75       4.4  T
   4   -150.2038818 -0.420840E-06  0.865E-04    2.75      11.7  T
   5   -150.2038818 -0.206030E-07  0.408E-04    2.75      24.7  T
     SCC iter.                  ...        0 min,  0.059 sec
     gradient                   ...        0 min,  0.144 sec
 * total energy  :  -148.1947052 Eh     change       -0.1182013E-04 Eh
   gradient norm :     0.0004846 Eh/α   predicted    -0.5282761E-05 ( -55.31%)
   displ. norm   :     0.2617654 α      lambda       -0.1095565E-04
   maximum displ.:     0.1157136 α      in ANC's #5, #6, #3, ...

........................................................................
.............................. CYCLE   56 ..............................
........................................................................

 iter      E             dE          RMSdq      gap      omega  full diag
   1   -150.2042741 -0.150204E+03  0.265E-02    2.75       0.0  T
   2   -150.2042745 -0.378936E-06  0.154E-02    2.75       1.0  T
   3   -150.2042742  0.281777E-06  0.225E-03    2.75       4.5  T
   4   -150.2042746 -0.399851E-06  0.914E-04    2.75      11.0  T
   5   -150.2042746 -0.203100E-07  0.418E-04    2.75      24.2  T
     SCC iter.                  ...        0 min,  0.059 sec
     gradient                   ...        0 min,  0.137 sec
 * total energy  :  -148.1947173 Eh     change       -0.1218075E-04 Eh
   gradient norm :     0.0009361 Eh/α   predicted    -0.5648811E-05 ( -53.63%)
   displ. norm   :     0.2453958 α      lambda       -0.9787442E-05
   maximum displ.:     0.1104166 α      in ANC's #5, #6, #3, ...

........................................................................
.............................. CYCLE   57 ..............................
........................................................................

 iter      E             dE          RMSdq      gap      omega  full diag
   1   -150.2044566 -0.150204E+03  0.249E-02    2.75       0.0  T
   2   -150.2044569 -0.309491E-06  0.145E-02    2.75       1.0  T
   3   -150.2044567  0.225727E-06  0.201E-03    2.75       5.0  T
   4   -150.2044570 -0.332503E-06  0.770E-04    2.75      13.1  T
   5   -150.2044570 -0.105105E-07  0.366E-04    2.75      27.6  T
     SCC iter.                  ...        0 min,  0.060 sec
     gradient                   ...        0 min,  0.136 sec
 * total energy  :  -148.1947278 Eh     change       -0.1046906E-04 Eh
   gradient norm :     0.0010659 Eh/α   predicted    -0.5025691E-05 ( -51.99%)
   displ. norm   :     0.2068700 α      lambda       -0.8026994E-05
   maximum displ.:     0.0955736 α      in ANC's #5, #6, #3, ...

........................................................................
.............................. CYCLE   58 ..............................
........................................................................

 iter      E             dE          RMSdq      gap      omega  full diag
   1   -150.2044383 -0.150204E+03  0.204E-02    2.75       0.0  T
   2   -150.2044385 -0.248777E-06  0.119E-02    2.75       1.0  T
   3   -150.2044383  0.237344E-06  0.199E-03    2.75       5.1  T
   4   -150.2044386 -0.317592E-06  0.736E-04    2.75      13.7  T
   5   -150.2044386 -0.111411E-07  0.360E-04    2.75      28.0  T
     SCC iter.                  ...        0 min,  0.075 sec
     gradient                   ...        0 min,  0.136 sec
 * total energy  :  -148.1947364 Eh     change       -0.8576217E-05 Eh
   gradient norm :     0.0007572 Eh/α   predicted    -0.4092323E-05 ( -52.28%)
   displ. norm   :     0.1545423 α      lambda       -0.6365037E-05
   maximum displ.:     0.0739610 α      in ANC's #5, #3, #6, ...

........................................................................
.............................. CYCLE   59 ..............................
........................................................................

 iter      E             dE          RMSdq      gap      omega  full diag
   1   -150.2043270 -0.150204E+03  0.150E-02    2.75       0.0  T
   2   -150.2043272 -0.194651E-06  0.872E-03    2.75       1.2  T
   3   -150.2043270  0.218468E-06  0.183E-03    2.75       5.5  T
   4   -150.2043273 -0.272833E-06  0.579E-04    2.75      17.4  T
   5   -150.2043273 -0.115968E-07  0.287E-04    2.75      35.2  T
     SCC iter.                  ...        0 min,  0.059 sec
     gradient                   ...        0 min,  0.137 sec
 * total energy  :  -148.1947435 Eh     change       -0.7131995E-05 Eh
   gradient norm :     0.0003956 Eh/α   predicted    -0.3217970E-05 ( -54.88%)
   displ. norm   :     0.1471762 α      lambda       -0.6354106E-05
   maximum displ.:     0.0721196 α      in ANC's #5, #3, #7, ...

........................................................................
.............................. CYCLE   60 ..............................
........................................................................

 iter      E             dE          RMSdq      gap      omega  full diag
   1   -150.2040439 -0.150204E+03  0.141E-02    2.75       0.0  T
   2   -150.2040441 -0.190208E-06  0.822E-03    2.75       1.2  T
   3   -150.2040439  0.137869E-06  0.153E-03    2.75       6.6  T
   4   -150.2040441 -0.186286E-06  0.552E-04    2.75      18.3  T
   5   -150.2040441 -0.100892E-07  0.284E-04    2.75      35.5  T
     SCC iter.                  ...        0 min,  0.059 sec
     gradient                   ...        0 min,  0.138 sec
 * total energy  :  -148.1947507 Eh     change       -0.7222536E-05 Eh
   gradient norm :     0.0006593 Eh/α   predicted    -0.3212519E-05 ( -55.52%)
   displ. norm   :     0.1530206 α      lambda       -0.6868474E-05
[...]
       130        1.9923           -0.3913825             -10.6501
       131        1.9746           -0.3902289             -10.6187
       132        1.9454           -0.3894725             -10.5981
       133        1.7446           -0.3877793             -10.5520
       134        1.3443           -0.3861506             -10.5077
       135        0.6065           -0.2469044              -6.7186 (HOMO)
       136        0.3935           -0.2460825              -6.6962 (LUMO)
       137                         -0.2246062              -6.1118
       138                         -0.2220173              -6.0414
       139                         -0.2208831              -6.0105
       140                         -0.2202994              -5.9947
       ...                                ...                  ...
       258                          0.6748799              18.3644
      -------------------------------------------------------------
                  HL-Gap            0.0008219 Eh            0.0224 eV
             Fermi-level           -0.3166281 Eh           -8.6159 eV

 transition dipole moment (au) for excitation:         134         135
     X       Y       Z   
   0.0273  -0.5673   0.9345  total (au/Debye):    1.094   2.780
 dE (eV)             :    3.789
 oscillator strength :  0.15699E+00

 SCC (total)                   0 d,  0 h,  0 min,  0.479 sec
 SCC setup                      ...        0 min,  0.002 sec (  0.314%)
 Dispersion                     ...        0 min,  0.002 sec (  0.498%)
 classical contributions        ...        0 min,  0.001 sec (  0.155%)
 integral evaluation            ...        0 min,  0.030 sec (  6.330%)
 iterations                     ...        0 min,  0.286 sec ( 59.754%)
 molecular gradient             ...        0 min,  0.133 sec ( 27.758%)
 printout                       ...        0 min,  0.025 sec (  5.189%)

         :::::::::::::::::::::::::::::::::::::::::::::::::::::
         ::                     SUMMARY                     ::
         :::::::::::::::::::::::::::::::::::::::::::::::::::::
         :: total energy            -148.066894948031 Eh    ::
         :: gradient norm              0.098141375512 Eh/a0 ::
         :: HOMO-LUMO gap              0.022365468337 eV    ::
         ::.................................................::
         :: SCC energy              -150.073086916971 Eh    ::
         :: -> isotropic ES            0.185924856270 Eh    ::
         :: -> anisotropic ES          0.006365285489 Eh    ::
         :: -> anisotropic XC          0.059035383666 Eh    ::
         :: -> dispersion             -0.123681171060 Eh    ::
         :: repulsion energy           2.006191968940 Eh    ::
         :: add. restraining           0.000000000000 Eh    ::
         :: total charge              -0.000000000109 e     ::
         :::::::::::::::::::::::::::::::::::::::::::::::::::::

           -------------------------------------------------
          |                Property Printout                |
           -------------------------------------------------

    * Orbital Energies and Occupations

         #    Occupation            Energy/Eh            Energy/eV
      -------------------------------------------------------------
         1        2.0000           -0.7412348             -20.1700
       ...           ...                  ...                  ...
       123        2.0000           -0.4071390             -11.0788
       124        2.0000           -0.4051200             -11.0239
       125        2.0000           -0.4045542             -11.0085
       126        2.0000           -0.4025629             -10.9543
       127        2.0000           -0.4015587             -10.9270
       128        1.9999           -0.3953885             -10.7591
       129        1.9988           -0.3931859             -10.6991
       130        1.9923           -0.3913825             -10.6501
       131        1.9746           -0.3902289             -10.6187
       132        1.9454           -0.3894725             -10.5981
       133        1.7446           -0.3877793             -10.5520
       134        1.3443           -0.3861506             -10.5077
       135        0.6065           -0.2469044              -6.7186 (HOMO)
       136        0.3935           -0.2460825              -6.6962 (LUMO)
       137                         -0.2246062              -6.1118
       138                         -0.2220173              -6.0414
       139                         -0.2208831              -6.0105
       140                         -0.2202994              -5.9947
       141                         -0.2198444              -5.9823
       142                         -0.2040818              -5.5533
       143                         -0.2030623              -5.5256
       144                         -0.1982818              -5.3955
       145                         -0.1852047              -5.0397
       146                         -0.1841544              -5.0111
       ...                                ...                  ...
       258                          0.6748799              18.3644
      -------------------------------------------------------------
                  HL-Gap            0.0008219 Eh            0.0224 eV
             Fermi-level           -0.3166281 Eh           -8.6159 eV

     #   Z          covCN         q      C6AA      α(0)
     1   8 O        0.860    -0.452    22.747     6.395
     2   6 C        2.659     0.405    20.166     7.347
     3   7 N        2.690    -0.196    25.256     7.464
     4   6 C        3.793     0.026    20.141     6.391
     5   6 C        3.812    -0.073    21.879     6.658
     6   6 C        2.972     0.011    27.771     8.644
     7   6 C        2.924    -0.038    28.941     8.822
     8   6 C        2.919    -0.028    28.690     8.784
     9   6 C        2.920    -0.032    28.800     8.800
    10   6 C        2.919    -0.031    28.770     8.796
    11   6 C        2.924    -0.040    28.994     8.830
    12   6 C        3.727     0.103    18.988     6.221
    13   6 C        3.804    -0.084    22.100     6.693
    14   6 C        3.794     0.036    19.971     6.364
    15   7 N        2.693    -0.182    24.939     7.417
    16   6 C        2.753     0.264    22.552     7.776
    17   6 C        3.802     0.019    20.264     6.409
    18   7 N        2.695    -0.201    25.366     7.480
    19   6 C        2.704     0.319    21.579     7.603
    20   7 N        2.741    -0.099    23.187     7.152
    21   6 C        3.693    -0.053    21.702     6.665
    22   6 C        3.756    -0.001    20.647     6.479
    23   6 C        3.217     0.073    25.697     8.245
    24   6 C        2.924    -0.044    29.083     8.844
    25  16 S        2.285    -0.096   145.074    20.272
    26   6 C        3.026     0.097    25.824     8.336
    27   6 C        3.870    -0.010    20.702     6.470
    28   6 C        3.759    -0.103    22.510     6.764
    29   6 C        3.758    -0.107    22.597     6.777
    30   7 N        1.966    -0.266    27.721     7.808
    31   8 O        0.859    -0.498    23.730     6.531
    32   6 C        3.852    -0.013    20.768     6.482
    33   6 C        3.757    -0.112    22.690     6.791
    34   6 C        3.756    -0.111    22.678     6.790
    35   8 O        0.858    -0.430    22.288     6.330
    36   6 C        3.812    -0.077    21.952     6.669
    37   6 C        2.972     0.014    27.689     8.631
    38   6 C        2.925    -0.037    28.919     8.819
    39   6 C        2.919    -0.029    28.719     8.788
    40   6 C        2.920    -0.037    28.911     8.817
    41   6 C        2.919    -0.036    28.905     8.816
    42   6 C        2.924    -0.042    29.041     8.837
    43   8 O        1.655    -0.439    21.629     6.278
    44   8 O        1.707    -0.311    19.177     5.913
    45   6 C        3.727     0.090    19.182     6.253
    46   6 C        2.973    -0.020    28.493     8.756
    47   6 C        3.200     0.020    27.002     8.468
    48   7 N        1.957    -0.198    26.101     7.576
    49   6 C        2.999     0.045    26.986     8.521
    50  16 S        2.290    -0.044   142.874    20.118
    51   1 H        0.860     0.189     1.166     1.692
    52   1 H        0.924     0.095     1.835     2.118
    53   1 H        0.924     0.052     2.298     2.371
    54   1 H        0.924     0.054     2.267     2.355
    55   1 H        0.926     0.053     2.279     2.361
    56   1 H        0.926     0.034     2.528     2.486
    57   1 H        0.926     0.030     2.589     2.516
    58   1 H        0.926     0.029     2.600     2.522
    59   1 H        0.925     0.024     2.674     2.557
    60   1 H        0.924     0.052     2.298     2.371
    61   1 H        0.924     0.056     2.250     2.346
    62   1 H        0.924     0.047     2.361     2.403
    63   1 H        0.924     0.094     1.838     2.120
    64   1 H        0.860     0.213     1.042     1.599
    65   1 H        0.924     0.074     2.039     2.233
    66   1 H        0.860     0.179     1.222     1.732
    67   1 H        0.924     0.050     2.316     2.380
    68   1 H        0.925     0.089     1.885     2.147
    69   1 H        0.924     0.054     2.274     2.358
    70   1 H        0.924     0.063     2.167     2.302
    71   1 H        0.924     0.081     1.970     2.195
    72   1 H        0.927     0.045     2.388     2.417
    73   1 H        0.924     0.041     2.438     2.442
    74   1 H        0.925     0.044     2.394     2.420
    75   1 H        0.925     0.047     2.360     2.402
    76   1 H        0.925     0.041     2.435     2.440
    77   1 H        0.925     0.053     2.284     2.363
    78   1 H        0.925     0.042     2.422     2.434
    79   1 H        0.925     0.038     2.473     2.459
    80   1 H        0.924     0.049     2.330     2.387
    81   1 H        0.925     0.047     2.354     2.399
    82   1 H        0.925     0.052     2.300     2.372
    83   1 H        0.925     0.037     2.495     2.470
    84   1 H        0.925     0.044     2.396     2.420
    85   1 H        0.925     0.046     2.371     2.408
    86   1 H        0.925     0.035     2.517     2.481
    87   1 H        0.924     0.063     2.163     2.300
    88   1 H        0.924     0.046     2.365     2.405
    89   1 H        0.926     0.060     2.201     2.320
    90   1 H        0.926     0.035     2.522     2.483
    91   1 H        0.926     0.026     2.649     2.545
    92   1 H        0.926     0.025     2.663     2.552
    93   1 H        0.926     0.029     2.595     2.519
    94   1 H        0.805     0.293     0.743     1.354
    95   1 H        0.924     0.059     2.214     2.327
    96   1 H        0.924     0.055     2.262     2.352
    97   1 H        0.926     0.038     2.469     2.457
    98   1 H        0.926     0.043     2.409     2.427

 Mol. C6AA /au·bohr⁶  :     109694.825028
 Mol. C8AA /au·bohr⁸  :    2701066.581942
 Mol. α(0) /au        :        512.408931


Wiberg/Mayer (AO) data.
largest (>0.10) Wiberg bond orders for each atom

 ---------------------------------------------------------------------------
     #   Z sym  total        # sym  WBO       # sym  WBO       # sym  WBO
 ---------------------------------------------------------------------------
     1   8 O    1.994 --     2 C    1.622     3 N    0.158    44 O    0.128
     2   6 C    3.941 --     1 O    1.622     3 N    1.221    44 O    1.048
     3   7 N    3.400 --     2 C    1.221     4 C    0.978    51 H    0.932
                             1 O    0.158
     4   6 C    3.947 --     3 N    0.978     5 C    0.976    12 C    0.955
                            52 H    0.940
     5   6 C    3.991 --     6 C    1.009     4 C    0.976    53 H    0.972
                            54 H    0.962
     6   6 C    3.984 --    11 C    1.419     7 C    1.404     5 C    1.009
                             9 C    0.108
     7   6 C    3.987 --     8 C    1.453     6 C    1.404    55 H    0.965
                            10 C    0.112
     8   6 C    3.992 --     7 C    1.453     9 C    1.432    56 H    0.971
                            11 C    0.109
     9   6 C    3.987 --    10 C    1.443     8 C    1.432    57 H    0.972
                             6 C    0.108
    10   6 C    3.990 --     9 C    1.443    11 C    1.438    58 H    0.971
                             7 C    0.112
    11   6 C    3.990 --    10 C    1.438     6 C    1.419    59 H    0.969
                             8 C    0.109
    12   6 C    3.950 --    43 O    0.996    13 C    0.985    60 H    0.959
                             4 C    0.955
    13   6 C    3.991 --    12 C    0.985    14 C    0.983    61 H    0.973
                            62 H    0.971
    14   6 C    3.955 --    13 C    0.983    15 N    0.978    36 C    0.973
                            63 H    0.942
    15   7 N    3.470 --    16 C    1.308    14 C    0.978    64 H    0.898
                            35 O    0.203
    16   6 C    3.941 --    35 O    1.652    15 N    1.308    17 C    0.906
    17   6 C    3.937 --    18 N    0.984    32 C    0.977    65 H    0.949
                            16 C    0.906
    18   7 N    3.349 --    19 C    1.161    17 C    0.984    66 H    0.932
                            31 O    0.134
    19   6 C    3.961 --    31 O    1.545    20 N    1.184    18 N    1.161
    20   7 N    3.440 --    19 C    1.184    21 C    1.002    22 C    0.967
                            31 O    0.139
    21   6 C    3.965 --    20 N    1.002    67 H    0.976    68 H    0.972
                            69 H    0.969
    22   6 C    3.960 --    23 C    0.991    20 N    0.967    70 H    0.963
                            71 H    0.959
    23   6 C    3.811 --    24 C    1.352    30 N    1.299    22 C    0.991
    24   6 C    3.678 --    23 C    1.352    25 S    1.233    72 H    0.969
    25  16 S    2.420 --    24 C    1.233    26 C    0.971    30 N    0.120
    26   6 C    3.633 --    30 N    1.492    27 C    1.020    25 S    0.971
    27   6 C    3.988 --    26 C    1.020    29 C    0.998    28 C    0.972
                            73 H    0.959
    28   6 C    3.971 --    76 H    0.987    75 H    0.987    74 H    0.982
                            27 C    0.972
    29   6 C    3.990 --    27 C    0.998    79 H    0.987    78 H    0.985
                            77 H    0.985
    30   7 N    3.067 --    26 C    1.492    23 C    1.299    25 S    0.120
    31   8 O    1.931 --    19 C    1.545    20 N    0.139    18 N    0.134
    32   6 C    3.985 --    33 C    1.008    34 C    1.007    17 C    0.977
                            80 H    0.965
    33   6 C    3.993 --    32 C    1.008    83 H    0.987    81 H    0.984
                            82 H    0.981
    34   6 C    3.992 --    32 C    1.007    84 H    0.986    85 H    0.985
                            86 H    0.985
    35   8 O    1.983 --    16 C    1.652    15 N    0.203
    36   6 C    3.989 --    37 C    1.012    14 C    0.973    88 H    0.973
                            87 H    0.956
    37   6 C    3.984 --    42 C    1.419    38 C    1.402    36 C    1.012
                            40 C    0.107
    38   6 C    3.986 --    39 C    1.454    37 C    1.402    89 H    0.964
                            41 C    0.112
    39   6 C    3.992 --    38 C    1.454    40 C    1.430    90 H    0.971
                            42 C    0.109
    40   6 C    3.987 --    41 C    1.443    39 C    1.430    91 H    0.972
                            37 C    0.107
    41   6 C    3.991 --    40 C    1.443    42 C    1.437    92 H    0.970
                            38 C    0.112
    42   6 C    3.989 --    41 C    1.437    37 C    1.419    93 H    0.968
                            39 C    0.109
    43   8 O    1.968 --    12 C    0.996    94 H    0.895
    44   8 O    2.219 --     2 C    1.048    45 C    0.933     1 O    0.128
    45   6 C    3.928 --    46 C    1.017    96 H    0.967    95 H    0.958
                            44 O    0.933
    46   6 C    3.773 --    47 C    1.493    50 S    1.138    45 C    1.017
    47   6 C    3.885 --    46 C    1.493    48 N    1.291    97 H    0.960
    48   7 N    3.011 --    49 C    1.543    47 C    1.291    50 S    0.104
    49   6 C    3.718 --    48 N    1.543    50 S    1.095    98 H    0.964
    50  16 S    2.488 --    46 C    1.138    49 C    1.095    48 N    0.104
    51   1 H    0.964 --     3 N    0.932
    52   1 H    0.990 --     4 C    0.940
    53   1 H    0.997 --     5 C    0.972
    54   1 H    0.996 --     5 C    0.962
    55   1 H    0.997 --     7 C    0.965
    56   1 H    0.998 --     8 C    0.971
    57   1 H    0.999 --     9 C    0.972
    58   1 H    0.999 --    10 C    0.971
    59   1 H    0.999 --    11 C    0.969
    60   1 H    0.997 --    12 C    0.959
    61   1 H    0.996 --    13 C    0.973
    62   1 H    0.997 --    13 C    0.971
    63   1 H    0.991 --    14 C    0.942
    64   1 H    0.955 --    15 N    0.898
    65   1 H    0.993 --    17 C    0.949
    66   1 H    0.968 --    18 N    0.932
    67   1 H    0.996 --    21 C    0.976
    68   1 H    0.991 --    21 C    0.972
    69   1 H    0.993 --    21 C    0.969
    70   1 H    0.994 --    22 C    0.963
    71   1 H    0.992 --    22 C    0.959
    72   1 H    0.997 --    24 C    0.969
    73   1 H    0.993 --    27 C    0.959
    74   1 H    0.994 --    28 C    0.982
    75   1 H    0.998 --    28 C    0.987
    76   1 H    0.998 --    28 C    0.987
    77   1 H    0.997 --    29 C    0.985
    78   1 H    0.998 --    29 C    0.985
    79   1 H    0.998 --    29 C    0.987
    80   1 H    0.998 --    32 C    0.965
    81   1 H    0.996 --    33 C    0.984
    82   1 H    0.997 --    33 C    0.981
    83   1 H    0.999 --    33 C    0.987
    84   1 H    0.998 --    34 C    0.986
    85   1 H    0.997 --    34 C    0.985
    86   1 H    0.999 --    34 C    0.985
    87   1 H    0.994 --    36 C    0.956
    88   1 H    0.997 --    36 C    0.973
    89   1 H    0.996 --    38 C    0.964
    90   1 H    0.998 --    39 C    0.971
    91   1 H    0.999 --    40 C    0.972
    92   1 H    0.999 --    41 C    0.970
    93   1 H    0.999 --    42 C    0.968
    94   1 H    0.914 --    43 O    0.895
    95   1 H    0.990 --    45 C    0.958
    96   1 H    0.996 --    45 C    0.967
    97   1 H    0.997 --    47 C    0.960
    98   1 H    0.994 --    49 C    0.964
 ---------------------------------------------------------------------------

Topologies differ in total number of bonds
Writing topology from bond orders to xtbtopo.mol

molecular dipole:
                 x           y           z       tot (Debye)
 q only:        1.230      -1.193      -0.254
   full:        0.763      -1.261      -0.256       3.803
molecular quadrupole (traceless):
                xx          xy          yy          xz          yz          zz
 q only:       -1.870      -9.740      -1.934      27.664      -4.233       3.804
  q+dip:        9.275      -7.374      -2.819      31.752     -11.113      -6.456
   full:        6.533      -8.521      -3.281      30.234      -7.565      -3.252


           -------------------------------------------------
          | TOTAL ENERGY             -148.066894948031 Eh   |
          | GRADIENT NORM               0.098141375512 Eh/α |
          | HOMO-LUMO GAP               0.022365468337 eV   |
           -------------------------------------------------

------------------------------------------------------------------------
 * finished run on 2025/05/15 at 16:09:32.253     
------------------------------------------------------------------------
 total:
 * wall-time:     0 d,  0 h,  0 min,  0.516 sec
 *  cpu-time:     0 d,  0 h,  0 min,  0.512 sec
 * ratio c/w:     0.992 speedup
 SCF:
 * wall-time:     0 d,  0 h,  0 min,  0.481 sec
 *  cpu-time:     0 d,  0 h,  0 min,  0.478 sec
 * ratio c/w:     0.995 speedup


