----- Optimization -----
      -----------------------------------------------------------      
     |                   =====================                   |     
     |                           x T B                           |     
     |                   =====================                   |     
     |                         S. Grimme                         |     
     |          Mulliken Center for Theoretical Chemistry        |     
     |                    University of Bonn                     |     
      -----------------------------------------------------------      

   * xtb version 6.7.1 (edcfbbe) compiled by 'conda@3ef47c1a292c' on 2024-11-25

   xtb is free software: you can redistribute it and/or modify it under
   the terms of the GNU Lesser General Public License as published by
   the Free Software Foundation, either version 3 of the License, or
   (at your option) any later version.
   
   xtb is distributed in the hope that it will be useful,
   but WITHOUT ANY WARRANTY; without even the implied warranty of
   MERCHANTABILITY or FITNESS FOR A PARTICULAR PURPOSE.  See the
   GNU Lesser General Public License for more details.
   
   Cite this work as:
   * C. Bannwarth, E. Caldeweyher, S. Ehlert, A. Hansen, P. Pracht,
     J. Seibert, S. Spicher, S. Grimme, WIREs Comput. Mol. Sci., 2020, 11,
     e01493. DOI: 10.1002/wcms.1493
   
   for GFN2-xTB:
   * C. Bannwarth, S. Ehlert and S. Grimme., J. Chem. Theory Comput., 2019,
     15, 1652-1671. DOI: 10.1021/acs.jctc.8b01176
   for GFN1-xTB:
   * S. Grimme, C. Bannwarth, P. Shushkov, J. Chem. Theory Comput., 2017,
     13, 1989-2009. DOI: 10.1021/acs.jctc.7b00118
   for GFN0-xTB:
   * P. Pracht, E. Caldeweyher, S. Ehlert, S. Grimme, ChemRxiv, 2019, preprint.
     DOI: 10.26434/chemrxiv.8326202.v1
   for GFN-FF:
   * S. Spicher and S. Grimme, Angew. Chem. Int. Ed., 2020, 59, 15665-15673.
     DOI: 10.1002/anie.202004239
   
   for ALPB and GBSA implicit solvation:
   * S. Ehlert, M. Stahn, S. Spicher, S. Grimme, J. Chem. Theory Comput.,
     2021, 17, 4250-4261. DOI: 10.1021/acs.jctc.1c00471
   
   for ddCOSMO and CPCM-X implicit solvation:
   * M. Stahn, S. Ehlert, S. Grimme, J. Phys. Chem. A,
     2023, XX, XXXX-XXXX. DOI: 10.1021/acs.jpca.3c04382
   
   for DFT-D4:
   * E. Caldeweyher, C. Bannwarth and S. Grimme, J. Chem. Phys., 2017,
     147, 034112. DOI: 10.1063/1.4993215
   * E. Caldeweyher, S. Ehlert, A. Hansen, H. Neugebauer, S. Spicher,
     C. Bannwarth and S. Grimme, J. Chem. Phys., 2019, 150, 154122.
     DOI: 10.1063/1.5090222
   * E. Caldeweyher, J.-M. Mewes, S. Ehlert and S. Grimme, Phys. Chem. Chem. Phys.
     2020, 22, 8499-8512. DOI: 10.1039/D0CP00502A
   
   for sTDA-xTB:
   * S. Grimme and C. Bannwarth, J. Chem. Phys., 2016, 145, 054103.
     DOI: 10.1063/1.4959605
   
   in the mass-spec context:
   * V. Asgeirsson, C. Bauer and S. Grimme, Chem. Sci., 2017, 8, 4879.
     DOI: 10.1039/c7sc00601b
   * J. Koopman and S. Grimme, ACS Omega 2019, 4, 12, 15120-15133.
     DOI: 10.1021/acsomega.9b02011
   
   for metadynamics refer to:
   * S. Grimme, J. Chem. Theory Comput., 2019, 155, 2847-2862
     DOI: 10.1021/acs.jctc.9b00143
   
   for SPH calculations refer to:
   * S. Spicher and S. Grimme, J. Chem. Theory Comput., 2021, 17, 1701-1714
     DOI: 10.1021/acs.jctc.0c01306
   
   for ONIOM refer to:
   * C. Plett, A. Katbashev, S. Ehlert, S. Grimme, M. Bursch,
     Phys. Chem. Chem. Phys., 2023, 25, 17860-17868. DOI: 10.1039/D3CP02178E
   
   for DIPRO refer to:
   * J. Kohn, N. Gildemeister, S. Grimme, D. Fazzi, A. Hansen,
     J. Chem. Phys., 2023, just accepted.
   
   for PTB refer to:
   * S. Grimme, M. Mueller, A. Hansen, J. Chem. Phys., 2023, 158, 124111.
     DOI: 10.1063/5.0137838
   
   with help from (in alphabetical order)
   P. Atkinson, C. Bannwarth, F. Bohle, G. Brandenburg, E. Caldeweyher
   M. Checinski, S. Dohm, S. Ehlert, S. Ehrlich, I. Gerasimov, C. Hölzer
   A. Katbashev, J. Kohn, J. Koopman, C. Lavigne, S. Lehtola, F. März, M. Müller,
   F. Musil, H. Neugebauer, J. Pisarek, C. Plett, P. Pracht, F. Pultar,
   J. Seibert, P. Shushkov, S. Spicher, M. Stahn, M. Steiner, T. Strunk,
   J. Stückrath, T. Rose, and J. Unsleber
   
 * started run on 2025/05/15 at 16:15:55.183     
   ID    Z sym.   atoms
    1    8 O      1, 3, 21
    2    6 C      2, 4, 5, 7-9, 11, 12, 14-16, 18-20, 22-24
    3    7 N      6, 10, 13
    4    9 F      17
    5    1 H      25-42

           -------------------------------------------------
          |                Calculation Setup                |
           -------------------------------------------------

          program call               : xtb /rds/general/user/hgt20/home/callum/QDESCP/Ciprofloxacin_rdkit_conf_15/Ciprofloxacin_rdkit_conf_15.xyz --opt normal --acc 1 --gfn 2 --chrg 0 --uhf 0 -P 1
          hostname                   : login-c
          coordinate file            : /rds/general/user/hgt20/home/callum/QDESCP/Ciprofloxacin_rdkit_conf_15/Ciprofloxacin_rdkit_conf_15.xyz
          omp threads                :                     1


           -------------------------------------------------
          |                 G F N 2 - x T B                 |
           -------------------------------------------------

        Reference                      10.1021/acs.jctc.8b01176
      * Hamiltonian:
        H0-scaling (s, p, d)           1.850000    2.230000    2.230000
        zeta-weighting                 0.500000
      * Dispersion:
        s8                             2.700000
        a1                             0.520000
        a2                             5.000000
        s9                             5.000000
      * Repulsion:
        kExp                           1.500000    1.000000
        rExp                           1.000000
      * Coulomb:
        alpha                          2.000000
        third order                    shell-resolved
        anisotropic                    true
        a3                             3.000000
        a5                             4.000000
        cn-shift                       1.200000
        cn-exp                         4.000000
        max-rad                        5.000000


          ...................................................
          :                      SETUP                      :
          :.................................................:
          :  # basis functions                 114          :
          :  # atomic orbitals                 114          :
          :  # shells                           66          :
          :  # electrons                       126          :
          :  max. iterations                   250          :
          :  Hamiltonian                  GFN2-xTB          :
          :  restarted?                      false          :
          :  GBSA solvation                  false          :
          :  PC potential                    false          :
          :  electronic temp.          300.0000000     K    :
          :  accuracy                    1.0000000          :
          :  -> integral cutoff          0.2500000E+02      :
          :  -> integral neglect         0.1000000E-07      :
          :  -> SCF convergence          0.1000000E-05 Eh   :
          :  -> wf. convergence          0.1000000E-03 e    :
          :  Broyden damping             0.4000000          :
          :  net charge                          0          :
          :  unpaired electrons                  0          :
          ...................................................

 iter      E             dE          RMSdq      gap      omega  full diag
   1    -71.9674686 -0.719675E+02  0.422E+00    2.48       0.0  T
   2    -72.0863266 -0.118858E+00  0.259E+00    2.15       1.0  T
   3    -72.1001885 -0.138619E-01  0.153E+00    2.61       1.0  T
   4    -72.1205427 -0.203543E-01  0.452E-01    2.46       1.0  T
   5    -72.1269000 -0.635727E-02  0.114E-01    2.47       1.0  T
   6    -72.1271144 -0.214384E-03  0.532E-02    2.48       1.0  T
   7    -72.1271472 -0.328414E-04  0.235E-02    2.48       1.0  T
   8    -72.1271492 -0.199782E-05  0.966E-03    2.48       1.6  T
   9    -72.1271513 -0.203213E-05  0.426E-03    2.49       3.6  T
  10    -72.1271514 -0.150143E-06  0.164E-03    2.48       9.4  T
  11    -72.1271515 -0.485312E-07  0.732E-04    2.48      21.1  T
  12    -72.1271515 -0.715556E-08  0.305E-04    2.48      50.5  T

   *** convergence criteria satisfied after 12 iterations ***

         #    Occupation            Energy/Eh            Energy/eV
      -------------------------------------------------------------
         1        2.0000           -0.8214665             -22.3532
       ...           ...                  ...                  ...
        57        2.0000           -0.4354620             -11.8495
        58        2.0000           -0.4255249             -11.5791
        59        2.0000           -0.4144714             -11.2783
        60        2.0000           -0.3908544             -10.6357
        61        2.0000           -0.3815920             -10.3836
        62        2.0000           -0.3759227             -10.2294
        63        2.0000           -0.3699265             -10.0662 (HOMO)
        64                         -0.2786255              -7.5818 (LUMO)
        65                         -0.2664541              -7.2506
        66                         -0.2344847              -6.3807
        67                         -0.2107515              -5.7348
        68                         -0.1465905              -3.9889
       ...                                ...                  ...
       114                          0.6870976              18.6969
      -------------------------------------------------------------
                  HL-Gap            0.0913010 Eh            2.4844 eV
             Fermi-level           -0.3242760 Eh           -8.8240 eV

 SCC (total)                   0 d,  0 h,  0 min,  0.101 sec
 SCC setup                      ...        0 min,  0.000 sec (  0.358%)
 Dispersion                     ...        0 min,  0.000 sec (  0.475%)
 classical contributions        ...        0 min,  0.000 sec (  0.145%)
 integral evaluation            ...        0 min,  0.008 sec (  7.872%)
 iterations                     ...        0 min,  0.027 sec ( 27.073%)
 molecular gradient             ...        0 min,  0.065 sec ( 63.875%)
 printout                       ...        0 min,  0.000 sec (  0.194%)

         :::::::::::::::::::::::::::::::::::::::::::::::::::::
         ::                     SUMMARY                     ::
         :::::::::::::::::::::::::::::::::::::::::::::::::::::
         :: total energy             -71.287797720204 Eh    ::
         :: gradient norm              0.083609495197 Eh/a0 ::
         :: HOMO-LUMO gap              2.484427246927 eV    ::
         ::.................................................::
         :: SCC energy               -72.127070058764 Eh    ::
         :: -> isotropic ES            0.105882154778 Eh    ::
         :: -> anisotropic ES          0.008127293937 Eh    ::
         :: -> anisotropic XC          0.020840739374 Eh    ::
         :: -> dispersion             -0.045172617827 Eh    ::
         :: repulsion energy           0.839272338561 Eh    ::
         :: add. restraining           0.000000000000 Eh    ::
         :: total charge               0.000000000000 e     ::
         :::::::::::::::::::::::::::::::::::::::::::::::::::::

      ----------------------------------------------------------- 
     |                   =====================                   |
     |                        A N C O P T                        |
     |                   =====================                   |
     |               Approximate Normal Coordinate               |
     |                Rational Function Optimizer                |
      ----------------------------------------------------------- 
      ----------------------------------------------------------- 
     |                   =====================                   |
     |                        A N C O P T                        |
     |                   =====================                   |
     |               Approximate Normal Coordinate               |
     |                Rational Function Optimizer                |
      ----------------------------------------------------------- 

          ...................................................
          :                      SETUP                      :
          :.................................................:
          :   optimization level            normal          :
          :   max. optcycles                   200          :
          :   ANC micro-cycles                  20          :
          :   degrees of freedom               120          :
          :.................................................:
          :   RF solver                   davidson          :
          :   write xtbopt.log                true          :
          :   linear?                        false          :
          :   energy convergence         0.5000000E-05 Eh   :
          :   grad. convergence          0.1000000E-02 Eh/α :
          :   maxmium RF displ.          1.0000000          :
          :   Hlow (freq-cutoff)         0.1000000E-01      :
          :   Hmax (freq-cutoff)         5.0000000          :
          :   S6 in model hess.         20.0000000          :
          ...................................................

generating ANC from exact Hessian ...
Using Lindh-Hessian (1995)
 Shifting diagonal of input Hessian by    9.6214024742315319E-003
 Lowest  eigenvalues of input Hessian
    0.000000    0.000000    0.000000    0.000000    0.000000    0.000000
    0.010000    0.010285    0.010701    0.011502    0.012025    0.012233
    0.012884    0.014759    0.015704    0.017186    0.019038    0.019931
 Highest eigenvalues
    1.876106    1.972901    2.005101    2.093263    2.180374    2.354559


........................................................................
.............................. CYCLE    1 ..............................
........................................................................

 iter      E             dE          RMSdq      gap      omega  full diag
   1    -72.1271515 -0.721272E+02  0.128E-04    2.48       0.0  T
   2    -72.1271515 -0.143316E-09  0.790E-05    2.48     195.4  T
   3    -72.1271515 -0.857199E-10  0.474E-05    2.48     325.8  T
     SCC iter.                  ...        0 min,  0.007 sec
     gradient                   ...        0 min,  0.071 sec
 * total energy  :   -71.2877977 Eh     change       -0.1287944E-08 Eh
   gradient norm :     0.0836124 Eh/α   predicted     0.0000000E+00 (-100.00%)
   displ. norm   :     0.3669754 α      lambda       -0.1480692E-01
   maximum displ.:     0.1220904 α      in ANC's #15, #24, #37, ...

........................................................................
.............................. CYCLE    2 ..............................
........................................................................

 iter      E             dE          RMSdq      gap      omega  full diag
   1    -72.1657182 -0.721657E+02  0.226E-01    2.47       0.0  T
   2    -72.1660772 -0.358950E-03  0.151E-01    2.49       1.0  T
   3    -72.1661692 -0.920156E-04  0.848E-02    2.49       1.0  T
   4    -72.1662326 -0.634347E-04  0.283E-02    2.48       1.0  T
   5    -72.1662571 -0.244526E-04  0.550E-03    2.49       2.8  T
   6    -72.1662576 -0.553794E-06  0.241E-03    2.48       6.4  T
   7    -72.1662577 -0.430708E-07  0.108E-03    2.48      14.3  T
   8    -72.1662577 -0.752615E-08  0.403E-04    2.48      38.3  T
   9    -72.1662577 -0.261902E-08  0.140E-04    2.48     110.4  T
     SCC iter.                  ...        0 min,  0.019 sec
     gradient                   ...        0 min,  0.079 sec
 * total energy  :   -71.2983315 Eh     change       -0.1053381E-01 Eh
   gradient norm :     0.0344054 Eh/α   predicted    -0.8408404E-02 ( -20.18%)
   displ. norm   :     0.3718157 α      lambda       -0.5549390E-02
   maximum displ.:     0.1430392 α      in ANC's #15, #9, #13, ...

........................................................................
.............................. CYCLE    3 ..............................
........................................................................

 iter      E             dE          RMSdq      gap      omega  full diag
   1    -72.1910780 -0.721911E+02  0.163E-01    2.47       0.0  T
   2    -72.1913081 -0.230076E-03  0.110E-01    2.49       1.0  T
   3    -72.1913773 -0.692365E-04  0.616E-02    2.49       1.0  T
   4    -72.1913998 -0.224821E-04  0.224E-02    2.49       1.0  T
   5    -72.1914140 -0.141603E-04  0.427E-03    2.49       3.6  T
   6    -72.1914144 -0.387378E-06  0.178E-03    2.49       8.7  T
   7    -72.1914144 -0.276813E-07  0.791E-04    2.49      19.5  T
   8    -72.1914144 -0.342979E-08  0.316E-04    2.49      48.8  T
     SCC iter.                  ...        0 min,  0.017 sec
     gradient                   ...        0 min,  0.060 sec
 * total energy  :   -71.3015853 Eh     change       -0.3253791E-02 Eh
   gradient norm :     0.0085029 Eh/α   predicted    -0.3159353E-02 (  -2.90%)
   displ. norm   :     0.2354519 α      lambda       -0.8687070E-03
   maximum displ.:     0.1308462 α      in ANC's #9, #5, #15, ...

........................................................................
.............................. CYCLE    4 ..............................
........................................................................

 iter      E             dE          RMSdq      gap      omega  full diag
   1    -72.1955090 -0.721955E+02  0.562E-02    2.47       0.0  T
   2    -72.1955202 -0.112565E-04  0.346E-02    2.48       1.0  T
   3    -72.1955172  0.299906E-05  0.187E-02    2.48       1.0  T
   4    -72.1955242 -0.697886E-05  0.435E-03    2.48       3.5  T
   5    -72.1955248 -0.575391E-06  0.131E-03    2.48      11.8  T
   6    -72.1955248 -0.258101E-07  0.680E-04    2.48      22.7  T
   7    -72.1955248 -0.374438E-08  0.240E-04    2.48      64.4  T
     SCC iter.                  ...        0 min,  0.015 sec
     gradient                   ...        0 min,  0.024 sec
 * total energy  :   -71.3022370 Eh     change       -0.6516299E-03 Eh
   gradient norm :     0.0072428 Eh/α   predicted    -0.4584430E-03 ( -29.65%)
   displ. norm   :     0.3478631 α      lambda       -0.8009457E-03
   maximum displ.:     0.1907710 α      in ANC's #9, #5, #2, ...

........................................................................
.............................. CYCLE    5 ..............................
........................................................................

 iter      E             dE          RMSdq      gap      omega  full diag
   1    -72.1968222 -0.721968E+02  0.767E-02    2.46       0.0  T
   2    -72.1968293 -0.715877E-05  0.452E-02    2.47       1.0  T
   3    -72.1968227  0.660523E-05  0.165E-02    2.46       1.0  T
   4    -72.1968314 -0.862920E-05  0.305E-03    2.47       5.1  T
   5    -72.1968316 -0.199747E-06  0.139E-03    2.47      11.1  T
   6    -72.1968316 -0.569196E-08  0.724E-04    2.47      21.3  T
   7    -72.1968316 -0.109666E-07  0.230E-04    2.47      67.1  T
     SCC iter.                  ...        0 min,  0.015 sec
     gradient                   ...        0 min,  0.024 sec
 * total energy  :   -71.3027700 Eh     change       -0.5330155E-03 Eh
   gradient norm :     0.0053230 Eh/α   predicted    -0.4489400E-03 ( -15.77%)
   displ. norm   :     0.2682921 α      lambda       -0.3509908E-03
   maximum displ.:     0.1671718 α      in ANC's #5, #9, #2, ...

........................................................................
.............................. CYCLE    6 ..............................
........................................................................

 iter      E             dE          RMSdq      gap      omega  full diag
   1    -72.1965359 -0.721965E+02  0.584E-02    2.46       0.0  T
   2    -72.1965378 -0.190038E-05  0.340E-02    2.46       1.0  T
   3    -72.1965370  0.768815E-06  0.603E-03    2.46       2.6  T
   4    -72.1965382 -0.117584E-05  0.176E-03    2.46       8.8  T
   5    -72.1965383 -0.484859E-07  0.886E-04    2.46      17.4  T
   6    -72.1965383 -0.605215E-08  0.350E-04    2.46      44.0  T
     SCC iter.                  ...        0 min,  0.064 sec
     gradient                   ...        0 min,  0.024 sec
 * total energy  :   -71.3030167 Eh     change       -0.2467561E-03 Eh
   gradient norm :     0.0047241 Eh/α   predicted    -0.1881287E-03 ( -23.76%)
   displ. norm   :     0.2274961 α      lambda       -0.2461253E-03
   maximum displ.:     0.1426547 α      in ANC's #5, #2, #9, ...

........................................................................
.............................. CYCLE    7 ..............................
........................................................................

 iter      E             dE          RMSdq      gap      omega  full diag
   1    -72.1966847 -0.721967E+02  0.486E-02    2.45       0.0  T
   2    -72.1966855 -0.877842E-06  0.283E-02    2.45       1.0  T
   3    -72.1966853  0.250325E-06  0.399E-03    2.45       3.9  T
   4    -72.1966858 -0.467913E-06  0.131E-03    2.45      11.7  T
   5    -72.1966858 -0.208148E-07  0.700E-04    2.45      22.0  T
   6    -72.1966858 -0.665624E-08  0.263E-04    2.45      58.7  T
     SCC iter.                  ...        0 min,  0.013 sec
     gradient                   ...        0 min,  0.059 sec
 * total energy  :   -71.3032021 Eh     change       -0.1853624E-03 Eh
   gradient norm :     0.0038006 Eh/α   predicted    -0.1294329E-03 ( -30.17%)
   displ. norm   :     0.2512430 α      lambda       -0.2180112E-03
   maximum displ.:     0.1499719 α      in ANC's #5, #2, #7, ...

........................................................................
.............................. CYCLE    8 ..............................
........................................................................

 iter      E             dE          RMSdq      gap      omega  full diag
   1    -72.1968578 -0.721969E+02  0.529E-02    2.45       0.0  T
   2    -72.1968587 -0.916243E-06  0.307E-02    2.45       1.0  T
   3    -72.1968586  0.757392E-07  0.353E-03    2.45       4.4  T
   4    -72.1968589 -0.318825E-06  0.120E-03    2.45      12.9  T
   5    -72.1968590 -0.890746E-08  0.566E-04    2.45      27.3  T
   6    -72.1968590 -0.295320E-08  0.196E-04    2.45      78.6  T
     SCC iter.                  ...        0 min,  0.013 sec
     gradient                   ...        0 min,  0.069 sec
 * total energy  :   -71.3033632 Eh     change       -0.1610723E-03 Eh
   gradient norm :     0.0035304 Eh/α   predicted    -0.1158882E-03 ( -28.05%)
   displ. norm   :     0.2618030 α      lambda       -0.1653937E-03
   maximum displ.:     0.1491938 α      in ANC's #2, #5, #1, ...

........................................................................
.............................. CYCLE    9 ..............................
........................................................................

 iter      E             dE          RMSdq      gap      omega  full diag
   1    -72.1969270 -0.721969E+02  0.531E-02    2.44       0.0  T
   2    -72.1969280 -0.925192E-06  0.308E-02    2.44       1.0  T
   3    -72.1969279  0.272485E-07  0.324E-03    2.44       4.8  T
   4    -72.1969282 -0.276988E-06  0.132E-03    2.44      11.7  T
   5    -72.1969282 -0.141832E-07  0.667E-04    2.44      23.1  T
   6    -72.1969282 -0.497231E-08  0.194E-04    2.44      79.4  T
     SCC iter.                  ...        0 min,  0.013 sec
     gradient                   ...        0 min,  0.024 sec
 * total energy  :   -71.3034911 Eh     change       -0.1279282E-03 Eh
   gradient norm :     0.0033785 Eh/α   predicted    -0.8836732E-04 ( -30.92%)
   displ. norm   :     0.2729702 α      lambda       -0.1541601E-03
   maximum displ.:     0.1645445 α      in ANC's #2, #5, #1, ...

........................................................................
.............................. CYCLE   10 ..............................
........................................................................

 iter      E             dE          RMSdq      gap      omega  full diag
   1    -72.1973609 -0.721974E+02  0.545E-02    2.43       0.0  T
   2    -72.1973623 -0.139553E-05  0.316E-02    2.43       1.0  T
   3    -72.1973611  0.112559E-05  0.685E-03    2.43       2.3  T
   4    -72.1973627 -0.158107E-05  0.159E-03    2.44       9.7  T
   5    -72.1973628 -0.303939E-07  0.824E-04    2.44      18.7  T
   6    -72.1973628 -0.298833E-08  0.326E-04    2.44      47.3  T
     SCC iter.                  ...        0 min,  0.013 sec
     gradient                   ...        0 min,  0.024 sec
 * total energy  :   -71.3036149 Eh     change       -0.1238133E-03 Eh
   gradient norm :     0.0029668 Eh/α   predicted    -0.8282718E-04 ( -33.10%)
   displ. norm   :     0.2865777 α      lambda       -0.1490067E-03
   maximum displ.:     0.1788747 α      in ANC's #2, #1, #5, ...

........................................................................
.............................. CYCLE   11 ..............................
........................................................................

 iter      E             dE          RMSdq      gap      omega  full diag
   1    -72.1978535 -0.721979E+02  0.571E-02    2.42       0.0  T
   2    -72.1978561 -0.259836E-05  0.330E-02    2.43       1.0  T
   3    -72.1978531  0.298933E-05  0.111E-02    2.43       1.4  T
   4    -72.1978570 -0.392100E-05  0.194E-03    2.43       7.9  T
   5    -72.1978571 -0.640754E-07  0.984E-04    2.43      15.7  T
   6    -72.1978571 -0.266414E-08  0.475E-04    2.43      32.5  T
     SCC iter.                  ...        0 min,  0.058 sec
     gradient                   ...        0 min,  0.024 sec
 * total energy  :   -71.3037328 Eh     change       -0.1179209E-03 Eh
   gradient norm :     0.0028847 Eh/α   predicted    -0.8062434E-04 ( -31.63%)
   displ. norm   :     0.2768581 α      lambda       -0.1202650E-03
   maximum displ.:     0.1779974 α      in ANC's #2, #1, #3, ...

........................................................................
.............................. CYCLE   12 ..............................
........................................................................

 iter      E             dE          RMSdq      gap      omega  full diag
   1    -72.1983460 -0.721983E+02  0.545E-02    2.41       0.0  T
   2    -72.1983494 -0.337112E-05  0.315E-02    2.42       1.0  T
   3    -72.1983457  0.372054E-05  0.129E-02    2.42       1.2  T
   4    -72.1983507 -0.501368E-05  0.205E-03    2.43       7.5  T
   5    -72.1983508 -0.816791E-07  0.101E-03    2.43      15.3  T
   6    -72.1983508 -0.400559E-08  0.519E-04    2.43      29.7  T
   7    -72.1983508 -0.578336E-08  0.131E-04    2.43     118.0  T
     SCC iter.                  ...        0 min,  0.060 sec
     gradient                   ...        0 min,  0.023 sec
 * total energy  :   -71.3038229 Eh     change       -0.9007001E-04 Eh
   gradient norm :     0.0027721 Eh/α   predicted    -0.6474462E-04 ( -28.12%)
   displ. norm   :     0.2301420 α      lambda       -0.7443828E-04
   maximum displ.:     0.1523527 α      in ANC's #2, #1, #3, ...

........................................................................
.............................. CYCLE   13 ..............................
........................................................................

 iter      E             dE          RMSdq      gap      omega  full diag
   1    -72.1986905 -0.721987E+02  0.441E-02    2.41       0.0  T
   2    -72.1986932 -0.273730E-05  0.253E-02    2.42       1.0  T
   3    -72.1986905  0.273051E-05  0.115E-02    2.42       1.3  T
   4    -72.1986943 -0.384405E-05  0.175E-03    2.42       8.8  T
   5    -72.1986944 -0.615420E-07  0.850E-04    2.42      18.2  T
   6    -72.1986944 -0.284605E-08  0.437E-04    2.42      35.3  T
     SCC iter.                  ...        0 min,  0.013 sec
     gradient                   ...        0 min,  0.069 sec
 * total energy  :   -71.3038781 Eh     change       -0.5516731E-04 Eh
   gradient norm :     0.0024006 Eh/α   predicted    -0.3919743E-04 ( -28.95%)
   displ. norm   :     0.1936302 α      lambda       -0.5417705E-04
   maximum displ.:     0.1314522 α      in ANC's #2, #1, #3, ...

........................................................................
.............................. CYCLE   14 ..............................
........................................................................

 iter      E             dE          RMSdq      gap      omega  full diag
   1    -72.1992707 -0.721993E+02  0.354E-02    2.41       0.0  T
   2    -72.1992728 -0.208171E-05  0.202E-02    2.42       1.0  T
   3    -72.1992710  0.174035E-05  0.974E-03    2.42       1.6  T
   4    -72.1992736 -0.258908E-05  0.146E-03    2.42      10.5  T
   5    -72.1992737 -0.433948E-07  0.710E-04    2.42      21.7  T
   6    -72.1992737 -0.193172E-08  0.352E-04    2.42      43.9  T
     SCC iter.                  ...        0 min,  0.013 sec
     gradient                   ...        0 min,  0.066 sec
 * total energy  :   -71.3039191 Eh     change       -0.4101280E-04 Eh
   gradient norm :     0.0018319 Eh/α   predicted    -0.2810471E-04 ( -31.47%)
   displ. norm   :     0.3377546 α      lambda       -0.5307899E-04
   maximum displ.:     0.2264738 α      in ANC's #2, #1, #3, ...

........................................................................
.............................. CYCLE   15 ..............................
........................................................................

 iter      E             dE          RMSdq      gap      omega  full diag
   1    -72.1984375 -0.721984E+02  0.600E-02    2.41       0.0  T
   2    -72.1984431 -0.558764E-05  0.342E-02    2.42       1.0  T
   3    -72.1984384  0.471231E-05  0.157E-02    2.42       1.0  T
   4    -72.1984453 -0.690338E-05  0.239E-03    2.42       6.5  T
   5    -72.1984454 -0.110684E-06  0.117E-03    2.42      13.2  T
   6    -72.1984454 -0.272446E-08  0.546E-04    2.42      28.3  T
   7    -72.1984454 -0.823734E-08  0.115E-04    2.42     134.4  T
     SCC iter.                  ...        0 min,  0.015 sec
     gradient                   ...        0 min,  0.024 sec
 * total energy  :   -71.3039649 Eh     change       -0.4582207E-04 Eh
   gradient norm :     0.0030924 Eh/α   predicted    -0.2788771E-04 ( -39.14%)
   displ. norm   :     0.1369581 α      lambda       -0.5300920E-04
   maximum displ.:     0.0860072 α      in ANC's #2, #1, #4, ...

........................................................................
.............................. CYCLE   16 ..............................
........................................................................

 iter      E             dE          RMSdq      gap      omega  full diag
   1    -72.2001850 -0.722002E+02  0.263E-02    2.41       0.0  T
   2    -72.2001859 -0.903828E-06  0.151E-02    2.42       1.0  T
   3    -72.2001850  0.850164E-06  0.650E-03    2.42       2.4  T
   4    -72.2001862 -0.119362E-05  0.106E-03    2.42      14.5  T
   5    -72.2001862 -0.198647E-07  0.519E-04    2.42      29.7  T
   6    -72.2001862 -0.962004E-09  0.225E-04    2.42      68.7  T
     SCC iter.                  ...        0 min,  0.013 sec
     gradient                   ...        0 min,  0.024 sec
 * total energy  :   -71.3039926 Eh     change       -0.2770822E-04 Eh
   gradient norm :     0.0029985 Eh/α   predicted    -0.2700249E-04 (  -2.55%)
   displ. norm   :     0.1393927 α      lambda       -0.3697161E-04
   maximum displ.:     0.0854490 α      in ANC's #2, #1, #4, ...

........................................................................
.............................. CYCLE   17 ..............................
........................................................................

 iter      E             dE          RMSdq      gap      omega  full diag
   1    -72.1996942 -0.721997E+02  0.261E-02    2.41       0.0  T
   2    -72.1996948 -0.599907E-06  0.151E-02    2.42       1.0  T
   3    -72.1996942  0.565653E-06  0.499E-03    2.42       3.1  T
   4    -72.1996950 -0.766468E-06  0.881E-04    2.42      17.5  T
   5    -72.1996950 -0.108420E-07  0.441E-04    2.42      35.0  T
     SCC iter.                  ...        0 min,  0.062 sec
     gradient                   ...        0 min,  0.024 sec
 * total energy  :   -71.3040220 Eh     change       -0.2939366E-04 Eh
   gradient norm :     0.0019467 Eh/α   predicted    -0.1884679E-04 ( -35.88%)
   displ. norm   :     0.3063098 α      lambda       -0.4225866E-04
   maximum displ.:     0.1815958 α      in ANC's #2, #1, #4, ...

........................................................................
.............................. CYCLE   18 ..............................
........................................................................

 iter      E             dE          RMSdq      gap      omega  full diag
   1    -72.1984543 -0.721985E+02  0.604E-02    2.40       0.0  T
   2    -72.1984569 -0.260031E-05  0.351E-02    2.41       1.0  T
   3    -72.1984546  0.238820E-05  0.103E-02    2.41       1.5  T
   4    -72.1984578 -0.322521E-05  0.191E-03    2.41       8.1  T
   5    -72.1984578 -0.478894E-07  0.967E-04    2.41      16.0  T
   6    -72.1984578 -0.325095E-08  0.394E-04    2.41      39.2  T
     SCC iter.                  ...        0 min,  0.013 sec
     gradient                   ...        0 min,  0.064 sec
 * total energy  :   -71.3040459 Eh     change       -0.2389343E-04 Eh
   gradient norm :     0.0022869 Eh/α   predicted    -0.2201544E-04 (  -7.86%)
   displ. norm   :     0.0587897 α      lambda       -0.1569466E-04
   maximum displ.:     0.0363819 α      in ANC's #2, #3, #1, ...

........................................................................
.............................. CYCLE   19 ..............................
........................................................................

 iter      E             dE          RMSdq      gap      omega  full diag
   1    -72.1995462 -0.721995E+02  0.119E-02    2.41       0.0  T
   2    -72.1995463 -0.141068E-06  0.679E-03    2.41       2.3  T
   3    -72.1995461  0.162672E-06  0.261E-03    2.41       5.9  T
   4    -72.1995464 -0.213455E-06  0.466E-04    2.41      33.1  T
   5    -72.1995464 -0.399142E-08  0.229E-04    2.41      67.2  T
     SCC iter.                  ...        0 min,  0.011 sec
     gradient                   ...        0 min,  0.075 sec
 * total energy  :   -71.3040569 Eh     change       -0.1105775E-04 Eh
   gradient norm :     0.0015384 Eh/α   predicted    -0.7877185E-05 ( -28.76%)
   displ. norm   :     0.0658758 α      lambda       -0.1637038E-04
   maximum displ.:     0.0307641 α      in ANC's #7, #9, #5, ...

........................................................................
.............................. CYCLE   20 ..............................
........................................................................

 iter      E             dE          RMSdq      gap      omega  full diag
   1    -72.2003425 -0.722003E+02  0.173E-02    2.41       0.0  T
   2    -72.2003426 -0.972488E-07  0.101E-02    2.41       1.5  T
   3    -72.2003425  0.125203E-06  0.213E-03    2.41       7.3  T
   4    -72.2003426 -0.166758E-06  0.449E-04    2.41      34.4  T
   5    -72.2003427 -0.182857E-08  0.255E-04    2.41      60.5  T
     SCC iter.                  ...        0 min,  0.011 sec
     gradient                   ...        0 min,  0.024 sec
 * total energy  :   -71.3040692 Eh     change       -0.1222134E-04 Eh
   gradient norm :     0.0013849 Eh/α   predicted    -0.8209326E-05 ( -32.83%)
   displ. norm   :     0.0962593 α      lambda       -0.7922366E-05
   maximum displ.:     0.0596155 α      in ANC's #1, #2, #4, ...
 * RMSD in coord.:     0.5371756 α      energy gain  -0.1627145E-01 Eh

generating ANC from exact Hessian ...
Using Lindh-Hessian (1995)
 Shifting diagonal of input Hessian by    9.5566107783536854E-003
 Lowest  eigenvalues of input Hessian
    0.000000    0.000000    0.000000    0.000000    0.000000    0.000000
    0.010000    0.010247    0.010854    0.011639    0.012307    0.012463
    0.013332    0.014878    0.016136    0.018120    0.020018    0.020940
 Highest eigenvalues
    1.973882    2.067701    2.103487    2.206115    2.279507    2.417430


........................................................................
.............................. CYCLE   21 ..............................
........................................................................

 iter      E             dE          RMSdq      gap      omega  full diag
   1    -72.2001019 -0.722001E+02  0.203E-02    2.41       0.0  T
   2    -72.2001021 -0.287530E-06  0.119E-02    2.41       1.3  T
   3    -72.2001017  0.446956E-06  0.395E-03    2.41       3.9  T
   4    -72.2001023 -0.563505E-06  0.643E-04    2.41      24.0  T
   5    -72.2001023 -0.764706E-08  0.335E-04    2.41      46.1  T
     SCC iter.                  ...        0 min,  0.011 sec
     gradient                   ...        0 min,  0.081 sec
 * total energy  :   -71.3040763 Eh     change       -0.7121091E-05 Eh
   gradient norm :     0.0010337 Eh/α   predicted     0.0000000E+00 (-100.00%)
   displ. norm   :     0.0140357 α      lambda       -0.1074036E-05
   maximum displ.:     0.0101716 α      in ANC's #1, #3, #4, ...

........................................................................
.............................. CYCLE   22 ..............................
........................................................................

 iter      E             dE          RMSdq      gap      omega  full diag
   1    -72.1997254 -0.721997E+02  0.483E-03    2.41       0.0  T
   2    -72.1997255 -0.246756E-07  0.279E-03    2.41       5.5  T
   3    -72.1997254  0.973637E-08  0.722E-04    2.41      21.4  T
   4    -72.1997255 -0.134449E-07  0.198E-04    2.41      77.9  T
     SCC iter.                  ...        0 min,  0.009 sec
     gradient                   ...        0 min,  0.024 sec
 * total energy  :   -71.3040789 Eh     change       -0.2660505E-05 Eh
   gradient norm :     0.0003082 Eh/α   predicted    -0.1554445E-05 ( -41.57%)
   displ. norm   :     0.0155204 α      lambda       -0.1049888E-05
   maximum displ.:     0.0124263 α      in ANC's #1, #3, #4, ...

   *** GEOMETRY OPTIMIZATION CONVERGED AFTER 22 ITERATIONS ***

------------------------------------------------------------------------
 total energy gain   :        -0.0162812 Eh      -10.2166 kcal/mol
 total RMSD          :         0.5375221 a0        0.2844 Å
 total power (kW/mol):        -1.9430163 (step)  -23.2607 (real)
------------------------------------------------------------------------

 ANCopt (total)                0 d,  0 h,  0 min,  1.838 sec
 optimizer setup                ...        0 min,  0.000 sec (  0.004%)
 model hessian                  ...        0 min,  0.061 sec (  3.333%)
 ANC generation                 ...        0 min,  0.003 sec (  0.160%)
 coordinate transformation      ...        0 min,  0.000 sec (  0.009%)
 single point calculation       ...        0 min,  1.766 sec ( 96.081%)
 optimization log               ...        0 min,  0.003 sec (  0.182%)
 hessian update                 ...        0 min,  0.000 sec (  0.015%)
 rational function              ...        0 min,  0.003 sec (  0.177%)

================
 final structure:
================
42
 xtb: 6.7.1 (edcfbbe)
O            5.08413387268023       -0.13264823857397        3.76259592735200
C            4.86599202316246        0.01924136366006        2.59245510016244
O            5.88519298306314        0.16255572417356        1.70289057035947
C            3.54834082841683        0.05457155546455        1.93679046940585
C            3.46317526191329       -0.18034104771119        0.59983039313598
N            2.31114311274275       -0.20963085126266       -0.09904373211491
C            1.10083837503697       -0.08123252562237        0.56482400548195
C           -0.10828875784703       -0.24567129556274       -0.10909416125962
C           -1.34271967209101       -0.11659901192396        0.52966345986911
N           -2.53352061126992       -0.22138542309574       -0.14878296890823
C           -3.64391762529263       -0.98969968494561        0.38525606825761
C           -4.96818311801824       -0.35620752925232       -0.05688805459974
N           -5.06585355917779       -0.24893105691104       -1.50004346682020
C           -3.92147169441331        0.46716772369772       -2.02016301328471
C           -2.57302827664898       -0.14180961517786       -1.59266316511013
C           -1.29941030045246        0.20026927990942        1.90536272191830
F           -2.45397569499438        0.40994468793908        2.58552836864802
C           -0.12340143262011        0.33604402590271        2.58897431136320
C            1.10536239644103        0.19319153936501        1.93988645728811
C            2.34418287090675        0.33519295476547        2.72520854174140
O            2.33593512868837        0.66323264092423        3.89580814026481
C            2.35613770142671       -0.42035452061687       -1.51587040479524
C            1.88917435254775        0.67543775965626       -2.43186039021471
C            3.34698598205214        0.35228821772702       -2.33389517420607
H            6.72309891619293        0.12894060674763        2.18940171586497
H            4.36015090002224       -0.37287850719579        0.02883219802411
H           -0.08894413012190       -0.50742419666894       -1.15247952501072
H           -3.59732981796816       -1.03484940361630        1.46907418339659
H           -3.58978501153611       -2.02171759107556       -0.00358261550561
H           -5.03972298139089        0.65280089393294        0.35725331581674
H           -5.80706318047868       -0.94761225867543        0.31349899539816
H           -5.10613917208289       -1.17921193108252       -1.90919496070946
H           -3.98304382873003        0.49314461521053       -3.11002222780621
H           -3.97927449560714        1.49174042357732       -1.64189114368452
H           -2.45658821701546       -1.13879618130490       -2.05045992771245
H           -1.77097384555403        0.50755468688531       -1.94462306787762
H           -0.12423729523837        0.57591927761793        3.64095374810271
H            2.15059300109771       -1.44691767367467       -1.80696213458910
H            1.35048920540863        0.40247457215562       -3.32641961272329
H            1.54762831870817        1.59190757025190       -1.97563889065194
H            3.98253486606460        1.06065984702438       -1.82587831073178
H            3.82588262197778       -0.15246142263979       -3.15833174353613

 Bond Distances (Angstroems)
 ---------------------------
O1-C2=1.2000         C2-O1=1.2000         C2-O3=1.3604         C2-C4=1.4722         O3-C2=1.3604         O3-H25=0.9695        
C4-C2=1.4722         C4-C5=1.3601         C4-C20=1.4664        C5-C4=1.3601         C5-N6=1.3478         C5-H26=1.0806        
N6-C5=1.3478         N6-C7=1.3864         N6-C22=1.4331        C7-N6=1.3864         C7-C8=1.3940         C7-C19=1.4022        
C8-C7=1.3940         C8-C9=1.3959         C8-H27=1.0759        C9-C8=1.3959         C9-N10=1.3745        C9-C16=1.4124        
N10-C9=1.3745        N10-C11=1.4521       N10-C15=1.4466       C11-N10=1.4521       C11-C12=1.5331       C11-H28=1.0858       
C11-H29=1.1042       C12-C11=1.5331       C12-N13=1.4504       C12-H30=1.0930       C12-H31=1.0912       N13-C12=1.4504       
N13-C14=1.4467       N13-H32=1.0171       C14-N13=1.4467       C14-C15=1.5401       C14-H33=1.0919       C14-H34=1.0937       
C15-N10=1.4466       C15-C14=1.5401       C15-H35=1.1032       C15-H36=1.0903       C16-C9=1.4124        C16-F17=1.3563       
C16-C18=1.3670       F17-C16=1.3563       C18-C16=1.3670       C18-C19=1.3970       C18-H37=1.0790       C19-C7=1.4022        
C19-C18=1.3970       C19-C20=1.4736       C20-C4=1.4664        C20-C19=1.4736       C20-O21=1.2157       O21-C20=1.2157       
C22-N6=1.4331        C22-C23=1.5026       C22-C24=1.4993       C22-H38=1.0867       C23-C22=1.5026       C23-C24=1.4964       
C23-H39=1.0793       C23-H40=1.0792       C24-C22=1.4993       C24-C23=1.4964       C24-H41=1.0788       C24-H42=1.0788       
H25-O3=0.9695        H26-C5=1.0806        H27-C8=1.0759        H28-C11=1.0858       H29-C11=1.1042       H30-C12=1.0930       
H31-C12=1.0912       H32-N13=1.0171       H33-C14=1.0919       H34-C14=1.0937       H35-C15=1.1032       H36-C15=1.0903       
H37-C18=1.0790       H38-C22=1.0867       H39-C23=1.0793       H40-C23=1.0792       H41-C24=1.0788       H42-C24=1.0788       
 C  H  Rav=1.0870 sigma=0.0086  Rmin=1.0759  Rmax=1.1042    16
 C  C  Rav=1.4475 sigma=0.0584  Rmin=1.3601  Rmax=1.5401    15
 N  H  Rav=1.0171 sigma=0.0000  Rmin=1.0171  Rmax=1.0171     1
 N  C  Rav=1.4172 sigma=0.0386  Rmin=1.3478  Rmax=1.4521     8
 O  H  Rav=0.9695 sigma=0.0000  Rmin=0.9695  Rmax=0.9695     1
 O  C  Rav=1.2587 sigma=0.0722  Rmin=1.2000  Rmax=1.3604     3
 F  C  Rav=1.3563 sigma=0.0000  Rmin=1.3563  Rmax=1.3563     1

 selected bond angles (degree)
 --------------------
O3-C2-O1=120.98                C4-C2-O1=126.87                C4-C2-O3=112.14                H25-O3-C2=108.40               
C5-C4-C2=119.32                C20-C4-C2=120.01               C20-C4-C5=120.67               N6-C5-C4=124.54                
H26-C5-C4=119.88               H26-C5-N6=115.57               C7-N6-C5=119.73                C22-N6-C5=119.28               
C22-N6-C7=120.96               C8-C7-N6=120.98                C19-C7-N6=119.01               C19-C7-C8=120.00               
C9-C8-C7=122.34                H27-C8-C7=118.81               H27-C8-C9=118.83               N10-C9-C8=122.22               
C16-C9-C8=116.06               C16-C9-N10=121.63              C11-N10-C9=121.42              C15-N10-C9=120.81              
C15-N10-C11=112.04             

 selected dihedral angles (degree)
 ---------------------------------
H25-O3-C2-O1=359.26           H25-O3-C2-C4=180.16           C5-C4-C2-O1=200.28            C5-C4-C2-O3= 19.31            
C20-C4-C2-O1= 20.02           C20-C4-C2-O3=199.05           N6-C5-C4-C2=178.13            N6-C5-C4-C20=358.39           
H26-C5-C4-C2=358.93           H26-C5-C4-C20=179.19          C7-N6-C5-C4=355.61            C7-N6-C5-H26=174.84           
C22-N6-C5-C4=177.77           C22-N6-C5-H26=357.00          C8-C7-N6-C5=186.70            C8-C7-N6-C22=  4.50           
C19-C7-N6-C5=  5.48           C19-C7-N6-C22=183.29          C9-C8-C7-N6=180.31            C9-C8-C7-C19=  1.54           
H27-C8-C7-N6=  2.00           H27-C8-C7-C19=183.22          N10-C9-C8-C7=177.09           N10-C9-C8-H27=355.40          
C16-C9-C8-C7=  0.37           C16-C9-C8-H27=178.69          C11-N10-C9-C8=135.81          C11-N10-C9-C16=312.35         
C15-N10-C9-C8=344.62          C15-N10-C9-C16=161.15         
           -------------------------------------------------
          |                Final Singlepoint                |
           -------------------------------------------------

          ...................................................
          :                      SETUP                      :
          :.................................................:
          :  # basis functions                 114          :
          :  # atomic orbitals                 114          :
          :  # shells                           66          :
          :  # electrons                       126          :
          :  max. iterations                   250          :
          :  Hamiltonian                  GFN2-xTB          :
          :  restarted?                      false          :
          :  GBSA solvation                  false          :
          :  PC potential                    false          :
          :  electronic temp.          300.0000000     K    :
          :  accuracy                    1.0000000          :
          :  -> integral cutoff          0.2500000E+02      :
          :  -> integral neglect         0.1000000E-07      :
          :  -> SCF convergence          0.1000000E-05 Eh   :
          :  -> wf. convergence          0.1000000E-03 e    :
          :  Broyden damping             0.4000000          :
          :  net charge                          0          :
          :  unpaired electrons                  0          :
          ...................................................

 iter      E             dE          RMSdq      gap      omega  full diag
   1    -72.1997255 -0.721997E+02  0.830E-05    2.41       0.0  T
   2    -72.1997255 -0.356835E-10  0.534E-05    2.41     288.8  T
   3    -72.1997255 -0.370477E-10  0.322E-05    2.41     479.3  T

   *** convergence criteria satisfied after 3 iterations ***

         #    Occupation            Energy/Eh            Energy/eV
      -------------------------------------------------------------
         1        2.0000           -0.8167685             -22.2254
       ...           ...                  ...                  ...
        57        2.0000           -0.4377477             -11.9117
        58        2.0000           -0.4248301             -11.5602
        59        2.0000           -0.4122120             -11.2169
        60        2.0000           -0.3896673             -10.6034
        61        2.0000           -0.3825679             -10.4102
        62        2.0000           -0.3714326             -10.1072
        63        2.0000           -0.3620846              -9.8528 (HOMO)
        64                         -0.2734818              -7.4418 (LUMO)
        65                         -0.2603636              -7.0849
        66                         -0.2253914              -6.1332
        67                         -0.2039483              -5.5497
        68                         -0.1400458              -3.8108
       ...                                ...                  ...
       114                          0.7192145              19.5708
      -------------------------------------------------------------
                  HL-Gap            0.0886028 Eh            2.4110 eV
             Fermi-level           -0.3177832 Eh           -8.6473 eV

 SCC (total)                   0 d,  0 h,  0 min,  0.066 sec
 SCC setup                      ...        0 min,  0.000 sec (  0.459%)
 Dispersion                     ...        0 min,  0.000 sec (  0.453%)
 classical contributions        ...        0 min,  0.000 sec (  0.214%)
 integral evaluation            ...        0 min,  0.008 sec ( 11.697%)
 iterations                     ...        0 min,  0.006 sec (  9.867%)
 molecular gradient             ...        0 min,  0.051 sec ( 77.076%)
 printout                       ...        0 min,  0.000 sec (  0.224%)

         :::::::::::::::::::::::::::::::::::::::::::::::::::::
         ::                     SUMMARY                     ::
         :::::::::::::::::::::::::::::::::::::::::::::::::::::
         :: total energy             -71.304078949493 Eh    ::
         :: gradient norm              0.000309087340 Eh/a0 ::
         :: HOMO-LUMO gap              2.411005604271 eV    ::
         ::.................................................::
         :: SCC energy               -72.199623708485 Eh    ::
         :: -> isotropic ES            0.105716550361 Eh    ::
         :: -> anisotropic ES          0.007497956234 Eh    ::
         :: -> anisotropic XC          0.019228018307 Eh    ::
         :: -> dispersion             -0.046219385264 Eh    ::
         :: repulsion energy           0.895544758993 Eh    ::
         :: add. restraining           0.000000000000 Eh    ::
         :: total charge               0.000000000000 e     ::
         :::::::::::::::::::::::::::::::::::::::::::::::::::::

           -------------------------------------------------
          |                Property Printout                |
           -------------------------------------------------

    * Orbital Energies and Occupations

         #    Occupation            Energy/Eh            Energy/eV
      -------------------------------------------------------------
         1        2.0000           -0.8167685             -22.2254
       ...           ...                  ...                  ...
        51        2.0000           -0.4651065             -12.6562
        52        2.0000           -0.4632811             -12.6065
        53        2.0000           -0.4609739             -12.5437
        54        2.0000           -0.4590060             -12.4902
        55        2.0000           -0.4548063             -12.3759
        56        2.0000           -0.4468265             -12.1588
        57        2.0000           -0.4377477             -11.9117
        58        2.0000           -0.4248301             -11.5602
        59        2.0000           -0.4122120             -11.2169
        60        2.0000           -0.3896673             -10.6034
        61        2.0000           -0.3825679             -10.4102
        62        2.0000           -0.3714326             -10.1072
        63        2.0000           -0.3620846              -9.8528 (HOMO)
        64                         -0.2734818              -7.4418 (LUMO)
        65                         -0.2603636              -7.0849
        66                         -0.2253914              -6.1332
        67                         -0.2039483              -5.5497
        68                         -0.1400458              -3.8108
        69                         -0.0990967              -2.6966
        70                         -0.0788073              -2.1445
        71                         -0.0304682              -0.8291
        72                         -0.0187982              -0.5115
        73                          0.0345174               0.9393
        74                          0.0434046               1.1811
       ...                                ...                  ...
       114                          0.7192145              19.5708
      -------------------------------------------------------------
                  HL-Gap            0.0886028 Eh            2.4110 eV
             Fermi-level           -0.3177832 Eh           -8.6473 eV

     #   Z          covCN         q      C6AA      α(0)
     1   8 O        0.856    -0.387    21.418     6.205
     2   6 C        2.698     0.358    20.916     7.485
     3   8 O        1.659    -0.410    21.050     6.194
     4   6 C        2.955    -0.076    29.884     8.966
     5   6 C        2.875     0.028    27.371     8.577
     6   7 N        2.746    -0.010    21.453     6.879
     7   6 C        2.932     0.051    26.854     8.499
     8   6 C        2.928    -0.091    30.287     9.025
     9   6 C        2.905     0.054    26.792     8.487
    10   7 N        2.739    -0.095    23.098     7.138
    11   6 C        3.754    -0.002    20.669     6.483
    12   6 C        3.757     0.003    20.585     6.469
    13   7 N        2.678    -0.252    26.545     7.652
    14   6 C        3.757     0.005    20.553     6.464
    15   6 C        3.753    -0.003    20.691     6.486
    16   6 C        2.784     0.141    24.916     8.176
    17   9 F        0.787    -0.229    11.544     4.013
    18   6 C        2.921    -0.041    29.014     8.833
    19   6 C        2.982    -0.041    29.005     8.834
    20   6 C        2.830     0.224    23.299     7.910
    21   8 O        0.857    -0.388    21.434     6.207
    22   6 C        3.811     0.029    20.082     6.379
    23   6 C        3.806    -0.068    21.792     6.645
    24   6 C        3.806    -0.070    21.841     6.653
    25   1 H        0.804     0.326     0.647     1.264
    26   1 H        0.926     0.077     2.015     2.220
    27   1 H        0.926     0.045     2.388     2.416
    28   1 H        0.925     0.065     2.136     2.285
    29   1 H        0.923     0.019     2.742     2.590
    30   1 H        0.924     0.055     2.259     2.350
    31   1 H        0.924     0.043     2.415     2.430
    32   1 H        0.860     0.136     1.499     1.918
    33   1 H        0.924     0.039     2.457     2.451
    34   1 H        0.924     0.050     2.318     2.381
    35   1 H        0.923     0.020     2.730     2.584
    36   1 H        0.924     0.042     2.416     2.431
    37   1 H        0.926     0.093     1.846     2.125
    38   1 H        0.925     0.046     2.369     2.407
    39   1 H        0.926     0.047     2.354     2.399
    40   1 H        0.926     0.054     2.271     2.357
    41   1 H        0.926     0.058     2.218     2.329
    42   1 H        0.926     0.053     2.286     2.364

 Mol. C6AA /au·bohr⁶  :      20039.441323
 Mol. C8AA /au·bohr⁸  :     469268.145925
 Mol. α(0) /au        :        215.960345


Wiberg/Mayer (AO) data.
largest (>0.10) Wiberg bond orders for each atom

 ---------------------------------------------------------------------------
     #   Z sym  total        # sym  WBO       # sym  WBO       # sym  WBO
 ---------------------------------------------------------------------------
     1   8 O    2.056 --     2 C    1.762     3 O    0.163
     2   6 C    3.919 --     1 O    1.762     3 O    1.076     4 C    1.028
     3   8 O    2.148 --     2 C    1.076    25 H    0.870     1 O    0.163
     4   6 C    3.972 --     5 C    1.560    20 C    1.070     2 C    1.028
     5   6 C    3.963 --     4 C    1.560     6 N    1.251    26 H    0.953
     6   7 N    3.614 --     5 C    1.251     7 C    1.103    22 C    0.983
     7   6 C    3.963 --     8 C    1.361    19 C    1.304     6 N    1.103
     8   6 C    3.971 --     9 C    1.367     7 C    1.361    27 H    0.959
     9   6 C    3.978 --     8 C    1.367    16 C    1.254    10 N    1.165
    10   7 N    3.380 --     9 C    1.165    15 C    0.998    11 C    0.985
    11   6 C    3.974 --    12 C    0.989    10 N    0.985    28 H    0.969
                            29 H    0.963
    12   6 C    3.985 --    13 N    1.017    11 C    0.989    31 H    0.973
                            30 H    0.971
    13   7 N    3.079 --    14 C    1.024    12 C    1.017    32 H    0.956
    14   6 C    3.986 --    13 N    1.024    15 C    0.982    33 H    0.973
                            34 H    0.972
    15   6 C    3.981 --    10 N    0.998    14 C    0.982    36 H    0.970
                            35 H    0.964
    16   6 C    3.876 --    18 C    1.481     9 C    1.254    17 F    0.947
    17   9 F    1.078 --    16 C    0.947
    18   6 C    3.983 --    16 C    1.481    19 C    1.337    37 H    0.957
    19   6 C    3.978 --    18 C    1.337     7 C    1.304    20 C    1.052
    20   6 C    3.954 --    21 O    1.726     4 C    1.070    19 C    1.052
    21   8 O    2.033 --    20 C    1.726
    22   6 C    3.920 --     6 N    0.983    24 C    0.972    23 C    0.964
                            38 H    0.959
    23   6 C    3.941 --    24 C    0.985    39 H    0.979    40 H    0.979
                            22 C    0.964
    24   6 C    3.943 --    23 C    0.985    42 H    0.979    41 H    0.976
                            22 C    0.972
    25   1 H    0.893 --     3 O    0.870
    26   1 H    0.994 --     5 C    0.953
    27   1 H    0.997 --     8 C    0.959
    28   1 H    0.996 --    11 C    0.969
    29   1 H    0.997 --    11 C    0.963
    30   1 H    0.997 --    12 C    0.971
    31   1 H    0.998 --    12 C    0.973
    32   1 H    0.981 --    13 N    0.956
    33   1 H    0.998 --    14 C    0.973
    34   1 H    0.997 --    14 C    0.972
    35   1 H    0.997 --    15 C    0.964
    36   1 H    0.998 --    15 C    0.970
    37   1 H    0.990 --    18 C    0.957
    38   1 H    0.995 --    22 C    0.959
    39   1 H    0.997 --    23 C    0.979
    40   1 H    0.997 --    23 C    0.979
    41   1 H    0.997 --    24 C    0.976
    42   1 H    0.997 --    24 C    0.979
 ---------------------------------------------------------------------------

Topologies differ in total number of bonds
Writing topology from bond orders to xtbtopo.mol

molecular dipole:
                 x           y           z       tot (Debye)
 q only:       -0.923      -0.588      -3.966
   full:       -0.393      -1.059      -4.274      11.238
molecular quadrupole (traceless):
                xx          xy          yy          xz          yz          zz
 q only:       13.475       1.843       9.952     -24.963      -3.916     -23.426
  q+dip:       10.759       5.438      14.855     -26.410      -0.206     -25.614
   full:        9.839       5.702      17.468     -27.024      -2.117     -27.307

           -------------------------------------------------
          |                Geometry Summary                 |
           -------------------------------------------------

      molecular mass/u    :      331.3421713
   center of mass at/Å    :        0.4618525       0.0261406       0.6849007
  moments of inertia/u·Å² :        0.1062663E+04   0.3857202E+04   0.4804506E+04
rotational constants/cm⁻¹ :        0.1586357E-01   0.4370430E-02   0.3508713E-02

 * 41 selected distances

     #   Z          #   Z                                           value/Å
     1   8 O        2   6 C                                       1.1999526
     2   6 C        3   8 O                                       1.3603805
     4   6 C        5   6 C                                       1.3601102
     5   6 C        6   7 N                                       1.3477616
     6   7 N        7   6 C                                       1.3863782
     7   6 C        8   6 C                                       1.3939851
     8   6 C        9   6 C                                       1.3958836
     9   6 C       10   7 N                                       1.3745097
    10   7 N       11   6 C                                       1.4520628
    11   6 C       12   6 C                                       1.5331286
    12   6 C       13   7 N                                       1.4504295
    13   7 N       14   6 C                                       1.4466969
    10   7 N       15   6 C                                       1.4466111
    14   6 C       15   6 C                                       1.5401005 (max)
     9   6 C       16   6 C                                       1.4123845
    16   6 C       18   6 C                                       1.3670248
     7   6 C       19   6 C                                       1.4021862
    18   6 C       19   6 C                                       1.3969906
    20   6 C       21   8 O                                       1.2157227
     6   7 N       22   6 C                                       1.4331180
    22   6 C       23   6 C                                       1.5026156
    22   6 C       24   6 C                                       1.4993072
    23   6 C       24   6 C                                       1.4964084
     3   8 O       25   1 H                                       0.9694893 (min)
     5   6 C       26   1 H                                       1.0805902
     8   6 C       27   1 H                                       1.0758913
    11   6 C       28   1 H                                       1.0857582
    11   6 C       29   1 H                                       1.1041680
    12   6 C       30   1 H                                       1.0930367
    12   6 C       31   1 H                                       1.0911765
    13   7 N       32   1 H                                       1.0170794
    14   6 C       33   1 H                                       1.0919062
    14   6 C       34   1 H                                       1.0937002
    15   6 C       35   1 H                                       1.1032310
    15   6 C       36   1 H                                       1.0903400
    18   6 C       37   1 H                                       1.0789818
    22   6 C       38   1 H                                       1.0866532
    23   6 C       39   1 H                                       1.0793178
    23   6 C       40   1 H                                       1.0792168
    24   6 C       41   1 H                                       1.0787929
    24   6 C       42   1 H                                       1.0788003

 * 6 distinct bonds (by element types)

   Z      Z             #   av. dist./Å        max./Å        min./Å
   1 H    6 C          16     1.0869726     1.1041680     1.0758913
   6 C    6 C          12     1.4416771     1.5401005     1.3601102
   1 H    7 N           1     1.0170794     1.0170794     1.0170794
   6 C    7 N           8     1.4171960     1.4520628     1.3477616
   1 H    8 O           1     0.9694893     0.9694893     0.9694893
   6 C    8 O           3     1.2586852     1.3603805     1.1999526


optimized geometry written to: xtbopt.xyz


           -------------------------------------------------
          | TOTAL ENERGY              -71.304078949493 Eh   |
          | GRADIENT NORM               0.000309087340 Eh/α |
          | HOMO-LUMO GAP               2.411005604271 eV   |
           -------------------------------------------------

------------------------------------------------------------------------
 * finished run on 2025/05/15 at 16:15:57.236     
------------------------------------------------------------------------
 total:
 * wall-time:     0 d,  0 h,  0 min,  2.054 sec
 *  cpu-time:     0 d,  0 h,  0 min,  1.133 sec
 * ratio c/w:     0.552 speedup
 SCF:
 * wall-time:     0 d,  0 h,  0 min,  0.101 sec
 *  cpu-time:     0 d,  0 h,  0 min,  0.060 sec
 * ratio c/w:     0.592 speedup
 ANC optimizer:
 * wall-time:     0 d,  0 h,  0 min,  1.926 sec
 *  cpu-time:     0 d,  0 h,  0 min,  1.060 sec
 * ratio c/w:     0.551 speedup



----- Single-point -----
      -----------------------------------------------------------      
     |                   =====================                   |     
     |                           x T B                           |     
     |                   =====================                   |     
     |                         S. Grimme                         |     
     |          Mulliken Center for Theoretical Chemistry        |     
     |                    University of Bonn                     |     
      -----------------------------------------------------------      

   * xtb version 6.7.1 (edcfbbe) compiled by 'conda@3ef47c1a292c' on 2024-11-25

   xtb is free software: you can redistribute it and/or modify it under
   the terms of the GNU Lesser General Public License as published by
   the Free Software Foundation, either version 3 of the License, or
   (at your option) any later version.
   
   xtb is distributed in the hope that it will be useful,
   but WITHOUT ANY WARRANTY; without even the implied warranty of
   MERCHANTABILITY or FITNESS FOR A PARTICULAR PURPOSE.  See the
   GNU Lesser General Public License for more details.
   
   Cite this work as:
   * C. Bannwarth, E. Caldeweyher, S. Ehlert, A. Hansen, P. Pracht,
     J. Seibert, S. Spicher, S. Grimme, WIREs Comput. Mol. Sci., 2020, 11,
     e01493. DOI: 10.1002/wcms.1493
   
   for GFN2-xTB:
   * C. Bannwarth, S. Ehlert and S. Grimme., J. Chem. Theory Comput., 2019,
     15, 1652-1671. DOI: 10.1021/acs.jctc.8b01176
   for GFN1-xTB:
   * S. Grimme, C. Bannwarth, P. Shushkov, J. Chem. Theory Comput., 2017,
     13, 1989-2009. DOI: 10.1021/acs.jctc.7b00118
   for GFN0-xTB:
   * P. Pracht, E. Caldeweyher, S. Ehlert, S. Grimme, ChemRxiv, 2019, preprint.
     DOI: 10.26434/chemrxiv.8326202.v1
   for GFN-FF:
   * S. Spicher and S. Grimme, Angew. Chem. Int. Ed., 2020, 59, 15665-15673.
     DOI: 10.1002/anie.202004239
   
   for ALPB and GBSA implicit solvation:
   * S. Ehlert, M. Stahn, S. Spicher, S. Grimme, J. Chem. Theory Comput.,
     2021, 17, 4250-4261. DOI: 10.1021/acs.jctc.1c00471
   
   for ddCOSMO and CPCM-X implicit solvation:
   * M. Stahn, S. Ehlert, S. Grimme, J. Phys. Chem. A,
     2023, XX, XXXX-XXXX. DOI: 10.1021/acs.jpca.3c04382
   
   for DFT-D4:
   * E. Caldeweyher, C. Bannwarth and S. Grimme, J. Chem. Phys., 2017,
     147, 034112. DOI: 10.1063/1.4993215
   * E. Caldeweyher, S. Ehlert, A. Hansen, H. Neugebauer, S. Spicher,
     C. Bannwarth and S. Grimme, J. Chem. Phys., 2019, 150, 154122.
     DOI: 10.1063/1.5090222
   * E. Caldeweyher, J.-M. Mewes, S. Ehlert and S. Grimme, Phys. Chem. Chem. Phys.
     2020, 22, 8499-8512. DOI: 10.1039/D0CP00502A
   
   for sTDA-xTB:
   * S. Grimme and C. Bannwarth, J. Chem. Phys., 2016, 145, 054103.
     DOI: 10.1063/1.4959605
   
   in the mass-spec context:
   * V. Asgeirsson, C. Bauer and S. Grimme, Chem. Sci., 2017, 8, 4879.
     DOI: 10.1039/c7sc00601b
   * J. Koopman and S. Grimme, ACS Omega 2019, 4, 12, 15120-15133.
     DOI: 10.1021/acsomega.9b02011
   
   for metadynamics refer to:
   * S. Grimme, J. Chem. Theory Comput., 2019, 155, 2847-2862
     DOI: 10.1021/acs.jctc.9b00143
   
   for SPH calculations refer to:
   * S. Spicher and S. Grimme, J. Chem. Theory Comput., 2021, 17, 1701-1714
     DOI: 10.1021/acs.jctc.0c01306
   
   for ONIOM refer to:
   * C. Plett, A. Katbashev, S. Ehlert, S. Grimme, M. Bursch,
     Phys. Chem. Chem. Phys., 2023, 25, 17860-17868. DOI: 10.1039/D3CP02178E
   
   for DIPRO refer to:
   * J. Kohn, N. Gildemeister, S. Grimme, D. Fazzi, A. Hansen,
     J. Chem. Phys., 2023, just accepted.
   
   for PTB refer to:
   * S. Grimme, M. Mueller, A. Hansen, J. Chem. Phys., 2023, 158, 124111.
     DOI: 10.1063/5.0137838
   
   with help from (in alphabetical order)
   P. Atkinson, C. Bannwarth, F. Bohle, G. Brandenburg, E. Caldeweyher
   M. Checinski, S. Dohm, S. Ehlert, S. Ehrlich, I. Gerasimov, C. Hölzer
   A. Katbashev, J. Kohn, J. Koopman, C. Lavigne, S. Lehtola, F. März, M. Müller,
   F. Musil, H. Neugebauer, J. Pisarek, C. Plett, P. Pracht, F. Pultar,
   J. Seibert, P. Shushkov, S. Spicher, M. Stahn, M. Steiner, T. Strunk,
   J. Stückrath, T. Rose, and J. Unsleber
   
 * started run on 2025/05/15 at 16:15:57.320     
   ID    Z sym.   atoms
    1    8 O      1, 3, 21
    2    6 C      2, 4, 5, 7-9, 11, 12, 14-16, 18-20, 22-24
    3    7 N      6, 10, 13
    4    9 F      17
    5    1 H      25-42

           -------------------------------------------------
          |                Calculation Setup                |
           -------------------------------------------------

          program call               : xtb /rds/general/user/hgt20/home/callum/QDESCP/Ciprofloxacin_rdkit_conf_15/Ciprofloxacin_rdkit_conf_15.xyz --acc 1 --gfn 2 --chrg 0 --uhf 0 --etemp 300 --input /rds/general/user/hgt20/home/callum/QDESCP/Ciprofloxacin_rdkit_conf_15/Ciprofloxacin_rdkit_conf_15_xtb.inp -P 1
          hostname                   : login-c
          coordinate file            : /rds/general/user/hgt20/home/callum/QDESCP/Ciprofloxacin_rdkit_conf_15/Ciprofloxacin_rdkit_conf_15.xyz
          omp threads                :                     1


           -------------------------------------------------
          |                 G F N 2 - x T B                 |
           -------------------------------------------------

        Reference                      10.1021/acs.jctc.8b01176
      * Hamiltonian:
        H0-scaling (s, p, d)           1.850000    2.230000    2.230000
        zeta-weighting                 0.500000
      * Dispersion:
        s8                             2.700000
        a1                             0.520000
        a2                             5.000000
        s9                             5.000000
      * Repulsion:
        kExp                           1.500000    1.000000
        rExp                           1.000000
      * Coulomb:
        alpha                          2.000000
        third order                    shell-resolved
        anisotropic                    true
        a3                             3.000000
        a5                             4.000000
        cn-shift                       1.200000
        cn-exp                         4.000000
        max-rad                        5.000000

q/qsh data taken from xtbrestart
CAMM data taken from xtbrestart

          ...................................................
          :                      SETUP                      :
          :.................................................:
          :  # basis functions                 114          :
          :  # atomic orbitals                 114          :
          :  # shells                           66          :
          :  # electrons                       126          :
          :  max. iterations                   250          :
          :  Hamiltonian                  GFN2-xTB          :
          :  restarted?                       true          :
          :  GBSA solvation                  false          :
          :  PC potential                    false          :
          :  electronic temp.          300.0000000     K    :
          :  accuracy                    1.0000000          :
          :  -> integral cutoff          0.2500000E+02      :
          :  -> integral neglect         0.1000000E-07      :
          :  -> SCF convergence          0.1000000E-05 Eh   :
          :  -> wf. convergence          0.1000000E-03 e    :
          :  Broyden damping             0.4000000          :
          :  net charge                          0          :
          :  unpaired electrons                  0          :
          ...................................................

 iter      E             dE          RMSdq      gap      omega  full diag
   1    -72.1997255 -0.721997E+02  0.641E-06    2.41       0.0  T
   2    -72.1997255 -0.795808E-12  0.396E-06    2.41    3893.3  T
   3    -72.1997255 -0.383693E-12  0.225E-06    2.41    6864.9  T

   *** convergence criteria satisfied after 3 iterations ***

         #    Occupation            Energy/Eh            Energy/eV
      -------------------------------------------------------------
         1        2.0000           -0.8167684             -22.2254
       ...           ...                  ...                  ...
        57        2.0000           -0.4377477             -11.9117
        58        2.0000           -0.4248301             -11.5602
        59        2.0000           -0.4122119             -11.2169
        60        2.0000           -0.3896673             -10.6034
        61        2.0000           -0.3825679             -10.4102
        62        2.0000           -0.3714327             -10.1072
        63        2.0000           -0.3620847              -9.8528 (HOMO)
        64                         -0.2734816              -7.4418 (LUMO)
        65                         -0.2603636              -7.0849
        66                         -0.2253913              -6.1332
        67                         -0.2039483              -5.5497
        68                         -0.1400458              -3.8108
       ...                                ...                  ...
       114                          0.7192144              19.5708
      -------------------------------------------------------------
                  HL-Gap            0.0886031 Eh            2.4110 eV
             Fermi-level           -0.3177831 Eh           -8.6473 eV

 SCC (total)                   0 d,  0 h,  0 min,  0.059 sec
 SCC setup                      ...        0 min,  0.000 sec (  0.652%)
 Dispersion                     ...        0 min,  0.000 sec (  0.792%)
 classical contributions        ...        0 min,  0.000 sec (  0.257%)
 integral evaluation            ...        0 min,  0.008 sec ( 13.686%)
 iterations                     ...        0 min,  0.008 sec ( 13.440%)
 molecular gradient             ...        0 min,  0.042 sec ( 70.784%)
 printout                       ...        0 min,  0.000 sec (  0.376%)

         :::::::::::::::::::::::::::::::::::::::::::::::::::::
         ::                     SUMMARY                     ::
         :::::::::::::::::::::::::::::::::::::::::::::::::::::
         :: total energy             -71.304078949506 Eh    ::
         :: gradient norm              0.000309096138 Eh/a0 ::
         :: HOMO-LUMO gap              2.411012459394 eV    ::
         ::.................................................::
         :: SCC energy               -72.199623708499 Eh    ::
         :: -> isotropic ES            0.105716795944 Eh    ::
         :: -> anisotropic ES          0.007497920633 Eh    ::
         :: -> anisotropic XC          0.019228028142 Eh    ::
         :: -> dispersion             -0.046219387111 Eh    ::
         :: repulsion energy           0.895544758993 Eh    ::
         :: add. restraining           0.000000000000 Eh    ::
         :: total charge              -0.000000000000 e     ::
         :::::::::::::::::::::::::::::::::::::::::::::::::::::

           -------------------------------------------------
          |                Property Printout                |
           -------------------------------------------------

    * Orbital Energies and Occupations

         #    Occupation            Energy/Eh            Energy/eV
      -------------------------------------------------------------
         1        2.0000           -0.8167684             -22.2254
       ...           ...                  ...                  ...
        51        2.0000           -0.4651064             -12.6562
        52        2.0000           -0.4632809             -12.6065
        53        2.0000           -0.4609738             -12.5437
        54        2.0000           -0.4590060             -12.4902
        55        2.0000           -0.4548064             -12.3759
        56        2.0000           -0.4468264             -12.1588
        57        2.0000           -0.4377477             -11.9117
        58        2.0000           -0.4248301             -11.5602
        59        2.0000           -0.4122119             -11.2169
        60        2.0000           -0.3896673             -10.6034
        61        2.0000           -0.3825679             -10.4102
        62        2.0000           -0.3714327             -10.1072
        63        2.0000           -0.3620847              -9.8528 (HOMO)
        64                         -0.2734816              -7.4418 (LUMO)
        65                         -0.2603636              -7.0849
        66                         -0.2253913              -6.1332
        67                         -0.2039483              -5.5497
        68                         -0.1400458              -3.8108
        69                         -0.0990965              -2.6966
        70                         -0.0788073              -2.1445
        71                         -0.0304680              -0.8291
        72                         -0.0187982              -0.5115
        73                          0.0345175               0.9393
        74                          0.0434044               1.1811
       ...                                ...                  ...
       114                          0.7192144              19.5708
      -------------------------------------------------------------
                  HL-Gap            0.0886031 Eh            2.4110 eV
             Fermi-level           -0.3177831 Eh           -8.6473 eV

     #   Z          covCN         q      C6AA      α(0)
     1   8 O        0.856    -0.387    21.418     6.205
     2   6 C        2.698     0.358    20.916     7.485
[...]
   
   for ALPB and GBSA implicit solvation:
   * S. Ehlert, M. Stahn, S. Spicher, S. Grimme, J. Chem. Theory Comput.,
     2021, 17, 4250-4261. DOI: 10.1021/acs.jctc.1c00471
   
   for ddCOSMO and CPCM-X implicit solvation:
   * M. Stahn, S. Ehlert, S. Grimme, J. Phys. Chem. A,
     2023, XX, XXXX-XXXX. DOI: 10.1021/acs.jpca.3c04382
   
   for DFT-D4:
   * E. Caldeweyher, C. Bannwarth and S. Grimme, J. Chem. Phys., 2017,
     147, 034112. DOI: 10.1063/1.4993215
   * E. Caldeweyher, S. Ehlert, A. Hansen, H. Neugebauer, S. Spicher,
     C. Bannwarth and S. Grimme, J. Chem. Phys., 2019, 150, 154122.
     DOI: 10.1063/1.5090222
   * E. Caldeweyher, J.-M. Mewes, S. Ehlert and S. Grimme, Phys. Chem. Chem. Phys.
     2020, 22, 8499-8512. DOI: 10.1039/D0CP00502A
   
   for sTDA-xTB:
   * S. Grimme and C. Bannwarth, J. Chem. Phys., 2016, 145, 054103.
     DOI: 10.1063/1.4959605
   
   in the mass-spec context:
   * V. Asgeirsson, C. Bauer and S. Grimme, Chem. Sci., 2017, 8, 4879.
     DOI: 10.1039/c7sc00601b
   * J. Koopman and S. Grimme, ACS Omega 2019, 4, 12, 15120-15133.
     DOI: 10.1021/acsomega.9b02011
   
   for metadynamics refer to:
   * S. Grimme, J. Chem. Theory Comput., 2019, 155, 2847-2862
     DOI: 10.1021/acs.jctc.9b00143
   
   for SPH calculations refer to:
   * S. Spicher and S. Grimme, J. Chem. Theory Comput., 2021, 17, 1701-1714
     DOI: 10.1021/acs.jctc.0c01306
   
   for ONIOM refer to:
   * C. Plett, A. Katbashev, S. Ehlert, S. Grimme, M. Bursch,
     Phys. Chem. Chem. Phys., 2023, 25, 17860-17868. DOI: 10.1039/D3CP02178E
   
   for DIPRO refer to:
   * J. Kohn, N. Gildemeister, S. Grimme, D. Fazzi, A. Hansen,
     J. Chem. Phys., 2023, just accepted.
   
   for PTB refer to:
   * S. Grimme, M. Mueller, A. Hansen, J. Chem. Phys., 2023, 158, 124111.
     DOI: 10.1063/5.0137838
   
   with help from (in alphabetical order)
   P. Atkinson, C. Bannwarth, F. Bohle, G. Brandenburg, E. Caldeweyher
   M. Checinski, S. Dohm, S. Ehlert, S. Ehrlich, I. Gerasimov, C. Hölzer
   A. Katbashev, J. Kohn, J. Koopman, C. Lavigne, S. Lehtola, F. März, M. Müller,
   F. Musil, H. Neugebauer, J. Pisarek, C. Plett, P. Pracht, F. Pultar,
   J. Seibert, P. Shushkov, S. Spicher, M. Stahn, M. Steiner, T. Strunk,
   J. Stückrath, T. Rose, and J. Unsleber
   
 * started run on 2025/05/15 at 16:15:59.735     
   ID    Z sym.   atoms
    1    8 O      1, 3, 21
    2    6 C      2, 4, 5, 7-9, 11, 12, 14-16, 18-20, 22-24
    3    7 N      6, 10, 13
    4    9 F      17
    5    1 H      25-42

           -------------------------------------------------
          |                Calculation Setup                |
           -------------------------------------------------

          program call               : xtb /rds/general/user/hgt20/home/callum/QDESCP/Ciprofloxacin_rdkit_conf_15/Ciprofloxacin_rdkit_conf_15.xyz --acc 1 --gfn 2 --chrg 0 --uhf 2 --etemp 300 --input /rds/general/user/hgt20/home/callum/QDESCP/Ciprofloxacin_rdkit_conf_15/Ciprofloxacin_rdkit_conf_15_xtb.inp -P 1
          hostname                   : login-c
          coordinate file            : /rds/general/user/hgt20/home/callum/QDESCP/Ciprofloxacin_rdkit_conf_15/Ciprofloxacin_rdkit_conf_15.xyz
          omp threads                :                     1


           -------------------------------------------------
          |                 G F N 2 - x T B                 |
           -------------------------------------------------

        Reference                      10.1021/acs.jctc.8b01176
      * Hamiltonian:
        H0-scaling (s, p, d)           1.850000    2.230000    2.230000
        zeta-weighting                 0.500000
      * Dispersion:
        s8                             2.700000
        a1                             0.520000
        a2                             5.000000
        s9                             5.000000
      * Repulsion:
        kExp                           1.500000    1.000000
        rExp                           1.000000
      * Coulomb:
        alpha                          2.000000
        third order                    shell-resolved
        anisotropic                    true
        a3                             3.000000
        a5                             4.000000
        cn-shift                       1.200000
        cn-exp                         4.000000
        max-rad                        5.000000


          ...................................................
          :                      SETUP                      :
          :.................................................:
          :  # basis functions                 114          :
          :  # atomic orbitals                 114          :
          :  # shells                           66          :
          :  # electrons                       126          :
          :  max. iterations                   250          :
          :  Hamiltonian                  GFN2-xTB          :
          :  restarted?                      false          :
          :  GBSA solvation                  false          :
          :  PC potential                    false          :
          :  electronic temp.          300.0000000     K    :
          :  accuracy                    1.0000000          :
          :  -> integral cutoff          0.2500000E+02      :
          :  -> integral neglect         0.1000000E-07      :
          :  -> SCF convergence          0.1000000E-05 Eh   :
          :  -> wf. convergence          0.1000000E-03 e    :
          :  Broyden damping             0.4000000          :
          :  net charge                          0          :
          :  unpaired electrons                  2          :
          ...................................................

 iter      E             dE          RMSdq      gap      omega  full diag
   1    -71.8083889 -0.718084E+02  0.400E+00    0.21       0.0  T
   2    -71.8170481 -0.865915E-02  0.316E+00    0.16       1.0  T
   3    -71.9607254 -0.143677E+00  0.227E+00    0.58       1.0  T
   4    -71.9899493 -0.292239E-01  0.145E+00    0.38       1.0  T
   5    -71.9968854 -0.693609E-02  0.106E+00    0.19       1.0  T
   6    -72.0436148 -0.467294E-01  0.779E-01    0.23       1.0  T
   7    -72.0497316 -0.611683E-02  0.788E-01    0.16       1.0  T
   8    -72.0936821 -0.439505E-01  0.151E-01    0.15       1.0  T
   9    -72.0932875  0.394667E-03  0.146E-01    0.12       1.0  T
  10    -72.0942519 -0.964466E-03  0.440E-02    0.14       1.0  T
  11    -72.0942987 -0.468157E-04  0.183E-02    0.13       1.0  T
  12    -72.0940740  0.224748E-03  0.534E-02    0.13       1.0  T
  13    -72.0943168 -0.242798E-03  0.930E-03    0.13       1.7  T
  14    -72.0943209 -0.415300E-05  0.347E-03    0.13       4.4  T
  15    -72.0943108  0.101761E-04  0.109E-02    0.13       1.4  T
  16    -72.0943212 -0.104627E-04  0.908E-04    0.13      17.0  T
  17    -72.0943206  0.665025E-06  0.288E-03    0.13       5.4  T
  18    -72.0943212 -0.614010E-06  0.962E-04    0.13      16.0  T
  19    -72.0943213 -0.735845E-07  0.164E-04    0.13      93.9  T

   *** convergence criteria satisfied after 19 iterations ***

         #    Occupation            Energy/Eh            Energy/eV
      -------------------------------------------------------------
         1        2.0000           -0.8145815             -22.1659
       ...           ...                  ...                  ...
        58        2.0000           -0.4132865             -11.2461
        59        2.0000           -0.4062775             -11.0554
        60        2.0000           -0.3990448             -10.8586
        61        1.9833           -0.3766312             -10.2487
        62        1.5562           -0.3729754             -10.1492
        63        1.4605           -0.3726106             -10.1393
        64        0.9285           -0.2574363              -7.0052 (HOMO)
        65        0.0715           -0.2525656              -6.8727 (LUMO)
        66                         -0.2117061              -5.7608
        67                         -0.1965353              -5.3480
        68                         -0.1287517              -3.5035
        69                         -0.0875030              -2.3811
       ...                                ...                  ...
       114                          0.7262643              19.7627
      -------------------------------------------------------------
                  HL-Gap            0.0048707 Eh            0.1325 eV
             Fermi-level           -0.3138809 Eh           -8.5411 eV

 transition dipole moment (au) for excitation:          63          64
     X       Y       Z   
  -0.4137   0.0507   0.1754  total (au/Debye):    0.452   1.149
 dE (eV)             :    3.134
 oscillator strength :  0.22205E-01

 SCC (total)                   0 d,  0 h,  0 min,  0.153 sec
 SCC setup                      ...        0 min,  0.000 sec (  0.244%)
 Dispersion                     ...        0 min,  0.001 sec (  0.327%)
 classical contributions        ...        0 min,  0.000 sec (  0.096%)
 integral evaluation            ...        0 min,  0.040 sec ( 25.851%)
 iterations                     ...        0 min,  0.043 sec ( 27.767%)
 molecular gradient             ...        0 min,  0.063 sec ( 40.956%)
 printout                       ...        0 min,  0.007 sec (  4.753%)

         :::::::::::::::::::::::::::::::::::::::::::::::::::::
         ::                     SUMMARY                     ::
         :::::::::::::::::::::::::::::::::::::::::::::::::::::
         :: total energy             -71.198674748776 Eh    ::
         :: gradient norm              0.087233902661 Eh/a0 ::
         :: HOMO-LUMO gap              0.132537865010 eV    ::
         ::.................................................::
         :: SCC energy               -72.094219507769 Eh    ::
         :: -> isotropic ES            0.099015153069 Eh    ::
         :: -> anisotropic ES          0.006314281998 Eh    ::
         :: -> anisotropic XC          0.016901389914 Eh    ::
         :: -> dispersion             -0.046205330107 Eh    ::
         :: repulsion energy           0.895544758993 Eh    ::
         :: add. restraining           0.000000000000 Eh    ::
         :: total charge               0.000000000005 e     ::
         :::::::::::::::::::::::::::::::::::::::::::::::::::::

           -------------------------------------------------
          |                Property Printout                |
           -------------------------------------------------

    * Orbital Energies and Occupations

         #    Occupation            Energy/Eh            Energy/eV
      -------------------------------------------------------------
         1        2.0000           -0.8145815             -22.1659
       ...           ...                  ...                  ...
        52        2.0000           -0.4607686             -12.5382
        53        2.0000           -0.4560924             -12.4109
        54        2.0000           -0.4528075             -12.3215
        55        2.0000           -0.4485908             -12.2068
        56        2.0000           -0.4407354             -11.9930
        57        2.0000           -0.4331261             -11.7860
        58        2.0000           -0.4132865             -11.2461
        59        2.0000           -0.4062775             -11.0554
        60        2.0000           -0.3990448             -10.8586
        61        1.9833           -0.3766312             -10.2487
        62        1.5562           -0.3729754             -10.1492
        63        1.4605           -0.3726106             -10.1393
        64        0.9285           -0.2574363              -7.0052 (HOMO)
        65        0.0715           -0.2525656              -6.8727 (LUMO)
        66                         -0.2117061              -5.7608
        67                         -0.1965353              -5.3480
        68                         -0.1287517              -3.5035
        69                         -0.0875030              -2.3811
        70                         -0.0684197              -1.8618
        71                         -0.0320239              -0.8714
        72                         -0.0114017              -0.3103
        73                          0.0271194               0.7380
        74                          0.0397011               1.0803
        75                          0.0508235               1.3830
       ...                                ...                  ...
       114                          0.7262643              19.7627
      -------------------------------------------------------------
                  HL-Gap            0.0048707 Eh            0.1325 eV
             Fermi-level           -0.3138809 Eh           -8.5411 eV

     #   Z          covCN         q      C6AA      α(0)
     1   8 O        0.856    -0.395    21.583     6.229
     2   6 C        2.698     0.354    20.983     7.497
     3   8 O        1.659    -0.406    20.967     6.181
     4   6 C        2.955    -0.068    29.693     8.938
     5   6 C        2.875    -0.011    28.298     8.720
     6   7 N        2.746    -0.025    21.727     6.923
     7   6 C        2.932     0.054    26.788     8.488
     8   6 C        2.928    -0.106    30.672     9.083
     9   6 C        2.905     0.030    27.320     8.570
    10   7 N        2.739    -0.064    22.476     7.041
    11   6 C        3.754    -0.006    20.744     6.495
    12   6 C        3.757     0.000    20.630     6.476
    13   7 N        2.678    -0.229    26.013     7.575
    14   6 C        3.757     0.001    20.609     6.473
    15   6 C        3.753    -0.006    20.749     6.495
    16   6 C        2.784     0.141    24.915     8.176
    17   9 F        0.787    -0.232    11.572     4.018
    18   6 C        2.921    -0.071    29.779     8.949
    19   6 C        2.982    -0.015    28.390     8.740
    20   6 C        2.830     0.198    23.791     7.993
    21   8 O        0.857    -0.341    20.535     6.076
    22   6 C        3.811     0.032    20.033     6.371
    23   6 C        3.806    -0.068    21.806     6.648
    24   6 C        3.806    -0.070    21.828     6.651
    25   1 H        0.804     0.325     0.651     1.267
    26   1 H        0.926     0.065     2.145     2.290
    27   1 H        0.926     0.035     2.518     2.482
    28   1 H        0.925     0.076     2.017     2.221
    29   1 H        0.923     0.032     2.557     2.501
    30   1 H        0.924     0.063     2.163     2.300
    31   1 H        0.924     0.051     2.314     2.379
    32   1 H        0.860     0.146     1.431     1.874
    33   1 H        0.924     0.048     2.351     2.398
    34   1 H        0.924     0.058     2.221     2.331
    35   1 H        0.923     0.034     2.537     2.491
    36   1 H        0.924     0.056     2.245     2.343
    37   1 H        0.926     0.077     2.013     2.219
    38   1 H        0.925     0.040     2.447     2.446
    39   1 H        0.926     0.041     2.431     2.438
    40   1 H        0.926     0.051     2.304     2.374
    41   1 H        0.926     0.058     2.219     2.329
    42   1 H        0.926     0.049     2.337     2.391

 Mol. C6AA /au·bohr⁶  :      20017.592445
 Mol. C8AA /au·bohr⁸  :     469261.038115
 Mol. α(0) /au        :        215.877431


Wiberg/Mayer (AO) data.
largest (>0.10) Wiberg bond orders for each atom

 ---------------------------------------------------------------------------
     #   Z sym  total        # sym  WBO       # sym  WBO       # sym  WBO
 ---------------------------------------------------------------------------
     1   8 O    2.023 --     2 C    1.724     3 O    0.147
     2   6 C    3.889 --     1 O    1.724     3 O    1.069     4 C    1.034
     3   8 O    2.130 --     2 C    1.069    25 H    0.871     1 O    0.147
     4   6 C    3.858 --     5 C    1.457    20 C    1.072     2 C    1.034
     5   6 C    3.856 --     4 C    1.457     6 N    1.176    26 H    0.948
     6   7 N    3.546 --     5 C    1.176     7 C    1.118    22 C    0.989
     7   6 C    3.940 --     8 C    1.370    19 C    1.271     6 N    1.118
     8   6 C    3.889 --     7 C    1.370     9 C    1.266    27 H    0.959
     9   6 C    3.904 --    16 C    1.285     8 C    1.266    10 N    1.132
    10   7 N    3.290 --     9 C    1.132    15 C    1.008    11 C    0.996
    11   6 C    3.960 --    10 N    0.996    12 C    0.977    28 H    0.967
                            29 H    0.956
    12   6 C    3.972 --    13 N    1.021    11 C    0.977    31 H    0.972
                            30 H    0.969
    13   7 N    3.093 --    14 C    1.027    12 C    1.021    32 H    0.953
    14   6 C    3.973 --    13 N    1.027    33 H    0.972    34 H    0.970
                            15 C    0.970
    15   6 C    3.969 --    10 N    1.008    14 C    0.970    36 H    0.969
                            35 H    0.958
    16   6 C    3.795 --    18 C    1.393     9 C    1.285    17 F    0.945
    17   9 F    1.065 --    16 C    0.945
    18   6 C    3.922 --    16 C    1.393    19 C    1.295    37 H    0.960
    19   6 C    3.829 --    18 C    1.295     7 C    1.271    20 C    1.036
    20   6 C    3.879 --    21 O    1.572     4 C    1.072    19 C    1.036
    21   8 O    1.875 --    20 C    1.572
    22   6 C    3.924 --     6 N    0.989    24 C    0.973    23 C    0.962
                            38 H    0.959
    23   6 C    3.939 --    24 C    0.984    39 H    0.980    40 H    0.979
                            22 C    0.962
    24   6 C    3.943 --    23 C    0.984    42 H    0.980    41 H    0.976
                            22 C    0.973
    25   1 H    0.893 --     3 O    0.871
    26   1 H    0.987 --     5 C    0.948
    27   1 H    0.997 --     8 C    0.959
    28   1 H    0.994 --    11 C    0.967
    29   1 H    0.984 --    11 C    0.956
    30   1 H    0.994 --    12 C    0.969
    31   1 H    0.996 --    12 C    0.972
    32   1 H    0.978 --    13 N    0.953
    33   1 H    0.996 --    14 C    0.972
    34   1 H    0.995 --    14 C    0.970
    35   1 H    0.986 --    15 C    0.958
    36   1 H    0.997 --    15 C    0.969
    37   1 H    0.992 --    18 C    0.960
    38   1 H    0.995 --    22 C    0.959
    39   1 H    0.998 --    23 C    0.980
    40   1 H    0.997 --    23 C    0.979
    41   1 H    0.996 --    24 C    0.976
    42   1 H    0.997 --    24 C    0.980
 ---------------------------------------------------------------------------

Topologies differ in total number of bonds
Writing topology from bond orders to xtbtopo.mol

molecular dipole:
                 x           y           z       tot (Debye)
 q only:       -2.122      -0.618      -4.158
   full:       -1.669      -1.056      -4.420      12.304
molecular quadrupole (traceless):
                xx          xy          yy          xz          yz          zz
 q only:       16.836       3.586       8.048     -21.376      -3.636     -24.884
  q+dip:       14.416       7.063      12.386     -21.998       0.200     -26.802
   full:       14.010       7.208      14.290     -22.555      -1.528     -28.300


           -------------------------------------------------
          | TOTAL ENERGY              -71.198674748776 Eh   |
          | GRADIENT NORM               0.087233902661 Eh/α |
          | HOMO-LUMO GAP               0.132537865010 eV   |
           -------------------------------------------------

------------------------------------------------------------------------
 * finished run on 2025/05/15 at 16:15:59.902     
------------------------------------------------------------------------
 total:
 * wall-time:     0 d,  0 h,  0 min,  0.167 sec
 *  cpu-time:     0 d,  0 h,  0 min,  0.096 sec
 * ratio c/w:     0.572 speedup
 SCF:
 * wall-time:     0 d,  0 h,  0 min,  0.154 sec
 *  cpu-time:     0 d,  0 h,  0 min,  0.083 sec
 * ratio c/w:     0.541 speedup


