42
 energy: -71.304078949493 gnorm: 0.000309087340 xtb: 6.7.1 (edcfbbe)
O            5.08413387268023       -0.13264823857397        3.76259592735200
C            4.86599202316246        0.01924136366006        2.59245510016244
O            5.88519298306314        0.16255572417356        1.70289057035947
C            3.54834082841683        0.05457155546455        1.93679046940585
C            3.46317526191329       -0.18034104771119        0.59983039313598
N            2.31114311274275       -0.20963085126266       -0.09904373211491
C            1.10083837503697       -0.08123252562237        0.56482400548195
C           -0.10828875784703       -0.24567129556274       -0.10909416125962
C           -1.34271967209101       -0.11659901192396        0.52966345986911
N           -2.53352061126992       -0.22138542309574       -0.14878296890823
C           -3.64391762529263       -0.98969968494561        0.38525606825761
C           -4.96818311801824       -0.35620752925232       -0.05688805459974
N           -5.06585355917779       -0.24893105691104       -1.50004346682020
C           -3.92147169441331        0.46716772369772       -2.02016301328471
C           -2.57302827664898       -0.14180961517786       -1.59266316511013
C           -1.29941030045246        0.20026927990942        1.90536272191830
F           -2.45397569499438        0.40994468793908        2.58552836864802
C           -0.12340143262011        0.33604402590271        2.58897431136320
C            1.10536239644103        0.19319153936501        1.93988645728811
C            2.34418287090675        0.33519295476547        2.72520854174140
O            2.33593512868837        0.66323264092423        3.89580814026481
C            2.35613770142671       -0.42035452061687       -1.51587040479524
C            1.88917435254775        0.67543775965626       -2.43186039021471
C            3.34698598205214        0.35228821772702       -2.33389517420607
H            6.72309891619293        0.12894060674763        2.18940171586497
H            4.36015090002224       -0.37287850719579        0.02883219802411
H           -0.08894413012190       -0.50742419666894       -1.15247952501072
H           -3.59732981796816       -1.03484940361630        1.46907418339659
H           -3.58978501153611       -2.02171759107556       -0.00358261550561
H           -5.03972298139089        0.65280089393294        0.35725331581674
H           -5.80706318047868       -0.94761225867543        0.31349899539816
H           -5.10613917208289       -1.17921193108252       -1.90919496070946
H           -3.98304382873003        0.49314461521053       -3.11002222780621
H           -3.97927449560714        1.49174042357732       -1.64189114368452
H           -2.45658821701546       -1.13879618130490       -2.05045992771245
H           -1.77097384555403        0.50755468688531       -1.94462306787762
H           -0.12423729523837        0.57591927761793        3.64095374810271
H            2.15059300109771       -1.44691767367467       -1.80696213458910
H            1.35048920540863        0.40247457215562       -3.32641961272329
H            1.54762831870817        1.59190757025190       -1.97563889065194
H            3.98253486606460        1.06065984702438       -1.82587831073178
H            3.82588262197778       -0.15246142263979       -3.15833174353613
