31
 energy: -58.964792748827 gnorm: 0.000309735560 xtb: 6.7.1 (edcfbbe)
N            4.81426489014838       -1.37522586507881       -0.73767138316925
C            3.96166423058642       -0.44626225962977       -0.28784243644347
N            4.45871485371025        0.69226845825739        0.20402207525041
C            3.62898693328628        1.61709011403279        0.64751883805432
Cl           4.37096575155124        3.02874868967967        1.24788495211348
N            2.31319184592692        1.60422635677969        0.68715349961615
C            1.81110845089031        0.46803816524639        0.20094695067214
C            2.56323480150650       -0.60265762439374       -0.30725092125699
N            1.71446885457828       -1.59396198300325       -0.73017567974983
C            0.52223020023822       -1.14321119669085       -0.49497036151536
N            0.50303258823835        0.10688273106692        0.07304121301670
C           -0.61340799330998        0.93692991528113        0.46457112234200
C           -1.45976396436697        1.37345251106191       -0.73728469274219
C           -2.64579556760922        0.39768166618760       -0.70602585043127
C           -2.76790841231107        0.09246412157778        0.80069290350458
O           -1.46153824676289        0.23720909839720        1.34554925088878
C           -3.29286354885816       -1.31894106834915        1.09618192171721
O           -2.37582737911729       -2.30280436082131        0.70717413860758
O           -3.82015652165130        0.87680471272765       -1.28335469802217
H            5.80101174639441       -1.19204206829140       -0.69988740452275
H            4.45440402505499       -2.23348636667962       -1.11362570658790
H           -0.37342091565942       -1.69150964495617       -0.71026625467787
H           -0.15847768563359        1.78457652042669        0.99471222046036
H           -1.82140736600897        2.39291906966276       -0.59035671816471
H           -0.89578504187115        1.33183036315825       -1.66597143483809
H           -2.41469252287759       -0.52429012200030       -1.24822831567680
H           -3.43814936148819        0.83106537668874        1.27035805291296
H           -3.52391537700967       -1.40135514461218        2.16619262926311
H           -4.20355706132449       -1.48566577257381        0.51720535924113
H           -1.56818403166155       -2.16205146934497        1.21835214455869
H           -4.08242817458691        1.70087707618624       -0.85384541441871
