42
 energy: -71.302912285367 gnorm: 0.000593731894 xtb: 6.7.1 (edcfbbe)
O           -5.32208439757809        2.93717380340932       -1.44091099400354
C           -4.99282933546028        1.84191951624284       -1.07757380634514
O           -5.91115046977635        0.84885984722978       -0.92774206782184
C           -3.63391324675028        1.39452425689331       -0.73166099202848
C           -3.47546645846852        0.29261315056033        0.05001022210147
N           -2.28565000635913       -0.20447596050110        0.44119428536043
C           -1.11685721403304        0.46185931641009        0.10310564922368
C            0.12005677195619        0.02303074814621        0.56250911555795
C            1.32247829417424        0.66376300644100        0.23926113718430
N            2.50115945460194        0.18965540460827        0.75249523333549
C            3.72709217887949        0.95739700717843        0.80224205043365
C            4.66936152265863        0.57612057761694       -0.34187187032900
N            4.94352625692857       -0.84738844483921       -0.23452643698213
C            3.71931038947632       -1.61562348983233       -0.34612896916817
C            2.78694280025673       -1.22755827838194        0.81044129682836
C            1.20001694647074        1.81216303170441       -0.57414761595536
F            2.30250822305645        2.49404365606274       -0.98038947406344
C           -0.01020096981832        2.26795279655693       -1.02249660591068
C           -1.19729888805631        1.60833689591640       -0.70295678399013
C           -2.46932514480223        2.13951496434800       -1.22105373689856
O           -2.51482568685120        3.08561426858342       -1.98369896029799
C           -2.24705352276667       -1.37908560191189        1.26155406056036
C           -1.65274776117124       -2.64277796345933        0.70611372771529
C           -3.13018423415420       -2.54135789774170        0.92192474558358
H           -6.78250561063919        1.19944086254759       -1.16812241841535
H           -4.34408934307936       -0.23980239022950        0.41001306520898
H            0.16036267978540       -0.82923464553271        1.21819655908292
H            4.22049389986122        0.70539166969410        1.74785932647733
H            3.51669498959589        2.02357575752511        0.79866073110069
H            4.20203441529345        0.84530915933412       -1.30323954497400
H            5.60800208163075        1.12380615032630       -0.24531565626512
H            5.61004716771432       -1.13454570664292       -0.94372308656989
H            3.96210882729253       -2.67831778068580       -0.28128240745239
H            3.18879164514720       -1.43232376019748       -1.29910565654262
H            3.29006853140613       -1.44398261554512        1.75806801347680
H            1.87248020410495       -1.81366361079428        0.74568999260836
H           -0.06205919641743        3.14215392469510       -1.65312015196059
H           -2.07835231828557       -1.16102525835496        2.31257479054078
H           -1.29279837861188       -2.61787941568608       -0.31083166734930
H           -1.06873788607912       -3.26734977444672        1.36472423001264
H           -3.57720709820962       -3.09117811668126        1.73533695032650
H           -3.75800011292105       -2.46674906056820        0.04782372060411
