57
 energy: -87.643454154972 gnorm: 0.000311291278 xtb: 6.7.1 (edcfbbe)
O           -2.57769515636967       -0.01367769065690       -2.29582286540691
C           -3.17363118326026        0.44791134067632       -1.33800308533857
C           -2.57360188436112        0.96376027821334       -0.12891254958160
C           -1.07725846546491        0.91407160922556       -0.05954905280313
C           -0.61405012674930       -0.47632576982050        0.40030991869649
N            0.83281973955825       -0.55897360955817        0.45617251548872
C            1.37509911534653       -0.00690107243046        1.68234222121847
C            2.89258714385818        0.10718176526202        1.58335245917105
C            3.49873143911613       -1.27634726090107        1.33145203709068
C            2.84898215239920       -1.87552608892006        0.08077478648173
C            1.33334331732412       -1.90428973025309        0.24789901381844
C            4.97854867137855       -1.20739621261192        1.19269870944993
N            5.75535550689944       -1.84277590369489        2.01579466179754
O            7.06238042277804       -1.62433210818508        1.67324258138525
C            7.08645661320013       -0.82296954479895        0.59624351357011
C            5.76644422141964       -0.50286834884840        0.21832617692113
C            5.54033262791275        0.32393998972038       -0.88186224867668
C            6.63096558794062        0.80289570062701       -1.56919547775902
C            7.92435795803501        0.46224906447615       -1.16481460907750
F            8.95565915298064        0.95849766467486       -1.87403771990874
C            8.19827650894451       -0.34879268434613       -0.08590569879737
C           -3.37045209442235        1.41107218552528        0.88607111895069
N           -4.72793016275712        1.41537120562421        0.79449207771154
C           -5.27486742902725        0.98122279050911       -0.29107920104658
N           -4.57411898959234        0.51521699831937       -1.34821077238202
C           -5.31139617612738       -0.01499698488510       -2.47413838510815
C           -6.33727959098847       -1.02324001226721       -1.96198131796412
C           -7.27627761496774       -0.38228126516428       -0.92556115636547
C           -6.75921149088720        0.98502548114907       -0.45136928550750
C           -2.83512239994250        1.94182574181957        2.17950248821597
H           -0.67283082939378        1.08182991158099       -1.05855221979796
H           -0.70010590807648        1.68540700994992        0.61002958434275
H           -0.97330792929281       -1.19949498474656       -0.33455117646457
H           -1.07652920369327       -0.72464699200832        1.37252153007702
H            1.10956998616804       -0.63335163582519        2.55621676697434
H            0.94964318725756        0.98615121449997        1.83877872879617
H            3.29226375546963        0.53040410634797        2.50659643965469
H            3.14205851029588        0.77534388665521        0.75902630985759
H            3.28487991669000       -1.92171927781223        2.19019301096965
H            3.09328046317717       -1.26688966219626       -0.78954813782225
H            3.22053344469173       -2.88751931107545       -0.08790056924144
H            1.06927939882193       -2.57269395995200        1.08925447059100
H            0.87777412510573       -2.30378429795718       -0.66094127196743
H            4.54071770485262        0.58373350098947       -1.19042788550067
H            6.51235388056314        1.44508469104775       -2.42730393913349
H            9.20499690635111       -0.59554320359915        0.20395758867569
H           -5.80484475890277        0.80311968923093       -3.00889053494715
H           -4.58226159282250       -0.48400495408655       -3.13954699565836
H           -6.90244345373943       -1.41756544988045       -2.80597775826839
H           -5.79461778730687       -1.85444326349393       -1.50818178365581
H           -7.37081793395435       -1.04213422730608       -0.06282438904164
H           -8.27361519977703       -0.24787341543884       -1.34546979599993
H           -7.01483004612060        1.74680046229895       -1.19354875269798
H           -7.21449709632050        1.26925682291805        0.49580895755734
H           -2.17071626871857        1.22065125620295        2.65006186265889
H           -3.66775534455346        2.15389542928754        2.84357498533086
H           -2.27582534096128        2.86073912590197        2.00921412045298
