----- Optimization -----
      -----------------------------------------------------------      
     |                   =====================                   |     
     |                           x T B                           |     
     |                   =====================                   |     
     |                         S. Grimme                         |     
     |          Mulliken Center for Theoretical Chemistry        |     
     |                    University of Bonn                     |     
      -----------------------------------------------------------      

   * xtb version 6.7.1 (edcfbbe) compiled by 'conda@3ef47c1a292c' on 2024-11-25

   xtb is free software: you can redistribute it and/or modify it under
   the terms of the GNU Lesser General Public License as published by
   the Free Software Foundation, either version 3 of the License, or
   (at your option) any later version.
   
   xtb is distributed in the hope that it will be useful,
   but WITHOUT ANY WARRANTY; without even the implied warranty of
   MERCHANTABILITY or FITNESS FOR A PARTICULAR PURPOSE.  See the
   GNU Lesser General Public License for more details.
   
   Cite this work as:
   * C. Bannwarth, E. Caldeweyher, S. Ehlert, A. Hansen, P. Pracht,
     J. Seibert, S. Spicher, S. Grimme, WIREs Comput. Mol. Sci., 2020, 11,
     e01493. DOI: 10.1002/wcms.1493
   
   for GFN2-xTB:
   * C. Bannwarth, S. Ehlert and S. Grimme., J. Chem. Theory Comput., 2019,
     15, 1652-1671. DOI: 10.1021/acs.jctc.8b01176
   for GFN1-xTB:
   * S. Grimme, C. Bannwarth, P. Shushkov, J. Chem. Theory Comput., 2017,
     13, 1989-2009. DOI: 10.1021/acs.jctc.7b00118
   for GFN0-xTB:
   * P. Pracht, E. Caldeweyher, S. Ehlert, S. Grimme, ChemRxiv, 2019, preprint.
     DOI: 10.26434/chemrxiv.8326202.v1
   for GFN-FF:
   * S. Spicher and S. Grimme, Angew. Chem. Int. Ed., 2020, 59, 15665-15673.
     DOI: 10.1002/anie.202004239
   
   for ALPB and GBSA implicit solvation:
   * S. Ehlert, M. Stahn, S. Spicher, S. Grimme, J. Chem. Theory Comput.,
     2021, 17, 4250-4261. DOI: 10.1021/acs.jctc.1c00471
   
   for ddCOSMO and CPCM-X implicit solvation:
   * M. Stahn, S. Ehlert, S. Grimme, J. Phys. Chem. A,
     2023, XX, XXXX-XXXX. DOI: 10.1021/acs.jpca.3c04382
   
   for DFT-D4:
   * E. Caldeweyher, C. Bannwarth and S. Grimme, J. Chem. Phys., 2017,
     147, 034112. DOI: 10.1063/1.4993215
   * E. Caldeweyher, S. Ehlert, A. Hansen, H. Neugebauer, S. Spicher,
     C. Bannwarth and S. Grimme, J. Chem. Phys., 2019, 150, 154122.
     DOI: 10.1063/1.5090222
   * E. Caldeweyher, J.-M. Mewes, S. Ehlert and S. Grimme, Phys. Chem. Chem. Phys.
     2020, 22, 8499-8512. DOI: 10.1039/D0CP00502A
   
   for sTDA-xTB:
   * S. Grimme and C. Bannwarth, J. Chem. Phys., 2016, 145, 054103.
     DOI: 10.1063/1.4959605
   
   in the mass-spec context:
   * V. Asgeirsson, C. Bauer and S. Grimme, Chem. Sci., 2017, 8, 4879.
     DOI: 10.1039/c7sc00601b
   * J. Koopman and S. Grimme, ACS Omega 2019, 4, 12, 15120-15133.
     DOI: 10.1021/acsomega.9b02011
   
   for metadynamics refer to:
   * S. Grimme, J. Chem. Theory Comput., 2019, 155, 2847-2862
     DOI: 10.1021/acs.jctc.9b00143
   
   for SPH calculations refer to:
   * S. Spicher and S. Grimme, J. Chem. Theory Comput., 2021, 17, 1701-1714
     DOI: 10.1021/acs.jctc.0c01306
   
   for ONIOM refer to:
   * C. Plett, A. Katbashev, S. Ehlert, S. Grimme, M. Bursch,
     Phys. Chem. Chem. Phys., 2023, 25, 17860-17868. DOI: 10.1039/D3CP02178E
   
   for DIPRO refer to:
   * J. Kohn, N. Gildemeister, S. Grimme, D. Fazzi, A. Hansen,
     J. Chem. Phys., 2023, just accepted.
   
   for PTB refer to:
   * S. Grimme, M. Mueller, A. Hansen, J. Chem. Phys., 2023, 158, 124111.
     DOI: 10.1063/5.0137838
   
   with help from (in alphabetical order)
   P. Atkinson, C. Bannwarth, F. Bohle, G. Brandenburg, E. Caldeweyher
   M. Checinski, S. Dohm, S. Ehlert, S. Ehrlich, I. Gerasimov, C. Hölzer
   A. Katbashev, J. Kohn, J. Koopman, C. Lavigne, S. Lehtola, F. März, M. Müller,
   F. Musil, H. Neugebauer, J. Pisarek, C. Plett, P. Pracht, F. Pultar,
   J. Seibert, P. Shushkov, S. Spicher, M. Stahn, M. Steiner, T. Strunk,
   J. Stückrath, T. Rose, and J. Unsleber
   
 * started run on 2025/05/15 at 16:11:01.041     
   ID    Z sym.   atoms
    1    8 O      1, 31, 35, 43, 44
    2    6 C      2, 4-14, 16, 17, 19, 21-24, 26-29, 32-34, 36-42, 45-47, 49
    3    7 N      3, 15, 18, 20, 30, 48
    4   16 S      25, 50
    5    1 H      51-98

           -------------------------------------------------
          |                Calculation Setup                |
           -------------------------------------------------

          program call               : xtb /rds/general/user/hgt20/home/callum/QDESCP/Ritonavir_rdkit_conf_17/Ritonavir_rdkit_conf_17.xyz --opt normal --acc 1 --gfn 2 --chrg 0 --uhf 0 -P 1
          hostname                   : login-c
          coordinate file            : /rds/general/user/hgt20/home/callum/QDESCP/Ritonavir_rdkit_conf_17/Ritonavir_rdkit_conf_17.xyz
          omp threads                :                     1


           -------------------------------------------------
          |                 G F N 2 - x T B                 |
           -------------------------------------------------

        Reference                      10.1021/acs.jctc.8b01176
      * Hamiltonian:
        H0-scaling (s, p, d)           1.850000    2.230000    2.230000
        zeta-weighting                 0.500000
      * Dispersion:
        s8                             2.700000
        a1                             0.520000
        a2                             5.000000
        s9                             5.000000
      * Repulsion:
        kExp                           1.500000    1.000000
        rExp                           1.000000
      * Coulomb:
        alpha                          2.000000
        third order                    shell-resolved
        anisotropic                    true
        a3                             3.000000
        a5                             4.000000
        cn-shift                       1.200000
        cn-exp                         4.000000
        max-rad                        5.000000


          ...................................................
          :                      SETUP                      :
          :.................................................:
          :  # basis functions                 260          :
          :  # atomic orbitals                 258          :
          :  # shells                          150          :
          :  # electrons                       268          :
          :  max. iterations                   250          :
          :  Hamiltonian                  GFN2-xTB          :
          :  restarted?                      false          :
          :  GBSA solvation                  false          :
          :  PC potential                    false          :
          :  electronic temp.          300.0000000     K    :
          :  accuracy                    1.0000000          :
          :  -> integral cutoff          0.2500000E+02      :
          :  -> integral neglect         0.1000000E-07      :
          :  -> SCF convergence          0.1000000E-05 Eh   :
          :  -> wf. convergence          0.1000000E-03 e    :
          :  Broyden damping             0.4000000          :
          :  net charge                          0          :
          :  unpaired electrons                  0          :
          ...................................................

 iter      E             dE          RMSdq      gap      omega  full diag
   1   -149.8134493 -0.149813E+03  0.371E+00    2.88       0.0  T
   2   -150.0304861 -0.217037E+00  0.207E+00    3.29       1.0  T
   3   -150.0321244 -0.163829E-02  0.972E-01    3.12       1.0  T
   4   -150.0357004 -0.357608E-02  0.388E-01    2.92       1.0  T
   5   -150.0463159 -0.106155E-01  0.132E-01    2.92       1.0  T
   6   -150.0470407 -0.724816E-03  0.576E-02    2.94       1.0  T
   7   -150.0471272 -0.864250E-04  0.269E-02    2.94       1.0  T
   8   -150.0471523 -0.251263E-04  0.106E-02    2.95       1.0  T
   9   -150.0471548 -0.247318E-05  0.439E-03    2.94       2.3  T
  10   -150.0471551 -0.327500E-06  0.161E-03    2.95       6.3  T
  11   -150.0471551 -0.449731E-07  0.844E-04    2.95      12.0  T
  12   -150.0471552 -0.237793E-07  0.464E-04    2.95      21.7  T

   *** convergence criteria satisfied after 12 iterations ***

         #    Occupation            Energy/Eh            Energy/eV
      -------------------------------------------------------------
         1        2.0000           -0.7576074             -20.6155
       ...           ...                  ...                  ...
       128        2.0000           -0.4026949             -10.9579
       129        2.0000           -0.4004621             -10.8971
       130        2.0000           -0.4002021             -10.8901
       131        2.0000           -0.3954860             -10.7617
       132        2.0000           -0.3897253             -10.6050
       133        2.0000           -0.3879848             -10.5576
       134        2.0000           -0.3837269             -10.4417 (HOMO)
       135                         -0.2754745              -7.4960 (LUMO)
       136                         -0.2666982              -7.2572
       137                         -0.2320385              -6.3141
       138                         -0.2315062              -6.2996
       139                         -0.2242619              -6.1025
       ...                                ...                  ...
       258                          0.6331240              17.2282
      -------------------------------------------------------------
                  HL-Gap            0.1082524 Eh            2.9457 eV
             Fermi-level           -0.3296007 Eh           -8.9689 eV

 SCC (total)                   0 d,  0 h,  0 min,  0.392 sec
 SCC setup                      ...        0 min,  0.002 sec (  0.386%)
 Dispersion                     ...        0 min,  0.002 sec (  0.592%)
 classical contributions        ...        0 min,  0.001 sec (  0.190%)
 integral evaluation            ...        0 min,  0.044 sec ( 11.237%)
 iterations                     ...        0 min,  0.155 sec ( 39.415%)
 molecular gradient             ...        0 min,  0.188 sec ( 47.897%)
 printout                       ...        0 min,  0.001 sec (  0.281%)

         :::::::::::::::::::::::::::::::::::::::::::::::::::::
         ::                     SUMMARY                     ::
         :::::::::::::::::::::::::::::::::::::::::::::::::::::
         :: total energy            -148.166842753756 Eh    ::
         :: gradient norm              0.115987355902 Eh/a0 ::
         :: HOMO-LUMO gap              2.945696898566 eV    ::
         ::.................................................::
         :: SCC energy              -150.041232812307 Eh    ::
         :: -> isotropic ES            0.191668801522 Eh    ::
         :: -> anisotropic ES          0.013218239253 Eh    ::
         :: -> anisotropic XC          0.065794593514 Eh    ::
         :: -> dispersion             -0.119926248512 Eh    ::
         :: repulsion energy           1.874390058551 Eh    ::
         :: add. restraining           0.000000000000 Eh    ::
         :: total charge              -0.000000000000 e     ::
         :::::::::::::::::::::::::::::::::::::::::::::::::::::

      ----------------------------------------------------------- 
     |                   =====================                   |
     |                        A N C O P T                        |
     |                   =====================                   |
     |               Approximate Normal Coordinate               |
     |                Rational Function Optimizer                |
      ----------------------------------------------------------- 
      ----------------------------------------------------------- 
     |                   =====================                   |
     |                        A N C O P T                        |
     |                   =====================                   |
     |               Approximate Normal Coordinate               |
     |                Rational Function Optimizer                |
      ----------------------------------------------------------- 

          ...................................................
          :                      SETUP                      :
          :.................................................:
          :   optimization level            normal          :
          :   max. optcycles                   294          :
          :   ANC micro-cycles                  20          :
          :   degrees of freedom               288          :
          :.................................................:
          :   RF solver                   davidson          :
          :   write xtbopt.log                true          :
          :   linear?                        false          :
          :   energy convergence         0.5000000E-05 Eh   :
          :   grad. convergence          0.1000000E-02 Eh/α :
          :   maxmium RF displ.          1.0000000          :
          :   Hlow (freq-cutoff)         0.1000000E-01      :
          :   Hmax (freq-cutoff)         5.0000000          :
          :   S6 in model hess.         20.0000000          :
          ...................................................

generating ANC from exact Hessian ...
Using Lindh-Hessian (1995)
 Shifting diagonal of input Hessian by    9.9696911278749373E-003
 Lowest  eigenvalues of input Hessian
    0.000000    0.000000    0.000000    0.000000    0.000000    0.000000
    0.010000    0.010031    0.010042    0.010111    0.010149    0.010253
    0.010324    0.010407    0.010503    0.010544    0.010587    0.010739
 Highest eigenvalues
    1.944777    2.043819    2.091572    2.196827    2.372962    2.474190


........................................................................
.............................. CYCLE    1 ..............................
........................................................................

 iter      E             dE          RMSdq      gap      omega  full diag
   1   -150.0471552 -0.150047E+03  0.165E-04    2.95       0.0  T
   2   -150.0471552 -0.408107E-09  0.127E-04    2.95      79.7  T
   3   -150.0471552 -0.951417E-09  0.661E-05    2.95     152.8  T
     SCC iter.                  ...        0 min,  0.037 sec
     gradient                   ...        0 min,  0.184 sec
 * total energy  :  -148.1668428 Eh     change       -0.7775924E-08 Eh
   gradient norm :     0.1159900 Eh/α   predicted     0.0000000E+00 (-100.00%)
   displ. norm   :     0.3558398 α      lambda       -0.2246898E-01
   maximum displ.:     0.0811884 α      in ANC's #28, #76, #109, ...

........................................................................
.............................. CYCLE    2 ..............................
........................................................................

 iter      E             dE          RMSdq      gap      omega  full diag
   1   -150.1419307 -0.150142E+03  0.166E-01    2.98       0.0  T
   2   -150.1421914 -0.260762E-03  0.103E-01    2.97       1.0  T
   3   -150.1421251  0.663495E-04  0.608E-02    2.98       1.0  T
   4   -150.1422795 -0.154437E-03  0.237E-02    2.99       1.0  T
   5   -150.1423133 -0.337342E-04  0.546E-03    2.99       1.8  T
   6   -150.1423137 -0.473238E-06  0.280E-03    2.99       3.6  T
   7   -150.1423140 -0.238790E-06  0.122E-03    2.99       8.3  T
   8   -150.1423140 -0.301759E-07  0.581E-04    2.99      17.4  T
   9   -150.1423140 -0.615611E-08  0.219E-04    2.99      46.2  T
     SCC iter.                  ...        0 min,  0.126 sec
     gradient                   ...        0 min,  0.189 sec
 * total energy  :  -148.1821511 Eh     change       -0.1530836E-01 Eh
   gradient norm :     0.0485315 Eh/α   predicted    -0.1266800E-01 ( -17.25%)
   displ. norm   :     0.3684153 α      lambda       -0.6739262E-02
   maximum displ.:     0.1473637 α      in ANC's #28, #30, #19, ...

........................................................................
.............................. CYCLE    3 ..............................
........................................................................

 iter      E             dE          RMSdq      gap      omega  full diag
   1   -150.1877823 -0.150188E+03  0.105E-01    2.99       0.0  T
   2   -150.1879636 -0.181309E-03  0.665E-02    2.98       1.0  T
   3   -150.1879789 -0.152856E-04  0.379E-02    2.99       1.0  T
   4   -150.1880063 -0.273481E-04  0.191E-02    2.99       1.0  T
   5   -150.1880282 -0.219744E-04  0.355E-03    2.99       2.8  T
   6   -150.1880285 -0.280378E-06  0.189E-03    2.99       5.3  T
   7   -150.1880287 -0.145339E-06  0.750E-04    2.99      13.5  T
   8   -150.1880287 -0.861937E-08  0.357E-04    2.99      28.3  T
     SCC iter.                  ...        0 min,  0.160 sec
     gradient                   ...        0 min,  0.152 sec
 * total energy  :  -148.1863546 Eh     change       -0.4203523E-02 Eh
   gradient norm :     0.0160981 Eh/α   predicted    -0.3831806E-02 (  -8.84%)
   displ. norm   :     0.3380977 α      lambda       -0.1844099E-02
   maximum displ.:     0.1441730 α      in ANC's #28, #19, #30, ...

........................................................................
.............................. CYCLE    4 ..............................
........................................................................

 iter      E             dE          RMSdq      gap      omega  full diag
   1   -150.1940746 -0.150194E+03  0.557E-02    2.98       0.0  T
   2   -150.1941099 -0.352428E-04  0.332E-02    2.99       1.0  T
   3   -150.1941058  0.408566E-05  0.167E-02    2.99       1.0  T
   4   -150.1941125 -0.670387E-05  0.783E-03    2.99       1.3  T
   5   -150.1941172 -0.473977E-05  0.151E-03    2.99       6.7  T
   6   -150.1941173 -0.373777E-07  0.848E-04    2.99      11.9  T
   7   -150.1941173 -0.360155E-07  0.297E-04    2.99      34.0  T
     SCC iter.                  ...        0 min,  0.095 sec
     gradient                   ...        0 min,  0.152 sec
 * total energy  :  -148.1877374 Eh     change       -0.1382747E-02 Eh
   gradient norm :     0.0100124 Eh/α   predicted    -0.1027492E-02 ( -25.69%)
   displ. norm   :     0.4566073 α      lambda       -0.1523306E-02
   maximum displ.:     0.1706011 α      in ANC's #19, #28, #10, ...

........................................................................
.............................. CYCLE    5 ..............................
........................................................................

 iter      E             dE          RMSdq      gap      omega  full diag
   1   -150.1929245 -0.150193E+03  0.657E-02    2.98       0.0  T
   2   -150.1929456 -0.210736E-04  0.384E-02    2.99       1.0  T
   3   -150.1929388  0.686411E-05  0.138E-02    2.99       1.0  T
   4   -150.1929471 -0.831814E-05  0.550E-03    3.00       1.8  T
   5   -150.1929494 -0.232606E-05  0.160E-03    3.00       6.3  T
   6   -150.1929494 -0.181622E-07  0.902E-04    3.00      11.2  T
   7   -150.1929495 -0.434450E-07  0.310E-04    3.00      32.5  T
     SCC iter.                  ...        0 min,  0.103 sec
     gradient                   ...        0 min,  0.154 sec
 * total energy  :  -148.1888512 Eh     change       -0.1113840E-02 Eh
   gradient norm :     0.0095753 Eh/α   predicted    -0.9204562E-03 ( -17.36%)
   displ. norm   :     0.4597465 α      lambda       -0.9964325E-03
   maximum displ.:     0.1911070 α      in ANC's #10, #19, #26, ...

........................................................................
.............................. CYCLE    6 ..............................
........................................................................

 iter      E             dE          RMSdq      gap      omega  full diag
   1   -150.1903864 -0.150190E+03  0.637E-02    3.00       0.0  T
   2   -150.1903940 -0.761527E-05  0.371E-02    3.01       1.0  T
   3   -150.1903839  0.100904E-04  0.123E-02    3.01       1.0  T
   4   -150.1903955 -0.116241E-04  0.385E-03    3.01       2.6  T
   5   -150.1903964 -0.844539E-06  0.148E-03    3.01       6.8  T
   6   -150.1903964 -0.321529E-07  0.689E-04    3.01      14.7  T
   7   -150.1903964 -0.272796E-07  0.267E-04    3.01      37.8  T
     SCC iter.                  ...        0 min,  0.087 sec
     gradient                   ...        0 min,  0.142 sec
 * total energy  :  -148.1896163 Eh     change       -0.7651104E-03 Eh
   gradient norm :     0.0109045 Eh/α   predicted    -0.6035254E-03 ( -21.12%)
   displ. norm   :     0.4858057 α      lambda       -0.8716896E-03
   maximum displ.:     0.2247233 α      in ANC's #10, #19, #18, ...

........................................................................
.............................. CYCLE    7 ..............................
........................................................................

 iter      E             dE          RMSdq      gap      omega  full diag
   1   -150.1893169 -0.150189E+03  0.695E-02    3.02       0.0  T
   2   -150.1893232 -0.636755E-05  0.405E-02    3.02       1.0  T
   3   -150.1893092  0.140277E-04  0.137E-02    3.03       1.0  T
   4   -150.1893253 -0.161172E-04  0.348E-03    3.03       2.9  T
   5   -150.1893259 -0.521552E-06  0.144E-03    3.03       7.0  T
   6   -150.1893259 -0.325844E-07  0.633E-04    3.03      15.9  T
   7   -150.1893259 -0.236666E-07  0.242E-04    3.03      41.7  T
     SCC iter.                  ...        0 min,  0.103 sec
     gradient                   ...        0 min,  0.193 sec
 * total energy  :  -148.1903039 Eh     change       -0.6875128E-03 Eh
   gradient norm :     0.0102773 Eh/α   predicted    -0.5387186E-03 ( -21.64%)
   displ. norm   :     0.4937488 α      lambda       -0.8038261E-03
   maximum displ.:     0.2482045 α      in ANC's #10, #19, #18, ...

........................................................................
.............................. CYCLE    8 ..............................
........................................................................

 iter      E             dE          RMSdq      gap      omega  full diag
   1   -150.1903743 -0.150190E+03  0.758E-02    3.04       0.0  T
   2   -150.1903832 -0.888056E-05  0.439E-02    3.04       1.0  T
   3   -150.1903737  0.949561E-05  0.119E-02    3.04       1.0  T
   4   -150.1903843 -0.105608E-04  0.436E-03    3.04       2.3  T
   5   -150.1903855 -0.123788E-05  0.154E-03    3.04       6.6  T
   6   -150.1903855 -0.315298E-07  0.629E-04    3.04      16.1  T
   7   -150.1903856 -0.242079E-07  0.237E-04    3.04      42.7  T
     SCC iter.                  ...        0 min,  0.155 sec
     gradient                   ...        0 min,  0.212 sec
 * total energy  :  -148.1909325 Eh     change       -0.6286921E-03 Eh
   gradient norm :     0.0083218 Eh/α   predicted    -0.4999155E-03 ( -20.48%)
   displ. norm   :     0.4771388 α      lambda       -0.6594514E-03
   maximum displ.:     0.2533799 α      in ANC's #10, #18, #19, ...

........................................................................
.............................. CYCLE    9 ..............................
........................................................................

 iter      E             dE          RMSdq      gap      omega  full diag
   1   -150.1924653 -0.150192E+03  0.784E-02    3.05       0.0  T
   2   -150.1924738 -0.848852E-05  0.452E-02    3.05       1.0  T
   3   -150.1924711  0.271690E-05  0.805E-03    3.05       1.3  T
   4   -150.1924745 -0.341388E-05  0.353E-03    3.05       2.9  T
   5   -150.1924752 -0.772650E-06  0.153E-03    3.05       6.6  T
   6   -150.1924753 -0.651291E-07  0.558E-04    3.05      18.1  T
   7   -150.1924753 -0.200243E-07  0.223E-04    3.05      45.2  T
     SCC iter.                  ...        0 min,  0.105 sec
     gradient                   ...        0 min,  0.185 sec
 * total energy  :  -148.1914462 Eh     change       -0.5136628E-03 Eh
   gradient norm :     0.0071791 Eh/α   predicted    -0.4048177E-03 ( -21.19%)
   displ. norm   :     0.4629787 α      lambda       -0.5367174E-03
   maximum displ.:     0.2540281 α      in ANC's #10, #18, #19, ...

........................................................................
.............................. CYCLE   10 ..............................
........................................................................

 iter      E             dE          RMSdq      gap      omega  full diag
   1   -150.1942055 -0.150194E+03  0.786E-02    3.05       0.0  T
   2   -150.1942119 -0.641487E-05  0.452E-02    3.06       1.0  T
   3   -150.1942104  0.153246E-05  0.712E-03    3.05       1.4  T
   4   -150.1942127 -0.232156E-05  0.302E-03    3.05       3.3  T
   5   -150.1942131 -0.407276E-06  0.142E-03    3.05       7.1  T
   6   -150.1942132 -0.803134E-07  0.494E-04    3.05      20.5  T
   7   -150.1942132 -0.169995E-07  0.189E-04    3.05      53.5  T
     SCC iter.                  ...        0 min,  0.109 sec
     gradient                   ...        0 min,  0.206 sec
 * total energy  :  -148.1918688 Eh     change       -0.4226388E-03 Eh
   gradient norm :     0.0068923 Eh/α   predicted    -0.3258825E-03 ( -22.89%)
   displ. norm   :     0.4548626 α      lambda       -0.4696979E-03
   maximum displ.:     0.2540845 α      in ANC's #10, #18, #7, ...

........................................................................
.............................. CYCLE   11 ..............................
........................................................................

 iter      E             dE          RMSdq      gap      omega  full diag
   1   -150.1953657 -0.150195E+03  0.774E-02    3.05       0.0  T
   2   -150.1953706 -0.495224E-05  0.444E-02    3.05       1.0  T
   3   -150.1953661  0.457633E-05  0.908E-03    3.05       1.1  T
   4   -150.1953714 -0.531480E-05  0.367E-03    3.05       2.7  T
   5   -150.1953721 -0.690940E-06  0.134E-03    3.05       7.5  T
   6   -150.1953721 -0.463829E-07  0.463E-04    3.05      21.8  T
   7   -150.1953721 -0.177875E-07  0.177E-04    3.05      57.2  T
     SCC iter.                  ...        0 min,  0.110 sec
     gradient                   ...        0 min,  0.218 sec
 * total energy  :  -148.1922369 Eh     change       -0.3680270E-03 Eh
   gradient norm :     0.0063710 Eh/α   predicted    -0.2834395E-03 ( -22.98%)
   displ. norm   :     0.4375327 α      lambda       -0.3986212E-03
   maximum displ.:     0.2464908 α      in ANC's #10, #18, #27, ...

........................................................................
.............................. CYCLE   12 ..............................
........................................................................

 iter      E             dE          RMSdq      gap      omega  full diag
   1   -150.1959774 -0.150196E+03  0.737E-02    3.04       0.0  T
   2   -150.1959809 -0.348794E-05  0.424E-02    3.04       1.0  T
   3   -150.1959736  0.727224E-05  0.103E-02    3.04       1.0  T
   4   -150.1959821 -0.848854E-05  0.323E-03    3.04       3.1  T
   5   -150.1959824 -0.367299E-06  0.116E-03    3.04       8.7  T
   6   -150.1959825 -0.433468E-07  0.406E-04    3.04      24.9  T
   7   -150.1959825 -0.123905E-07  0.178E-04    3.04      56.7  T
     SCC iter.                  ...        0 min,  0.144 sec
     gradient                   ...        0 min,  0.161 sec
 * total energy  :  -148.1925424 Eh     change       -0.3055638E-03 Eh
   gradient norm :     0.0056637 Eh/α   predicted    -0.2374670E-03 ( -22.29%)
   displ. norm   :     0.3907444 α      lambda       -0.3053820E-03
   maximum displ.:     0.2202359 α      in ANC's #10, #18, #27, ...

........................................................................
.............................. CYCLE   13 ..............................
........................................................................

 iter      E             dE          RMSdq      gap      omega  full diag
   1   -150.1960338 -0.150196E+03  0.646E-02    3.03       0.0  T
   2   -150.1960371 -0.327961E-05  0.372E-02    3.03       1.0  T
   3   -150.1960304  0.667704E-05  0.973E-03    3.03       1.0  T
   4   -150.1960381 -0.770279E-05  0.301E-03    3.03       3.4  T
   5   -150.1960385 -0.369214E-06  0.108E-03    3.03       9.4  T
   6   -150.1960385 -0.255443E-07  0.408E-04    3.03      24.8  T
   7   -150.1960385 -0.109498E-07  0.182E-04    3.03      55.5  T
     SCC iter.                  ...        0 min,  0.171 sec
     gradient                   ...        0 min,  0.160 sec
 * total energy  :  -148.1927710 Eh     change       -0.2285548E-03 Eh
   gradient norm :     0.0051978 Eh/α   predicted    -0.1760066E-03 ( -22.99%)
   displ. norm   :     0.3283542 α      lambda       -0.2204878E-03
   maximum displ.:     0.1844471 α      in ANC's #10, #4, #5, ...

........................................................................
.............................. CYCLE   14 ..............................
........................................................................

 iter      E             dE          RMSdq      gap      omega  full diag
   1   -150.1961685 -0.150196E+03  0.533E-02    3.03       0.0  T
   2   -150.1961715 -0.296298E-05  0.308E-02    3.03       1.0  T
   3   -150.1961677  0.380749E-05  0.750E-03    3.03       1.3  T
   4   -150.1961720 -0.432858E-05  0.269E-03    3.03       3.8  T
   5   -150.1961724 -0.390691E-06  0.906E-04    3.03      11.1  T
   6   -150.1961724 -0.138240E-07  0.375E-04    3.03      27.0  T
     SCC iter.                  ...        0 min,  0.097 sec
     gradient                   ...        0 min,  0.195 sec
 * total energy  :  -148.1929349 Eh     change       -0.1639426E-03 Eh
   gradient norm :     0.0040680 Eh/α   predicted    -0.1221380E-03 ( -25.50%)
   displ. norm   :     0.2820071 α      lambda       -0.1712789E-03
   maximum displ.:     0.1538099 α      in ANC's #10, #4, #15, ...

........................................................................
.............................. CYCLE   15 ..............................
........................................................................

 iter      E             dE          RMSdq      gap      omega  full diag
   1   -150.1962278 -0.150196E+03  0.428E-02    3.03       0.0  T
   2   -150.1962305 -0.271133E-05  0.247E-02    3.03       1.0  T
   3   -150.1962286  0.189776E-05  0.576E-03    3.03       1.8  T
   4   -150.1962308 -0.214717E-05  0.232E-03    3.03       4.4  T
   5   -150.1962311 -0.350908E-06  0.784E-04    3.03      12.9  T
   6   -150.1962311 -0.978440E-08  0.333E-04    3.03      30.3  T
     SCC iter.                  ...        0 min,  0.110 sec
     gradient                   ...        0 min,  0.246 sec
 * total energy  :  -148.1930632 Eh     change       -0.1283006E-03 Eh
   gradient norm :     0.0039250 Eh/α   predicted    -0.9245045E-04 ( -27.94%)
   displ. norm   :     0.2781659 α      lambda       -0.1517083E-03
   maximum displ.:     0.1461426 α      in ANC's #10, #4, #15, ...

........................................................................
.............................. CYCLE   16 ..............................
........................................................................

 iter      E             dE          RMSdq      gap      omega  full diag
   1   -150.1963643 -0.150196E+03  0.388E-02    3.03       0.0  T
   2   -150.1963669 -0.262091E-05  0.225E-02    3.03       1.0  T
   3   -150.1963654  0.145210E-05  0.504E-03    3.03       2.0  T
   4   -150.1963670 -0.160049E-05  0.202E-03    3.03       5.0  T
   5   -150.1963673 -0.303503E-06  0.646E-04    3.03      15.6  T
   6   -150.1963673 -0.758629E-08  0.310E-04    3.03      32.6  T
     SCC iter.                  ...        0 min,  0.104 sec
     gradient                   ...        0 min,  0.200 sec
 * total energy  :  -148.1931776 Eh     change       -0.1143226E-03 Eh
   gradient norm :     0.0040543 Eh/α   predicted    -0.8172406E-04 ( -28.51%)
   displ. norm   :     0.2960577 α      lambda       -0.1439931E-03
   maximum displ.:     0.1444216 α      in ANC's #10, #4, #11, ...

........................................................................
.............................. CYCLE   17 ..............................
........................................................................

 iter      E             dE          RMSdq      gap      omega  full diag
   1   -150.1969602 -0.150197E+03  0.372E-02    3.04       0.0  T
   2   -150.1969624 -0.224535E-05  0.216E-02    3.04       1.0  T
   3   -150.1969612  0.127123E-05  0.461E-03    3.04       2.2  T
   4   -150.1969626 -0.142080E-05  0.179E-03    3.04       5.6  T
   5   -150.1969628 -0.244660E-06  0.586E-04    3.04      17.2  T
   6   -150.1969628 -0.584501E-08  0.312E-04    3.04      32.4  T
     SCC iter.                  ...        0 min,  0.103 sec
     gradient                   ...        0 min,  0.205 sec
 * total energy  :  -148.1932868 Eh     change       -0.1092657E-03 Eh
   gradient norm :     0.0043017 Eh/α   predicted    -0.7831027E-04 ( -28.33%)
   displ. norm   :     0.3314420 α      lambda       -0.1433689E-03
   maximum displ.:     0.1688251 α      in ANC's #10, #4, #11, ...

........................................................................
.............................. CYCLE   18 ..............................
........................................................................

 iter      E             dE          RMSdq      gap      omega  full diag
   1   -150.1958289 -0.150196E+03  0.412E-02    3.04       0.0  T
   2   -150.1958309 -0.200572E-05  0.239E-02    3.04       1.0  T
   3   -150.1958286  0.234955E-05  0.575E-03    3.04       1.8  T
   4   -150.1958311 -0.256556E-05  0.204E-03    3.04       5.0  T
   5   -150.1958314 -0.297215E-06  0.631E-04    3.04      16.0  T
   6   -150.1958315 -0.636339E-08  0.298E-04    3.04      33.9  T
     SCC iter.                  ...        0 min,  0.100 sec
     gradient                   ...        0 min,  0.195 sec
 * total energy  :  -148.1933949 Eh     change       -0.1080890E-03 Eh
   gradient norm :     0.0045077 Eh/α   predicted    -0.7956182E-04 ( -26.39%)
   displ. norm   :     0.3721410 α      lambda       -0.1586488E-03
   maximum displ.:     0.1718706 α      in ANC's #10, #4, #11, ...

........................................................................
.............................. CYCLE   19 ..............................
........................................................................

 iter      E             dE          RMSdq      gap      omega  full diag
   1   -150.1985607 -0.150199E+03  0.444E-02    3.05       0.0  T
   2   -150.1985635 -0.281698E-05  0.257E-02    3.05       1.0  T
   3   -150.1985610  0.250028E-05  0.613E-03    3.05       1.6  T
   4   -150.1985638 -0.285552E-05  0.207E-03    3.05       4.9  T
   5   -150.1985641 -0.306344E-06  0.708E-04    3.05      14.3  T
   6   -150.1985641 -0.629035E-08  0.382E-04    3.05      26.5  T
     SCC iter.                  ...        0 min,  0.110 sec
     gradient                   ...        0 min,  0.219 sec
 * total energy  :  -148.1935024 Eh     change       -0.1075327E-03 Eh
   gradient norm :     0.0046725 Eh/α   predicted    -0.9031133E-04 ( -16.01%)
   displ. norm   :     0.3872414 α      lambda       -0.1455638E-03
   maximum displ.:     0.2010093 α      in ANC's #10, #4, #11, ...

........................................................................
.............................. CYCLE   20 ..............................
........................................................................

 iter      E             dE          RMSdq      gap      omega  full diag
   1   -150.1960273 -0.150196E+03  0.480E-02    3.05       0.0  T
   2   -150.1960308 -0.350374E-05  0.277E-02    3.05       1.0  T
   3   -150.1960288  0.201584E-05  0.578E-03    3.05       1.7  T
   4   -150.1960309 -0.212871E-05  0.254E-03    3.05       4.0  T
   5   -150.1960314 -0.498448E-06  0.784E-04    3.05      12.9  T
   6   -150.1960314 -0.779076E-08  0.378E-04    3.05      26.7  T
     SCC iter.                  ...        0 min,  0.113 sec
     gradient                   ...        0 min,  0.213 sec
 * total energy  :  -148.1936059 Eh     change       -0.1034760E-03 Eh
   gradient norm :     0.0040319 Eh/α   predicted    -0.8369894E-04 ( -19.11%)
   displ. norm   :     0.3190046 α      lambda       -0.1173029E-03
   maximum displ.:     0.1566435 α      in ANC's #10, #4, #11, ...
 * RMSD in coord.:     0.5808359 α      energy gain  -0.2676317E-01 Eh

generating ANC from exact Hessian ...
Using Lindh-Hessian (1995)
 Shifting diagonal of input Hessian by    1.0048117163481028E-002
 Lowest  eigenvalues of input Hessian
    0.010000    0.000000    0.000000    0.000000    0.000000    0.000000
    0.000000    0.010105    0.010128    0.010201    0.010245    0.010414
    0.010450    0.010528    0.010603    0.010783    0.010915    0.010946
 Highest eigenvalues
    2.055082    2.070370    2.143915    2.323981    2.436809    2.521429


........................................................................
.............................. CYCLE   21 ..............................
........................................................................

 iter      E             dE          RMSdq      gap      omega  full diag
   1   -150.1968013 -0.150197E+03  0.373E-02    3.05       0.0  T
   2   -150.1968025 -0.115230E-05  0.216E-02    3.05       1.0  T
   3   -150.1968009  0.155091E-05  0.452E-03    3.05       2.2  T
   4   -150.1968027 -0.183698E-05  0.149E-03    3.05       6.8  T
   5   -150.1968029 -0.113200E-06  0.630E-04    3.05      16.0  T
   6   -150.1968029 -0.786019E-08  0.264E-04    3.05      38.3  T
     SCC iter.                  ...        0 min,  0.104 sec
     gradient                   ...        0 min,  0.252 sec
 * total energy  :  -148.1937004 Eh     change       -0.9451678E-04 Eh
   gradient norm :     0.0040154 Eh/α   predicted     0.0000000E+00 (-100.00%)
   displ. norm   :     0.0483236 α      lambda       -0.4868409E-04
   maximum displ.:     0.0190175 α      in ANC's #4, #18, #9, ...

........................................................................
.............................. CYCLE   22 ..............................
........................................................................

 iter      E             dE          RMSdq      gap      omega  full diag
   1   -150.1978662 -0.150198E+03  0.888E-03    3.05       0.0  T
   2   -150.1978666 -0.326890E-06  0.511E-03    3.05       2.0  T
   3   -150.1978665  0.391065E-07  0.143E-03    3.05       7.1  T
   4   -150.1978666 -0.666876E-07  0.527E-04    3.05      19.2  T
   5   -150.1978666 -0.159964E-07  0.257E-04    3.05      39.3  T
     SCC iter.                  ...        0 min,  0.098 sec
     gradient                   ...        0 min,  0.216 sec
 * total energy  :  -148.1937451 Eh     change       -0.4467358E-04 Eh
   gradient norm :     0.0022230 Eh/α   predicted    -0.2704560E-04 ( -39.46%)
   displ. norm   :     0.1600274 α      lambda       -0.1133375E-03
   maximum displ.:     0.0659392 α      in ANC's #4, #9, #10, ...

........................................................................
.............................. CYCLE   23 ..............................
........................................................................

 iter      E             dE          RMSdq      gap      omega  full diag
   1   -150.1991968 -0.150199E+03  0.258E-02    3.06       0.0  T
   2   -150.1991988 -0.206372E-05  0.149E-02    3.06       1.0  T
   3   -150.1991984  0.425355E-06  0.384E-03    3.06       2.6  T
   4   -150.1991990 -0.610643E-06  0.150E-03    3.06       6.7  T
   5   -150.1991991 -0.139931E-06  0.679E-04    3.06      14.9  T
   6   -150.1991992 -0.142186E-07  0.284E-04    3.06      35.5  T
     SCC iter.                  ...        0 min,  0.115 sec
     gradient                   ...        0 min,  0.275 sec
 * total energy  :  -148.1938179 Eh     change       -0.7283689E-04 Eh
   gradient norm :     0.0024933 Eh/α   predicted    -0.5812106E-04 ( -20.20%)
   displ. norm   :     0.1239407 α      lambda       -0.4504526E-04
   maximum displ.:     0.0549445 α      in ANC's #4, #9, #10, ...

........................................................................
.............................. CYCLE   24 ..............................
........................................................................

 iter      E             dE          RMSdq      gap      omega  full diag
   1   -150.1990040 -0.150199E+03  0.189E-02    3.06       0.0  T
   2   -150.1990046 -0.547616E-06  0.109E-02    3.06       1.0  T
   3   -150.1990044  0.130581E-06  0.199E-03    3.06       5.1  T
   4   -150.1990046 -0.190829E-06  0.924E-04    3.06      10.9  T
   5   -150.1990047 -0.487641E-07  0.390E-04    3.06      25.9  T
     SCC iter.                  ...        0 min,  0.149 sec
     gradient                   ...        0 min,  0.218 sec
 * total energy  :  -148.1938548 Eh     change       -0.3688981E-04 Eh
   gradient norm :     0.0031007 Eh/α   predicted    -0.2287020E-04 ( -38.00%)
   displ. norm   :     0.2175413 α      lambda       -0.7609729E-04
   maximum displ.:     0.0980167 α      in ANC's #4, #9, #10, ...

........................................................................
.............................. CYCLE   25 ..............................
........................................................................

 iter      E             dE          RMSdq      gap      omega  full diag
   1   -150.1981738 -0.150198E+03  0.327E-02    3.06       0.0  T
   2   -150.1981750 -0.120025E-05  0.188E-02    3.06       1.0  T
   3   -150.1981747  0.269402E-06  0.294E-03    3.06       3.4  T
   4   -150.1981751 -0.402730E-06  0.152E-03    3.06       6.6  T
   5   -150.1981753 -0.127573E-06  0.598E-04    3.06      16.9  T
   6   -150.1981753 -0.941165E-08  0.227E-04    3.06      44.6  T
     SCC iter.                  ...        0 min,  0.116 sec
     gradient                   ...        0 min,  0.218 sec
 * total energy  :  -148.1939165 Eh     change       -0.6168570E-04 Eh
   gradient norm :     0.0030416 Eh/α   predicted    -0.3985318E-04 ( -35.39%)
   displ. norm   :     0.2906878 α      lambda       -0.9076641E-04
   maximum displ.:     0.1341313 α      in ANC's #4, #9, #10, ...

........................................................................
.............................. CYCLE   26 ..............................
........................................................................

 iter      E             dE          RMSdq      gap      omega  full diag
   1   -150.1970986 -0.150197E+03  0.436E-02    3.06       0.0  T
   2   -150.1971005 -0.186817E-05  0.250E-02    3.06       1.0  T
   3   -150.1970999  0.622143E-06  0.403E-03    3.06       2.5  T
   4   -150.1971007 -0.777443E-06  0.218E-03    3.06       4.6  T
   5   -150.1971009 -0.281926E-06  0.731E-04    3.06      13.8  T
   6   -150.1971009 -0.109503E-07  0.248E-04    3.06      40.8  T
     SCC iter.                  ...        0 min,  0.111 sec
     gradient                   ...        0 min,  0.222 sec
 * total energy  :  -148.1939882 Eh     change       -0.7163729E-04 Eh
   gradient norm :     0.0031126 Eh/α   predicted    -0.4923120E-04 ( -31.28%)
   displ. norm   :     0.3053105 α      lambda       -0.8829688E-04
   maximum displ.:     0.1446354 α      in ANC's #4, #9, #10, ...

........................................................................
.............................. CYCLE   27 ..............................
........................................................................

 iter      E             dE          RMSdq      gap      omega  full diag
   1   -150.1965790 -0.150197E+03  0.453E-02    3.06       0.0  T
   2   -150.1965808 -0.180709E-05  0.260E-02    3.06       1.0  T
   3   -150.1965798  0.101644E-05  0.452E-03    3.06       2.2  T
   4   -150.1965810 -0.120328E-05  0.225E-03    3.06       4.5  T
   5   -150.1965813 -0.287603E-06  0.754E-04    3.06      13.4  T
   6   -150.1965813 -0.115375E-07  0.267E-04    3.06      37.8  T
     SCC iter.                  ...        0 min,  0.122 sec
     gradient                   ...        0 min,  0.264 sec
 * total energy  :  -148.1940601 Eh     change       -0.7194436E-04 Eh
   gradient norm :     0.0034741 Eh/α   predicted    -0.4826870E-04 ( -32.91%)
   displ. norm   :     0.3450937 α      lambda       -0.1056798E-03
   maximum displ.:     0.1670810 α      in ANC's #4, #9, #5, ...

........................................................................
.............................. CYCLE   28 ..............................
........................................................................

 iter      E             dE          RMSdq      gap      omega  full diag
   1   -150.1967517 -0.150197E+03  0.510E-02    3.06       0.0  T
   2   -150.1967537 -0.199878E-05  0.293E-02    3.06       1.0  T
   3   -150.1967519  0.182053E-05  0.550E-03    3.06       1.8  T
   4   -150.1967541 -0.216627E-05  0.238E-03    3.06       4.2  T
   5   -150.1967543 -0.276399E-06  0.881E-04    3.06      11.5  T
   6   -150.1967543 -0.197593E-07  0.328E-04    3.06      30.8  T
     SCC iter.                  ...        0 min,  0.116 sec
     gradient                   ...        0 min,  0.260 sec
 * total energy  :  -148.1941480 Eh     change       -0.8789322E-04 Eh
   gradient norm :     0.0038659 Eh/α   predicted    -0.5913326E-04 ( -32.72%)
   displ. norm   :     0.4245835 α      lambda       -0.1351029E-03
   maximum displ.:     0.2086311 α      in ANC's #4, #9, #5, ...

........................................................................
.............................. CYCLE   29 ..............................
........................................................................

 iter      E             dE          RMSdq      gap      omega  full diag
   1   -150.1971781 -0.150197E+03  0.629E-02    3.07       0.0  T
   2   -150.1971806 -0.242166E-05  0.362E-02    3.06       1.0  T
   3   -150.1971774  0.319107E-05  0.696E-03    3.06       1.5  T
   4   -150.1971812 -0.386318E-05  0.271E-03    3.06       3.7  T
   5   -150.1971815 -0.266951E-06  0.108E-03    3.06       9.3  T
   6   -150.1971815 -0.438198E-07  0.388E-04    3.06      26.0  T
   7   -150.1971816 -0.894369E-08  0.167E-04    3.06      60.3  T
     SCC iter.                  ...        0 min,  0.160 sec
     gradient                   ...        0 min,  0.209 sec
 * total energy  :  -148.1942611 Eh     change       -0.1131417E-03 Eh
   gradient norm :     0.0044415 Eh/α   predicted    -0.7973698E-04 ( -29.52%)
   displ. norm   :     0.5038354 α      lambda       -0.1635899E-03
   maximum displ.:     0.2508391 α      in ANC's #4, #9, #5, ...

........................................................................
.............................. CYCLE   30 ..............................
........................................................................

 iter      E             dE          RMSdq      gap      omega  full diag
   1   -150.1973711 -0.150197E+03  0.752E-02    3.07       0.0  T
   2   -150.1973741 -0.294640E-05  0.433E-02    3.07       1.0  T
   3   -150.1973697  0.433106E-05  0.811E-03    3.07       1.2  T
   4   -150.1973751 -0.534695E-05  0.309E-03    3.07       3.3  T
   5   -150.1973753 -0.259521E-06  0.126E-03    3.07       8.0  T
   6   -150.1973754 -0.823266E-07  0.413E-04    3.07      24.5  T
   7   -150.1973754 -0.866456E-08  0.192E-04    3.07      52.7  T
     SCC iter.                  ...        0 min,  0.127 sec
     gradient                   ...        0 min,  0.219 sec
 * total energy  :  -148.1943994 Eh     change       -0.1382935E-03 Eh
   gradient norm :     0.0048642 Eh/α   predicted    -0.1025721E-03 ( -25.83%)
   displ. norm   :     0.5541314 α      lambda       -0.1919606E-03
   maximum displ.:     0.2804992 α      in ANC's #4, #9, #5, ...

........................................................................
.............................. CYCLE   31 ..............................
........................................................................

 iter      E             dE          RMSdq      gap      omega  full diag
   1   -150.1977933 -0.150198E+03  0.827E-02    3.07       0.0  T
   2   -150.1977972 -0.387809E-05  0.475E-02    3.07       1.0  T
   3   -150.1977925  0.466786E-05  0.874E-03    3.07       1.2  T
   4   -150.1977983 -0.583310E-05  0.345E-03    3.07       2.9  T
   5   -150.1977987 -0.349741E-06  0.140E-03    3.07       7.2  T
   6   -150.1977988 -0.981834E-07  0.465E-04    3.07      21.7  T
   7   -150.1977988 -0.111513E-07  0.209E-04    3.07      48.3  T
     SCC iter.                  ...        0 min,  0.178 sec
     gradient                   ...        0 min,  0.224 sec
 * total energy  :  -148.1945604 Eh     change       -0.1609492E-03 Eh
   gradient norm :     0.0044388 Eh/α   predicted    -0.1254579E-03 ( -22.05%)
   displ. norm   :     0.5859730 α      lambda       -0.2006549E-03
   maximum displ.:     0.3013551 α      in ANC's #4, #9, #5, ...

........................................................................
.............................. CYCLE   32 ..............................
........................................................................

 iter      E             dE          RMSdq      gap      omega  full diag
   1   -150.1974276 -0.150197E+03  0.883E-02    3.07       0.0  T
   2   -150.1974329 -0.525369E-05  0.506E-02    3.07       1.0  T
   3   -150.1974285  0.439788E-05  0.908E-03    3.07       1.1  T
   4   -150.1974339 -0.541924E-05  0.407E-03    3.07       2.5  T
   5   -150.1974346 -0.711686E-06  0.146E-03    3.07       6.9  T
   6   -150.1974347 -0.716364E-07  0.507E-04    3.07      19.9  T
   7   -150.1974347 -0.138597E-07  0.227E-04    3.07      44.4  T
     SCC iter.                  ...        0 min,  0.109 sec
     gradient                   ...        0 min,  0.219 sec
 * total energy  :  -148.1947283 Eh     change       -0.1679488E-03 Eh
   gradient norm :     0.0043814 Eh/α   predicted    -0.1347789E-03 ( -19.75%)
   displ. norm   :     0.5278641 α      lambda       -0.2235732E-03
   maximum displ.:     0.2770877 α      in ANC's #4, #5, #9, ...

........................................................................
.............................. CYCLE   33 ..............................
........................................................................

 iter      E             dE          RMSdq      gap      omega  full diag
   1   -150.2013439 -0.150201E+03  0.784E-02    3.09       0.0  T
   2   -150.2013519 -0.800074E-05  0.448E-02    3.09       1.0  T
   3   -150.2013458  0.617036E-05  0.108E-02    3.09       1.0  T
   4   -150.2013532 -0.744256E-05  0.405E-03    3.09       2.5  T
   5   -150.2013540 -0.783853E-06  0.169E-03    3.09       6.0  T
   6   -150.2013541 -0.758423E-07  0.663E-04    3.09      15.2  T
   7   -150.2013541 -0.263242E-07  0.238E-04    3.09      42.5  T
     SCC iter.                  ...        0 min,  0.122 sec
     gradient                   ...        0 min,  0.217 sec
 * total energy  :  -148.1948774 Eh     change       -0.1490714E-03 Eh
   gradient norm :     0.0047162 Eh/α   predicted    -0.1429366E-03 (  -4.12%)
   displ. norm   :     0.7234097 α      lambda       -0.2628703E-03
   maximum displ.:     0.3730227 α      in ANC's #4, #9, #5, ...

........................................................................
.............................. CYCLE   34 ..............................
........................................................................

 iter      E             dE          RMSdq      gap      omega  full diag
   1   -150.1930955 -0.150193E+03  0.117E-01    3.05       0.0  T
   2   -150.1931053 -0.984677E-05  0.669E-02    3.05       1.0  T
   3   -150.1930927  0.126290E-04  0.145E-02    3.05       1.0  T
   4   -150.1931079 -0.152092E-04  0.583E-03    3.05       1.7  T
   5   -150.1931092 -0.129452E-05  0.210E-03    3.05       4.8  T
   6   -150.1931094 -0.169629E-06  0.744E-04    3.05      13.6  T
   7   -150.1931094 -0.314530E-07  0.323E-04    3.05      31.3  T
     SCC iter.                  ...        0 min,  0.135 sec
     gradient                   ...        0 min,  0.256 sec
 * total energy  :  -148.1949821 Eh     change       -0.1047168E-03 Eh
   gradient norm :     0.0115365 Eh/α   predicted    -0.2002248E-03 (  91.21%)
   displ. norm   :     0.0919071 α      lambda       -0.1869184E-03
   maximum displ.:     0.0393398 α      in ANC's #4, #5, #17, ...

........................................................................
.............................. CYCLE   35 ..............................
........................................................................

 iter      E             dE          RMSdq      gap      omega  full diag
   1   -150.1972264 -0.150197E+03  0.179E-02    3.07       0.0  T
   2   -150.1972274 -0.103161E-05  0.103E-02    3.07       1.0  T
   3   -150.1972265  0.931836E-06  0.462E-03    3.07       2.2  T
   4   -150.1972278 -0.132738E-05  0.116E-03    3.07       8.7  T
   5   -150.1972279 -0.432629E-07  0.554E-04    3.07      18.2  T
   6   -150.1972279 -0.110772E-07  0.249E-04    3.07      40.5  T
     SCC iter.                  ...        0 min,  0.122 sec
     gradient                   ...        0 min,  0.258 sec
 * total energy  :  -148.1951249 Eh     change       -0.1427750E-03 Eh
   gradient norm :     0.0059230 Eh/α   predicted    -0.9424888E-04 ( -33.99%)
   displ. norm   :     0.4543535 α      lambda       -0.2472042E-03
   maximum displ.:     0.2434986 α      in ANC's #4, #5, #9, ...

........................................................................
.............................. CYCLE   36 ..............................
........................................................................

 iter      E             dE          RMSdq      gap      omega  full diag
   1   -150.2002942 -0.150200E+03  0.672E-02    3.08       0.0  T
   2   -150.2002985 -0.429505E-05  0.383E-02    3.08       1.0  T
   3   -150.2002958  0.269411E-05  0.774E-03    3.08       1.3  T
   4   -150.2002993 -0.344096E-05  0.326E-03    3.08       3.1  T
   5   -150.2002997 -0.447896E-06  0.137E-03    3.08       7.4  T
   6   -150.2002998 -0.686906E-07  0.483E-04    3.08      20.9  T
   7   -150.2002998 -0.139462E-07  0.186E-04    3.08      54.3  T
     SCC iter.                  ...        0 min,  0.167 sec
     gradient                   ...        0 min,  0.199 sec
 * total energy  :  -148.1953132 Eh     change       -0.1882962E-03 Eh
   gradient norm :     0.0036565 Eh/α   predicted    -0.1491160E-03 ( -20.81%)
   displ. norm   :     0.6199690 α      lambda       -0.2054974E-03
   maximum displ.:     0.3348299 α      in ANC's #4, #5, #9, ...

........................................................................
.............................. CYCLE   37 ..............................
........................................................................

 iter      E             dE          RMSdq      gap      omega  full diag
   1   -150.1984132 -0.150198E+03  0.930E-02    3.07       0.0  T
   2   -150.1984183 -0.504646E-05  0.532E-02    3.07       1.0  T
   3   -150.1984149  0.336665E-05  0.861E-03    3.07       1.2  T
   4   -150.1984192 -0.429775E-05  0.441E-03    3.07       2.3  T
   5   -150.1984201 -0.900904E-06  0.121E-03    3.07       8.3  T
   6   -150.1984202 -0.496459E-07  0.426E-04    3.07      23.7  T
   7   -150.1984202 -0.673933E-08  0.222E-04    3.07      45.6  T
     SCC iter.                  ...        0 min,  0.155 sec
     gradient                   ...        0 min,  0.191 sec
 * total energy  :  -148.1954842 Eh     change       -0.1710015E-03 Eh
   gradient norm :     0.0047508 Eh/α   predicted    -0.1422395E-03 ( -16.82%)
   displ. norm   :     0.5969947 α      lambda       -0.2179472E-03
   maximum displ.:     0.3213709 α      in ANC's #4, #5, #9, ...

........................................................................
.............................. CYCLE   38 ..............................
........................................................................

 iter      E             dE          RMSdq      gap      omega  full diag
   1   -150.1985940 -0.150199E+03  0.890E-02    3.06       0.0  T
   2   -150.1985991 -0.503267E-05  0.508E-02    3.06       1.0  T
   3   -150.1985973  0.181639E-05  0.763E-03    3.06       1.3  T
   4   -150.1985999 -0.261254E-05  0.423E-03    3.06       2.4  T
   5   -150.1986007 -0.855319E-06  0.142E-03    3.06       7.1  T
   6   -150.1986008 -0.882859E-07  0.457E-04    3.06      22.1  T
   7   -150.1986008 -0.108811E-07  0.230E-04    3.06      43.8  T
     SCC iter.                  ...        0 min,  0.115 sec
     gradient                   ...        0 min,  0.195 sec
 * total energy  :  -148.1956515 Eh     change       -0.1672645E-03 Eh
   gradient norm :     0.0063189 Eh/α   predicted    -0.1478207E-03 ( -11.62%)
   displ. norm   :     0.5098041 α      lambda       -0.1996185E-03
   maximum displ.:     0.2732775 α      in ANC's #4, #5, #9, ...

........................................................................
.............................. CYCLE   39 ..............................
........................................................................

 iter      E             dE          RMSdq      gap      omega  full diag
   1   -150.1983835 -0.150198E+03  0.735E-02    3.06       0.0  T
   2   -150.1983880 -0.448091E-05  0.424E-02    3.06       1.0  T
   3   -150.1983831  0.483502E-05  0.868E-03    3.06       1.2  T
   4   -150.1983891 -0.598450E-05  0.326E-03    3.06       3.1  T
   5   -150.1983895 -0.380700E-06  0.142E-03    3.06       7.1  T
   6   -150.1983896 -0.478814E-07  0.594E-04    3.06      17.0  T
   7   -150.1983896 -0.267947E-07  0.195E-04    3.06      51.9  T
     SCC iter.                  ...        0 min,  0.098 sec
     gradient                   ...        0 min,  0.165 sec
 * total energy  :  -148.1958060 Eh     change       -0.1545405E-03 Eh
   gradient norm :     0.0063060 Eh/α   predicted    -0.1257494E-03 ( -18.63%)
   displ. norm   :     0.5471525 α      lambda       -0.2238777E-03
   maximum displ.:     0.2899320 α      in ANC's #4, #5, #20, ...

........................................................................
.............................. CYCLE   40 ..............................
........................................................................

 iter      E             dE          RMSdq      gap      omega  full diag
   1   -150.1989444 -0.150199E+03  0.776E-02    3.05       0.0  T
   2   -150.1989490 -0.463113E-05  0.442E-02    3.05       1.0  T
   3   -150.1989478  0.117324E-05  0.685E-03    3.05       1.5  T
   4   -150.1989499 -0.210865E-05  0.324E-03    3.05       3.1  T
   5   -150.1989504 -0.410732E-06  0.125E-03    3.05       8.1  T
   6   -150.1989504 -0.568788E-07  0.412E-04    3.05      24.5  T
   7   -150.1989504 -0.796501E-08  0.212E-04    3.05      47.7  T
     SCC iter.                  ...        0 min,  0.085 sec
     gradient                   ...        0 min,  0.154 sec
 * total energy  :  -148.1959778 Eh     change       -0.1717710E-03 Eh
   gradient norm :     0.0065429 Eh/α   predicted    -0.1454514E-03 ( -15.32%)
   displ. norm   :     0.4733701 α      lambda       -0.2274959E-03
   maximum displ.:     0.2426889 α      in ANC's #5, #4, #20, ...

........................................................................
.............................. CYCLE   41 ..............................
........................................................................

 iter      E             dE          RMSdq      gap      omega  full diag
   1   -150.2020580 -0.150202E+03  0.681E-02    3.06       0.0  T
   2   -150.2020629 -0.487196E-05  0.393E-02    3.06       1.0  T
   3   -150.2020588  0.406100E-05  0.830E-03    3.06       1.2  T
   4   -150.2020641 -0.529483E-05  0.290E-03    3.06       3.5  T
   5   -150.2020644 -0.264922E-06  0.130E-03    3.06       7.8  T
   6   -150.2020644 -0.295527E-07  0.562E-04    3.06      18.0  T
   7   -150.2020644 -0.237420E-07  0.203E-04    3.06      49.7  T
     SCC iter.                  ...        0 min,  0.091 sec
     gradient                   ...        0 min,  0.135 sec
 * total energy  :  -148.1961279 Eh     change       -0.1501346E-03 Eh
   gradient norm :     0.0054842 Eh/α   predicted    -0.1392342E-03 (  -7.26%)
   displ. norm   :     0.6928533 α      lambda       -0.1941998E-03
   maximum displ.:     0.3741560 α      in ANC's #4, #5, #9, ...

........................................................................
.............................. CYCLE   42 ..............................
........................................................................

 iter      E             dE          RMSdq      gap      omega  full diag
   1   -150.1920776 -0.150192E+03  0.994E-02    3.03       0.0  T
   2   -150.1920841 -0.647562E-05  0.573E-02    3.03       1.0  T
   3   -150.1920816  0.249177E-05  0.843E-03    3.03       1.2  T
   4   -150.1920853 -0.373820E-05  0.434E-03    3.03       2.3  T
   5   -150.1920860 -0.693188E-06  0.171E-03    3.03       5.9  T
   6   -150.1920862 -0.163343E-06  0.536E-04    3.03      18.8  T
   7   -150.1920862 -0.129882E-07  0.266E-04    3.03      38.0  T
     SCC iter.                  ...        0 min,  0.117 sec
     gradient                   ...        0 min,  0.208 sec
 * total energy  :  -148.1961602 Eh     change       -0.3229749E-04 Eh
   gradient norm :     0.0121568 Eh/α   predicted    -0.1437104E-03 ( 344.96%)
   displ. norm   :     0.1623824 α      lambda       -0.3151363E-03
   maximum displ.:     0.0531681 α      in ANC's #13, #5, #7, ...
 * RMSD in coord.:     0.8264870 α      energy gain  -0.2554280E-02 Eh

generating ANC from exact Hessian ...
Using Lindh-Hessian (1995)
 Shifting diagonal of input Hessian by    1.0047735041582637E-002
 Lowest  eigenvalues of input Hessian
    0.010000    0.000000    0.000000    0.000000    0.000000    0.000000
    0.000000    0.010103    0.010157    0.010197    0.010293    0.010427
    0.010456    0.010528    0.010613    0.010782    0.010920    0.010959
 Highest eigenvalues
    2.068270    2.083045    2.154684    2.322187    2.437655    2.526229


........................................................................
.............................. CYCLE   43 ..............................
........................................................................

 iter      E             dE          RMSdq      gap      omega  full diag
   1   -150.2017399 -0.150202E+03  0.375E-02    3.07       0.0  T
   2   -150.2017475 -0.765260E-05  0.202E-02    3.06       1.0  T
   3   -150.2017447  0.282547E-05  0.109E-02    3.07       1.0  T
   4   -150.2017494 -0.469358E-05  0.382E-03    3.07       2.6  T
   5   -150.2017502 -0.791520E-06  0.135E-03    3.07       7.5  T
   6   -150.2017503 -0.637218E-07  0.638E-04    3.07      15.8  T
   7   -150.2017503 -0.219565E-07  0.165E-04    3.07      61.2  T
     SCC iter.                  ...        0 min,  0.113 sec
     gradient                   ...        0 min,  0.225 sec
 * total energy  :  -148.1962465 Eh     change       -0.8631034E-04 Eh
   gradient norm :     0.0100896 Eh/α   predicted     0.0000000E+00 (-100.00%)
   displ. norm   :     0.0650872 α      lambda       -0.1946041E-03
   maximum displ.:     0.0329019 α      in ANC's #21, #20, #13, ...

........................................................................
.............................. CYCLE   44 ..............................
........................................................................

 iter      E             dE          RMSdq      gap      omega  full diag
   1   -150.2029649 -0.150203E+03  0.223E-02    3.06       0.0  T
   2   -150.2029662 -0.134718E-05  0.128E-02    3.06       1.0  T
   3   -150.2029646  0.156552E-05  0.495E-03    3.06       2.0  T
   4   -150.2029665 -0.186901E-05  0.160E-03    3.06       6.3  T
   5   -150.2029666 -0.140921E-06  0.584E-04    3.06      17.3  T
   6   -150.2029667 -0.338673E-08  0.282E-04    3.06      35.8  T
     SCC iter.                  ...        0 min,  0.122 sec
     gradient                   ...        0 min,  0.270 sec
 * total energy  :  -148.1963748 Eh     change       -0.1283168E-03 Eh
   gradient norm :     0.0037566 Eh/α   predicted    -0.9771459E-04 ( -23.85%)
   displ. norm   :     0.0992117 α      lambda       -0.1043289E-03
   maximum displ.:     0.0571015 α      in ANC's #21, #20, #13, ...

........................................................................
.............................. CYCLE   45 ..............................
........................................................................

 iter      E             dE          RMSdq      gap      omega  full diag
   1   -150.2035251 -0.150204E+03  0.234E-02    3.05       0.0  T
   2   -150.2035261 -0.102867E-05  0.134E-02    3.05       1.0  T
   3   -150.2035239  0.222605E-05  0.551E-03    3.05       1.8  T
   4   -150.2035265 -0.262322E-05  0.151E-03    3.05       6.7  T
   5   -150.2035266 -0.812780E-07  0.592E-04    3.05      17.1  T
   6   -150.2035266 -0.290999E-08  0.196E-04    3.05      51.6  T
     SCC iter.                  ...        0 min,  0.128 sec
     gradient                   ...        0 min,  0.276 sec
 * total energy  :  -148.1964485 Eh     change       -0.7366103E-04 Eh
   gradient norm :     0.0028310 Eh/α   predicted    -0.5267873E-04 ( -28.48%)
   displ. norm   :     0.1505112 α      lambda       -0.9146931E-04
   maximum displ.:     0.0933676 α      in ANC's #21, #20, #13, ...

........................................................................
.............................. CYCLE   46 ..............................
........................................................................

 iter      E             dE          RMSdq      gap      omega  full diag
   1   -150.2031577 -0.150203E+03  0.358E-02    3.05       0.0  T
   2   -150.2031590 -0.128336E-05  0.203E-02    3.05       1.0  T
   3   -150.2031576  0.140296E-05  0.486E-03    3.05       2.1  T
   4   -150.2031594 -0.175362E-05  0.194E-03    3.05       5.2  T
   5   -150.2031595 -0.131939E-06  0.698E-04    3.05      14.5  T
   6   -150.2031595 -0.122247E-07  0.202E-04    3.05      49.9  T
     SCC iter.                  ...        0 min,  0.169 sec
     gradient                   ...        0 min,  0.231 sec
 * total energy  :  -148.1965186 Eh     change       -0.7006972E-04 Eh
   gradient norm :     0.0056663 Eh/α   predicted    -0.4677134E-04 ( -33.25%)
   displ. norm   :     0.2006402 α      lambda       -0.1052983E-03
   maximum displ.:     0.1224288 α      in ANC's #21, #20, #13, ...

........................................................................
.............................. CYCLE   47 ..............................
........................................................................

 iter      E             dE          RMSdq      gap      omega  full diag
   1   -150.2022184 -0.150202E+03  0.463E-02    3.04       0.0  T
   2   -150.2022202 -0.181930E-05  0.260E-02    3.04       1.0  T
   3   -150.2022200  0.181401E-06  0.407E-03    3.04       2.5  T
   4   -150.2022205 -0.474619E-06  0.232E-03    3.04       4.4  T
   5   -150.2022208 -0.250818E-06  0.848E-04    3.04      11.9  T
   6   -150.2022208 -0.376809E-07  0.253E-04    3.04      39.9  T
     SCC iter.                  ...        0 min,  0.116 sec
     gradient                   ...        0 min,  0.271 sec
 * total energy  :  -148.1966028 Eh     change       -0.8425387E-04 Eh
   gradient norm :     0.0064241 Eh/α   predicted    -0.5478039E-04 ( -34.98%)
   displ. norm   :     0.2524244 α      lambda       -0.1271091E-03
   maximum displ.:     0.1538474 α      in ANC's #21, #5, #13, ...

........................................................................
.............................. CYCLE   48 ..............................
........................................................................

 iter      E             dE          RMSdq      gap      omega  full diag
   1   -150.2011361 -0.150201E+03  0.573E-02    3.04       0.0  T
   2   -150.2011390 -0.289732E-05  0.321E-02    3.03       1.0  T
   3   -150.2011391 -0.169218E-06  0.467E-03    3.04       2.2  T
   4   -150.2011396 -0.425518E-06  0.239E-03    3.04       4.2  T
   5   -150.2011398 -0.199661E-06  0.980E-04    3.04      10.3  T
   6   -150.2011398 -0.556151E-07  0.330E-04    3.04      30.6  T
     SCC iter.                  ...        0 min,  0.116 sec
     gradient                   ...        0 min,  0.231 sec
 * total energy  :  -148.1967029 Eh     change       -0.1001130E-03 Eh
   gradient norm :     0.0054755 Eh/α   predicted    -0.6760505E-04 ( -32.47%)
   displ. norm   :     0.2837954 α      lambda       -0.1347618E-03
   maximum displ.:     0.1755621 α      in ANC's #21, #5, #13, ...

........................................................................
.............................. CYCLE   49 ..............................
........................................................................

 iter      E             dE          RMSdq      gap      omega  full diag
   1   -150.2005641 -0.150201E+03  0.635E-02    3.04       0.0  T
   2   -150.2005680 -0.389800E-05  0.355E-02    3.03       1.0  T
   3   -150.2005681 -0.759011E-07  0.550E-03    3.04       1.8  T
   4   -150.2005687 -0.675349E-06  0.280E-03    3.03       3.6  T
   5   -150.2005690 -0.254932E-06  0.126E-03    3.03       8.0  T
   6   -150.2005691 -0.885019E-07  0.405E-04    3.03      24.9  T
   7   -150.2005691 -0.868371E-08  0.191E-04    3.03      52.9  T
     SCC iter.                  ...        0 min,  0.169 sec
     gradient                   ...        0 min,  0.206 sec
 * total energy  :  -148.1968070 Eh     change       -0.1040844E-03 Eh
   gradient norm :     0.0043491 Eh/α   predicted    -0.7281021E-04 ( -30.05%)
   displ. norm   :     0.2889460 α      lambda       -0.1318819E-03
   maximum displ.:     0.1815125 α      in ANC's #21, #5, #6, ...

........................................................................
.............................. CYCLE   50 ..............................
........................................................................

 iter      E             dE          RMSdq      gap      omega  full diag
   1   -150.2010124 -0.150201E+03  0.634E-02    3.04       0.0  T
   2   -150.2010165 -0.406797E-05  0.355E-02    3.03       1.0  T
   3   -150.2010158  0.666729E-06  0.626E-03    3.04       1.6  T
   4   -150.2010172 -0.135822E-05  0.326E-03    3.03       3.1  T
   5   -150.2010176 -0.447140E-06  0.137E-03    3.04       7.4  T
   6   -150.2010177 -0.837510E-07  0.441E-04    3.04      22.9  T
   7   -150.2010177 -0.108142E-07  0.192E-04    3.04      52.5  T
     SCC iter.                  ...        0 min,  0.121 sec
     gradient                   ...        0 min,  0.237 sec
 * total energy  :  -148.1969069 Eh     change       -0.9984656E-04 Eh
   gradient norm :     0.0036185 Eh/α   predicted    -0.7144673E-04 ( -28.44%)
   displ. norm   :     0.2786910 α      lambda       -0.1103648E-03
   maximum displ.:     0.1761392 α      in ANC's #21, #5, #3, ...

........................................................................
.............................. CYCLE   51 ..............................
........................................................................

 iter      E             dE          RMSdq      gap      omega  full diag
   1   -150.2019483 -0.150202E+03  0.594E-02    3.04       0.0  T
   2   -150.2019518 -0.347412E-05  0.334E-02    3.03       1.0  T
   3   -150.2019502  0.160839E-05  0.668E-03    3.04       1.5  T
   4   -150.2019524 -0.227067E-05  0.336E-03    3.03       3.0  T
   5   -150.2019530 -0.511176E-06  0.115E-03    3.03       8.8  T
   6   -150.2019530 -0.424596E-07  0.368E-04    3.03      27.4  T
   7   -150.2019530 -0.647282E-08  0.176E-04    3.03      57.4  T
     SCC iter.                  ...        0 min,  0.114 sec
     gradient                   ...        0 min,  0.195 sec
 * total energy  :  -148.1969904 Eh     change       -0.8358275E-04 Eh
   gradient norm :     0.0035875 Eh/α   predicted    -0.5946861E-04 ( -28.85%)
   displ. norm   :     0.2542813 α      lambda       -0.9881954E-04
   maximum displ.:     0.1530059 α      in ANC's #21, #5, #3, ...

........................................................................
.............................. CYCLE   52 ..............................
........................................................................

 iter      E             dE          RMSdq      gap      omega  full diag
   1   -150.2038827 -0.150204E+03  0.503E-02    3.04       0.0  T
   2   -150.2038854 -0.265749E-05  0.281E-02    3.04       1.0  T
   3   -150.2038843  0.106059E-05  0.563E-03    3.04       1.8  T
   4   -150.2038859 -0.159711E-05  0.276E-03    3.04       3.7  T
   5   -150.2038862 -0.314393E-06  0.104E-03    3.04       9.7  T
   6   -150.2038863 -0.425788E-07  0.372E-04    3.04      27.1  T
   7   -150.2038863 -0.797388E-08  0.149E-04    3.04      67.8  T
     SCC iter.                  ...        0 min,  0.116 sec
     gradient                   ...        0 min,  0.207 sec
 * total energy  :  -148.1970614 Eh     change       -0.7099556E-04 Eh
   gradient norm :     0.0032233 Eh/α   predicted    -0.5261082E-04 ( -25.90%)
   displ. norm   :     0.4334668 α      lambda       -0.1109846E-03
   maximum displ.:     0.2784157 α      in ANC's #21, #5, #3, ...

........................................................................
.............................. CYCLE   53 ..............................
........................................................................

 iter      E             dE          RMSdq      gap      omega  full diag
   1   -150.2000052 -0.150200E+03  0.923E-02    2.99       0.0  T
   2   -150.2000141 -0.891855E-05  0.524E-02    2.99       1.0  T
   3   -150.1999990  0.151179E-04  0.157E-02    2.99       1.0  T
   4   -150.2000184 -0.194065E-04  0.472E-03    2.99       2.1  T
   5   -150.2000184 -0.300792E-07  0.248E-03    2.99       4.1  T
   6   -150.2000189 -0.443871E-06  0.589E-04    2.99      17.1  T
   7   -150.2000189 -0.899377E-08  0.288E-04    2.99      35.0  T
     SCC iter.                  ...        0 min,  0.116 sec
     gradient                   ...        0 min,  0.208 sec
 * total energy  :  -148.1970362 Eh     change        0.2526725E-04 Eh
   gradient norm :     0.0109643 Eh/α   predicted    -0.6591965E-04 (-360.89%)
   displ. norm   :     0.1279170 α      lambda       -0.2390610E-03
   maximum displ.:     0.0709628 α      in ANC's #21, #13, #20, ...

........................................................................
.............................. CYCLE   54 ..............................
........................................................................

 iter      E             dE          RMSdq      gap      omega  full diag
   1   -150.2045320 -0.150205E+03  0.362E-02    3.04       0.0  T
   2   -150.2045344 -0.241538E-05  0.208E-02    3.03       1.0  T
   3   -150.2045288  0.566022E-05  0.987E-03    3.03       1.0  T
   4   -150.2045361 -0.737385E-05  0.223E-03    3.03       4.5  T
   5   -150.2045362 -0.260815E-07  0.131E-03    3.03       7.7  T
   6   -150.2045363 -0.100313E-06  0.342E-04    3.03      29.6  T
   7   -150.2045363 -0.519776E-08  0.145E-04    3.03      69.7  T
     SCC iter.                  ...        0 min,  0.143 sec
     gradient                   ...        0 min,  0.200 sec
 * total energy  :  -148.1971552 Eh     change       -0.1190641E-03 Eh
   gradient norm :     0.0019759 Eh/α   predicted    -0.1214868E-03 (   2.03%)
   displ. norm   :     0.2027713 α      lambda       -0.3714360E-04
   maximum displ.:     0.1248688 α      in ANC's #5, #21, #3, ...

........................................................................
.............................. CYCLE   55 ..............................
........................................................................

 iter      E             dE          RMSdq      gap      omega  full diag
   1   -150.2041520 -0.150204E+03  0.325E-02    3.03       0.0  T
   2   -150.2041530 -0.996273E-06  0.182E-02    3.02       1.0  T
   3   -150.2041530 -0.258690E-07  0.282E-03    3.02       3.6  T
   4   -150.2041532 -0.182545E-06  0.163E-03    3.02       6.2  T
   5   -150.2041533 -0.109445E-06  0.531E-04    3.02      19.0  T
   6   -150.2041533 -0.173631E-07  0.172E-04    3.02      58.8  T
     SCC iter.                  ...        0 min,  0.094 sec
     gradient                   ...        0 min,  0.213 sec
 * total energy  :  -148.1972016 Eh     change       -0.4641177E-04 Eh
   gradient norm :     0.0017023 Eh/α   predicted    -0.1891139E-04 ( -59.25%)
   displ. norm   :     0.3154789 α      lambda       -0.6206930E-04
   maximum displ.:     0.1951908 α      in ANC's #5, #21, #3, ...

........................................................................
.............................. CYCLE   56 ..............................
........................................................................

 iter      E             dE          RMSdq      gap      omega  full diag
   1   -150.2025109 -0.150203E+03  0.482E-02    3.00       0.0  T
   2   -150.2025133 -0.248859E-05  0.269E-02    3.00       1.0  T
   3   -150.2025112  0.209422E-05  0.659E-03    3.00       1.5  T
   4   -150.2025142 -0.295943E-05  0.262E-03    3.00       3.9  T
   5   -150.2025143 -0.137574E-06  0.107E-03    3.00       9.5  T
   6   -150.2025144 -0.715715E-07  0.341E-04    3.00      29.6  T
   7   -150.2025144 -0.436572E-08  0.168E-04    3.00      60.3  T
     SCC iter.                  ...        0 min,  0.115 sec
     gradient                   ...        0 min,  0.201 sec
 * total energy  :  -148.1972637 Eh     change       -0.6204764E-04 Eh
   gradient norm :     0.0028698 Eh/α   predicted    -0.3240960E-04 ( -47.77%)
   displ. norm   :     0.1628163 α      lambda       -0.4506363E-04
   maximum displ.:     0.1013114 α      in ANC's #5, #3, #2, ...

........................................................................
.............................. CYCLE   57 ..............................
........................................................................

 iter      E             dE          RMSdq      gap      omega  full diag
   1   -150.2026172 -0.150203E+03  0.195E-02    3.01       0.0  T
   2   -150.2026177 -0.426315E-06  0.112E-02    3.00       1.0  T
   3   -150.2026164  0.127247E-05  0.438E-03    3.00       2.3  T
   4   -150.2026179 -0.152733E-05  0.959E-04    3.00      10.5  T
   5   -150.2026179 -0.150322E-07  0.499E-04    3.00      20.2  T
   6   -150.2026179 -0.105344E-07  0.167E-04    3.00      60.4  T
     SCC iter.                  ...        0 min,  0.092 sec
     gradient                   ...        0 min,  0.196 sec
 * total energy  :  -148.1972961 Eh     change       -0.3239486E-04 Eh
   gradient norm :     0.0024023 Eh/α   predicted    -0.2313078E-04 ( -28.60%)
   displ. norm   :     0.2197669 α      lambda       -0.4486538E-04
   maximum displ.:     0.1382408 α      in ANC's #5, #3, #2, ...

........................................................................
.............................. CYCLE   58 ..............................
[...]
       130        1.9611           -0.3960923             -10.7782
       131        1.9363           -0.3955978             -10.7648
       132        1.8585           -0.3947568             -10.7419
       133        1.7914           -0.3943110             -10.7297
       134        1.4735           -0.3929437             -10.6925
       135        0.6578           -0.2533547              -6.8941 (HOMO)
       136        0.3422           -0.2521127              -6.8603 (LUMO)
       137                         -0.2328093              -6.3351
       138                         -0.2321917              -6.3183
       139                         -0.2274668              -6.1897
       140                         -0.2261541              -6.1540
       ...                                ...                  ...
       258                          0.6637382              18.0612
      -------------------------------------------------------------
                  HL-Gap            0.0012420 Eh            0.0338 eV
             Fermi-level           -0.3228890 Eh           -8.7863 eV

 transition dipole moment (au) for excitation:         134         135
     X       Y       Z   
   0.7840   0.8920   0.5638  total (au/Debye):    1.315   3.341
 dE (eV)             :    3.798
 oscillator strength :  0.22743E+00

 SCC (total)                   0 d,  0 h,  0 min,  0.996 sec
 SCC setup                      ...        0 min,  0.002 sec (  0.154%)
 Dispersion                     ...        0 min,  0.002 sec (  0.234%)
 classical contributions        ...        0 min,  0.001 sec (  0.075%)
 integral evaluation            ...        0 min,  0.032 sec (  3.188%)
 iterations                     ...        0 min,  0.595 sec ( 59.692%)
 molecular gradient             ...        0 min,  0.291 sec ( 29.190%)
 printout                       ...        0 min,  0.074 sec (  7.466%)

         :::::::::::::::::::::::::::::::::::::::::::::::::::::
         ::                     SUMMARY                     ::
         :::::::::::::::::::::::::::::::::::::::::::::::::::::
         :: total energy            -148.065151231443 Eh    ::
         :: gradient norm              0.101325987270 Eh/a0 ::
         :: HOMO-LUMO gap              0.033797337715 eV    ::
         ::.................................................::
         :: SCC energy              -150.064998698036 Eh    ::
         :: -> isotropic ES            0.187074818073 Eh    ::
         :: -> anisotropic ES          0.004596196076 Eh    ::
         :: -> anisotropic XC          0.059644969918 Eh    ::
         :: -> dispersion             -0.130941073730 Eh    ::
         :: repulsion energy           1.999847466593 Eh    ::
         :: add. restraining           0.000000000000 Eh    ::
         :: total charge              -0.000000000000 e     ::
         :::::::::::::::::::::::::::::::::::::::::::::::::::::

           -------------------------------------------------
          |                Property Printout                |
           -------------------------------------------------

    * Orbital Energies and Occupations

         #    Occupation            Energy/Eh            Energy/eV
      -------------------------------------------------------------
         1        2.0000           -0.7475966             -20.3431
       ...           ...                  ...                  ...
       123        2.0000           -0.4136593             -11.2562
       124        2.0000           -0.4126182             -11.2279
       125        2.0000           -0.4100352             -11.1576
       126        2.0000           -0.4080253             -11.1029
       127        2.0000           -0.4038600             -10.9896
       128        1.9999           -0.4017852             -10.9331
       129        1.9793           -0.3967087             -10.7950
       130        1.9611           -0.3960923             -10.7782
       131        1.9363           -0.3955978             -10.7648
       132        1.8585           -0.3947568             -10.7419
       133        1.7914           -0.3943110             -10.7297
       134        1.4735           -0.3929437             -10.6925
       135        0.6578           -0.2533547              -6.8941 (HOMO)
       136        0.3422           -0.2521127              -6.8603 (LUMO)
       137                         -0.2328093              -6.3351
       138                         -0.2321917              -6.3183
       139                         -0.2274668              -6.1897
       140                         -0.2261541              -6.1540
       141                         -0.2248395              -6.1182
       142                         -0.2103012              -5.7226
       143                         -0.2077874              -5.6542
       144                         -0.2017637              -5.4903
       145                         -0.1987166              -5.4074
       146                         -0.1915397              -5.2121
       ...                                ...                  ...
       258                          0.6637382              18.0612
      -------------------------------------------------------------
                  HL-Gap            0.0012420 Eh            0.0338 eV
             Fermi-level           -0.3228890 Eh           -8.7863 eV

     #   Z          covCN         q      C6AA      α(0)
     1   8 O        0.857    -0.469    23.113     6.446
     2   6 C        2.659     0.408    20.116     7.338
     3   7 N        2.687    -0.188    25.086     7.439
     4   6 C        3.786     0.029    20.105     6.387
     5   6 C        3.810    -0.073    21.889     6.660
     6   6 C        2.971     0.013    27.720     8.636
     7   6 C        2.925    -0.037    28.913     8.818
     8   6 C        2.919    -0.029    28.724     8.789
     9   6 C        2.920    -0.030    28.751     8.793
    10   6 C        2.919    -0.029    28.716     8.788
    11   6 C        2.925    -0.037    28.913     8.818
    12   6 C        3.724     0.111    18.852     6.200
    13   6 C        3.804    -0.087    22.155     6.701
    14   6 C        3.792     0.044    19.853     6.345
    15   7 N        2.692    -0.177    24.837     7.402
    16   6 C        2.752     0.269    22.452     7.759
    17   6 C        3.798     0.016    20.309     6.417
    18   7 N        2.692    -0.226    25.935     7.564
    19   6 C        2.705     0.323    21.508     7.591
    20   7 N        2.737    -0.128    23.768     7.241
    21   6 C        3.704    -0.045    21.540     6.635
    22   6 C        3.750    -0.002    20.682     6.486
    23   6 C        3.205     0.068    25.908     8.290
    24   6 C        2.923    -0.060    29.493     8.906
    25  16 S        2.279    -0.085   144.588    20.238
    26   6 C        3.019     0.091    25.960     8.358
    27   6 C        3.870    -0.009    20.688     6.468
    28   6 C        3.758    -0.108    22.622     6.781
    29   6 C        3.757    -0.106    22.584     6.776
    30   7 N        1.966    -0.271    27.856     7.827
    31   8 O        0.859    -0.470    23.123     6.447
    32   6 C        3.849    -0.008    20.693     6.470
    33   6 C        3.755    -0.116    22.768     6.804
    34   6 C        3.755    -0.107    22.597     6.778
    35   8 O        0.859    -0.436    22.422     6.349
    36   6 C        3.812    -0.082    22.052     6.684
    37   6 C        2.970     0.015    27.671     8.629
    38   6 C        2.925    -0.047    29.167     8.857
    39   6 C        2.919    -0.035    28.863     8.810
    40   6 C        2.920    -0.032    28.801     8.801
    41   6 C        2.919    -0.028    28.689     8.784
    42   6 C        2.925    -0.033    28.814     8.803
    43   8 O        1.655    -0.445    21.733     6.293
    44   8 O        1.708    -0.309    19.152     5.909
    45   6 C        3.727     0.092    19.158     6.249
    46   6 C        2.973    -0.009    28.231     8.715
    47   6 C        3.200     0.028    26.830     8.441
    48   7 N        1.958    -0.226    26.753     7.670
    49   6 C        2.996     0.060    26.637     8.466
    50  16 S        2.287    -0.059   143.509    20.162
    51   1 H        0.860     0.194     1.137     1.670
    52   1 H        0.924     0.074     2.038     2.232
    53   1 H        0.924     0.059     2.209     2.324
    54   1 H        0.924     0.065     2.143     2.289
    55   1 H        0.925     0.032     2.557     2.501
    56   1 H        0.926     0.033     2.540     2.493
    57   1 H        0.926     0.033     2.544     2.494
    58   1 H        0.926     0.035     2.516     2.480
    59   1 H        0.926     0.039     2.464     2.455
    60   1 H        0.924     0.045     2.383     2.414
    61   1 H        0.924     0.064     2.153     2.294
    62   1 H        0.924     0.058     2.228     2.334
    63   1 H        0.924     0.067     2.113     2.273
    64   1 H        0.860     0.186     1.179     1.701
    65   1 H        0.923     0.095     1.835     2.118
    66   1 H        0.860     0.172     1.262     1.760
    67   1 H        0.925     0.091     1.873     2.140
    68   1 H        0.924     0.051     2.313     2.378
    69   1 H        0.924     0.052     2.299     2.371
    70   1 H        0.924     0.062     2.180     2.309
    71   1 H        0.924     0.079     1.994     2.208
    72   1 H        0.926     0.034     2.532     2.488
    73   1 H        0.924     0.045     2.379     2.412
    74   1 H        0.925     0.042     2.420     2.433
    75   1 H        0.925     0.045     2.378     2.411
    76   1 H        0.925     0.052     2.289     2.366
    77   1 H        0.925     0.044     2.390     2.418
    78   1 H        0.925     0.046     2.374     2.409
    79   1 H        0.925     0.048     2.345     2.395
    80   1 H        0.924     0.039     2.466     2.456
    81   1 H        0.925     0.044     2.397     2.421
    82   1 H        0.925     0.040     2.443     2.444
    83   1 H        0.925     0.068     2.111     2.272
    84   1 H        0.925     0.022     2.711     2.575
    85   1 H        0.925     0.052     2.296     2.370
    86   1 H        0.925     0.043     2.404     2.424
    87   1 H        0.924     0.050     2.321     2.382
    88   1 H        0.924     0.075     2.031     2.228
    89   1 H        0.925     0.036     2.508     2.476
    90   1 H        0.925     0.025     2.662     2.552
    91   1 H        0.926     0.031     2.570     2.507
    92   1 H        0.926     0.034     2.524     2.484
    93   1 H        0.926     0.035     2.519     2.482
    94   1 H        0.804     0.328     0.642     1.258
    95   1 H        0.924     0.061     2.185     2.312
    96   1 H        0.924     0.064     2.155     2.296
    97   1 H        0.926     0.034     2.529     2.487
    98   1 H        0.926     0.046     2.369     2.407

 Mol. C6AA /au·bohr⁶  :     109700.226687
 Mol. C8AA /au·bohr⁸  :    2701320.711495
 Mol. α(0) /au        :        512.420677


Wiberg/Mayer (AO) data.
largest (>0.10) Wiberg bond orders for each atom

 ---------------------------------------------------------------------------
     #   Z sym  total        # sym  WBO       # sym  WBO       # sym  WBO
 ---------------------------------------------------------------------------
     1   8 O    1.983 --     2 C    1.605     3 N    0.167    44 O    0.120
     2   6 C    3.939 --     1 O    1.605     3 N    1.247    44 O    1.035
     3   7 N    3.422 --     2 C    1.247     4 C    0.971    51 H    0.933
                             1 O    0.167
     4   6 C    3.939 --     3 N    0.971     5 C    0.962    52 H    0.954
                            12 C    0.952
     5   6 C    3.983 --     6 C    1.014    54 H    0.969    53 H    0.963
                             4 C    0.962
     6   6 C    3.971 --     7 C    1.408    11 C    1.399     5 C    1.014
                             9 C    0.103
     7   6 C    3.985 --     8 C    1.445     6 C    1.408    55 H    0.969
                            10 C    0.109
     8   6 C    3.987 --     7 C    1.445     9 C    1.435    56 H    0.971
                            11 C    0.109
     9   6 C    3.972 --     8 C    1.435    10 C    1.430    57 H    0.971
                             6 C    0.103
    10   6 C    3.990 --    11 C    1.453     9 C    1.430    58 H    0.971
                             7 C    0.109
    11   6 C    3.982 --    10 C    1.453     6 C    1.399    59 H    0.969
                             8 C    0.109
    12   6 C    3.956 --    43 O    1.021    13 C    0.973    60 H    0.961
                             4 C    0.952
    13   6 C    3.978 --    14 C    0.987    12 C    0.973    62 H    0.967
                            61 H    0.966
    14   6 C    3.958 --    13 C    0.987    15 N    0.978    36 C    0.966
                            63 H    0.953
    15   7 N    3.456 --    16 C    1.288    14 C    0.978    64 H    0.913
                            35 O    0.193
    16   6 C    3.944 --    35 O    1.645    15 N    1.288    17 C    0.937
    17   6 C    3.944 --    18 N    0.991    32 C    0.957    16 C    0.937
                            65 H    0.931
    18   7 N    3.325 --    19 C    1.138    17 C    0.991    66 H    0.926
                            31 O    0.138
    19   6 C    3.960 --    31 O    1.609    20 N    1.148    18 N    1.138
    20   7 N    3.386 --    19 C    1.148    22 C    0.999    21 C    0.997
                            31 O    0.143
    21   6 C    3.957 --    20 N    0.997    69 H    0.977    68 H    0.973
                            67 H    0.973
    22   6 C    3.966 --    20 N    0.999    23 C    0.995    71 H    0.949
                            70 H    0.936
    23   6 C    3.788 --    24 C    1.344    30 N    1.291    22 C    0.995
    24   6 C    3.674 --    23 C    1.344    25 S    1.230    72 H    0.967
    25  16 S    2.397 --    24 C    1.230    26 C    0.956    30 N    0.113
    26   6 C    3.618 --    30 N    1.482    27 C    1.023    25 S    0.956
    27   6 C    3.985 --    26 C    1.023    28 C    1.003    29 C    0.976
                            73 H    0.943
    28   6 C    3.993 --    27 C    1.003    75 H    0.986    74 H    0.985
                            76 H    0.984
    29   6 C    3.972 --    77 H    0.984    79 H    0.984    78 H    0.983
                            27 C    0.976
    30   7 N    3.036 --    26 C    1.482    23 C    1.291    25 S    0.113
    31   8 O    1.963 --    19 C    1.609    20 N    0.143    18 N    0.138
    32   6 C    3.981 --    34 C    1.011    33 C    1.009    80 H    0.964
                            17 C    0.957
    33   6 C    3.987 --    32 C    1.009    82 H    0.986    81 H    0.983
                            83 H    0.978
    34   6 C    3.994 --    32 C    1.011    86 H    0.985    85 H    0.983
                            84 H    0.982
    35   8 O    1.974 --    16 C    1.645    15 N    0.193
    36   6 C    3.983 --    37 C    1.014    87 H    0.967    14 C    0.966
                            88 H    0.952
    37   6 C    3.982 --    38 C    1.412    42 C    1.404    36 C    1.014
                            40 C    0.107
    38   6 C    3.987 --    39 C    1.441    37 C    1.412    89 H    0.963
                            41 C    0.109
    39   6 C    3.991 --    38 C    1.441    40 C    1.439    90 H    0.971
                            42 C    0.111
    40   6 C    3.984 --    39 C    1.439    41 C    1.431    91 H    0.971
                            37 C    0.107
    41   6 C    3.991 --    42 C    1.452    40 C    1.431    92 H    0.971
                            38 C    0.109
    42   6 C    3.988 --    41 C    1.452    37 C    1.404    93 H    0.968
                            39 C    0.111
    43   8 O    1.959 --    12 C    1.021    94 H    0.839
    44   8 O    2.214 --     2 C    1.035    45 C    0.947     1 O    0.120
    45   6 C    3.928 --    46 C    1.012    96 H    0.960    95 H    0.954
                            44 O    0.947
    46   6 C    3.773 --    47 C    1.490    50 S    1.153    45 C    1.012
    47   6 C    3.875 --    46 C    1.490    48 N    1.285    97 H    0.960
    48   7 N    3.032 --    49 C    1.555    47 C    1.285    50 S    0.119
    49   6 C    3.720 --    48 N    1.555    50 S    1.094    98 H    0.965
    50  16 S    2.472 --    46 C    1.153    49 C    1.094    48 N    0.119
    51   1 H    0.962 --     3 N    0.933
    52   1 H    0.994 --     4 C    0.954
    53   1 H    0.995 --     5 C    0.963
    54   1 H    0.995 --     5 C    0.969
    55   1 H    0.999 --     7 C    0.969
    56   1 H    0.999 --     8 C    0.971
    57   1 H    0.998 --     9 C    0.971
    58   1 H    0.998 --    10 C    0.971
    59   1 H    0.998 --    11 C    0.969
    60   1 H    0.997 --    12 C    0.961
    61   1 H    0.994 --    13 C    0.966
    62   1 H    0.996 --    13 C    0.967
    63   1 H    0.995 --    14 C    0.953
    64   1 H    0.965 --    15 N    0.913
    65   1 H    0.990 --    17 C    0.931
    66   1 H    0.970 --    18 N    0.926
    67   1 H    0.991 --    21 C    0.973
    68   1 H    0.992 --    21 C    0.973
    69   1 H    0.993 --    21 C    0.977
    70   1 H    0.982 --    22 C    0.936
    71   1 H    0.985 --    22 C    0.949
    72   1 H    0.998 --    24 C    0.967
    73   1 H    0.983 --    27 C    0.943
    74   1 H    0.998 --    28 C    0.985
    75   1 H    0.997 --    28 C    0.986
    76   1 H    0.996 --    28 C    0.984
    77   1 H    0.998 --    29 C    0.984
    78   1 H    0.995 --    29 C    0.983
    79   1 H    0.997 --    29 C    0.984
    80   1 H    0.994 --    32 C    0.964
    81   1 H    0.995 --    33 C    0.983
    82   1 H    0.998 --    33 C    0.986
    83   1 H    0.993 --    33 C    0.978
    84   1 H    0.999 --    34 C    0.982
    85   1 H    0.997 --    34 C    0.983
    86   1 H    0.997 --    34 C    0.985
    87   1 H    0.997 --    36 C    0.967
    88   1 H    0.992 --    36 C    0.952
    89   1 H    0.999 --    38 C    0.963
    90   1 H    0.999 --    39 C    0.971
    91   1 H    0.998 --    40 C    0.971
    92   1 H    0.998 --    41 C    0.971
    93   1 H    0.999 --    42 C    0.968
    94   1 H    0.892 --    43 O    0.839
    95   1 H    0.988 --    45 C    0.954
    96   1 H    0.991 --    45 C    0.960
    97   1 H    0.998 --    47 C    0.960
    98   1 H    0.996 --    49 C    0.965
 ---------------------------------------------------------------------------

Topologies differ in total number of bonds
Writing topology from bond orders to xtbtopo.mol

molecular dipole:
                 x           y           z       tot (Debye)
 q only:        1.588       0.244       0.767
   full:        1.850       0.171       1.012       5.378
molecular quadrupole (traceless):
                xx          xy          yy          xz          yz          zz
 q only:        4.196      14.940       5.602      -9.371     -11.970      -9.797
  q+dip:       11.765      16.980      -3.639     -17.316     -21.502      -8.126
   full:        8.681      17.799      -1.271     -16.514     -17.424      -7.410


           -------------------------------------------------
          | TOTAL ENERGY             -148.065151231443 Eh   |
          | GRADIENT NORM               0.101325987270 Eh/α |
          | HOMO-LUMO GAP               0.033797337715 eV   |
           -------------------------------------------------

------------------------------------------------------------------------
 * finished run on 2025/05/15 at 16:11:41.020     
------------------------------------------------------------------------
 total:
 * wall-time:     0 d,  0 h,  0 min,  1.035 sec
 *  cpu-time:     0 d,  0 h,  0 min,  0.579 sec
 * ratio c/w:     0.560 speedup
 SCF:
 * wall-time:     0 d,  0 h,  0 min,  0.997 sec
 *  cpu-time:     0 d,  0 h,  0 min,  0.543 sec
 * ratio c/w:     0.545 speedup


