98
 energy: -148.197660070759 gnorm: 0.000505258623 xtb: 6.7.1 (edcfbbe)
O           -4.79411632030646        0.14487400193394        0.22686409652775
C           -4.24862919385815       -0.47270520823707        1.11536178407628
N           -3.19202125983814       -1.28632108593923        1.00657568766814
C           -2.59327447549297       -1.78877717980686       -0.22482703762372
C           -3.47723977222998       -2.88002446762097       -0.85402174913257
C           -3.74443642157832       -3.97261833921576        0.13967641593446
C           -4.97024095523452       -4.05927025365806        0.78619024321917
C           -5.20192174565068       -5.04581978163758        1.72905379762519
C           -4.20617849674045       -5.95560649847664        2.03929866739775
C           -2.97807679547255       -5.87330000573088        1.40397340972980
C           -2.74839967200292       -4.88722377346580        0.46203689494397
C           -2.27708928010583       -0.67872040459999       -1.26139924483834
C           -1.69114524481115        0.59654621042100       -0.62769878695694
C           -0.48330831433517        0.37268943209146        0.28164671186709
N            0.56029008749850       -0.37145534721328       -0.38903271598735
C            0.99490973318988       -1.57331608259730        0.02614622229637
C            2.24186545004147       -2.06983754207057       -0.70770297087413
N            2.92911316298171       -0.95197163571162       -1.32617328821869
C            3.45464894630205       -1.09492971808733       -2.58778658021788
N            4.21466143588885       -0.04107469803518       -3.03541262317154
C            4.66074395522846       -0.08157155925217       -4.41269372740912
C            4.16659935880613        1.26984297925709       -2.43446383099602
C            2.84023445196885        1.96085189204773       -2.59855112870221
C            1.70750642632570        1.44469771624040       -3.14810475478655
S            0.44607293376772        2.61760907797396       -3.14971244604988
C            1.55891950291597        3.74277948213604       -2.38428496165630
C            1.13115449837817        5.13028095879642       -2.04722175631355
C            2.33869604810354        5.97680951273359       -1.65411161797573
C            0.08525390092847        5.11544937813895       -0.92679122652642
N            2.72469139553592        3.24879781562704       -2.17410942892419
O            3.23677325744758       -2.07813771683482       -3.26878931483603
C            3.18701320754907       -2.90614315507081        0.18282597678430
C            2.59239154117965       -4.28316818806181        0.46307463768333
C            3.51796988443272       -2.18520281926506        1.48745041253557
O            0.41797249207496       -2.21676311983228        0.88482983870829
C            0.09328653925241        1.71937574557348        0.75243673112134
C            1.33421393184137        1.51753721810176        1.57540938420412
C            2.57264042181447        1.93273018064449        1.10301231959834
C            3.72172238544421        1.71733914311509        1.84550778603538
C            3.64737569833280        1.07696201276879        3.06995242174097
C            2.41673480555934        0.66138259916883        3.55047718678572
C            1.27048643701431        0.88202324020061        2.80963986673420
O           -3.37358284838645       -0.35226904872624       -2.06658236830196
O           -4.61619417648276       -0.35615038568067        2.42568625643426
C           -5.40778880292969        0.78898241978214        2.70418129750261
C           -4.60251914342562        2.02512036627498        2.46505565271540
C           -3.24530486231554        2.14195331833782        2.53135035458039
N           -2.74660564358083        3.35346781785159        2.19572352762451
C           -3.67977358274195        4.17258427682835        1.87767165239984
S           -5.28858257238494        3.52422265366717        1.95099094532160
H           -2.92667351518042       -1.77062955884197        1.85065127724151
H           -1.64607874187436       -2.23608699767163        0.08658608992418
H           -2.95613315354529       -3.27378590080528       -1.72775229805498
H           -4.41289250976951       -2.43077282230074       -1.18877126727571
H           -5.75060097602063       -3.35068028545275        0.54542850946795
H           -6.16174632308788       -5.10461773821230        2.22156519912223
H           -4.38673767661011       -6.72725972767509        2.77317837713605
H           -2.19721329875536       -6.58011919113744        1.64339010965698
H           -1.78820410045884       -4.82293948347063       -0.02894858506529
H           -1.53670720382975       -1.10528369820282       -1.94988565954501
H           -1.41118281687001        1.25775957600676       -1.45118432182986
H           -2.47127096918741        1.10182167649710       -0.05693003071058
H           -0.77163749737733       -0.23272398003569        1.14583686629403
H            1.07352322999429        0.09905513000314       -1.12154046761374
H            1.90748279985709       -2.70800007655085       -1.53687288785033
H            3.36647502345778       -0.31252966158669       -0.68174551744699
H            4.55856598261747       -1.10442794111004       -4.76797512767405
H            4.05951009378185        0.57744287614936       -5.04547510736728
H            5.70702888993733        0.22213174906576       -4.46800641879905
H            4.42169281849847        1.22850760989284       -1.36867957528057
H            4.93347687078418        1.88816477053748       -2.91084702916494
H            1.54250489801430        0.47305152814516       -3.56826355679819
H            0.66418571602055        5.55791433799490       -2.94312196430681
H            2.02501514615243        6.99576758851262       -1.44311835153106
H            3.07039532836710        5.99171233017865       -2.45704739053341
H            2.81225013216388        5.56172354647740       -0.76895630434388
H           -0.76410568129640        4.49094339959893       -1.19554847669113
H           -0.27347895742613        6.12576588828581       -0.74843282470014
H            0.52142162107622        4.73861250784597       -0.00465095475071
H            4.11115573409821       -3.03721906620878       -0.39441625309986
H            3.27787204468420       -4.86921176673011        1.07081208717270
H            2.41338275192546       -4.81684953386169       -0.46742750971031
H            1.65246719108603       -4.17788782252379        0.99628181850638
H            3.94484316494323       -1.19985863448316        1.30631841660752
H            2.62038964944941       -2.06384422846967        2.08782331312009
H            4.23867590681253       -2.76463229070684        2.05955368122001
H            0.33350255275900        2.31924310551058       -0.12680303754259
H           -0.66423238707062        2.25355295815487        1.32881909317198
H            2.64025934191292        2.44684525695448        0.15422501563361
H            4.67721676477572        2.05440746389740        1.46764909228569
H            4.54291594752119        0.90449741061557        3.64820890119545
H            2.35214914336931        0.16397380937130        4.50683034228586
H            0.31453973738863        0.55944865327629        3.19470779611012
H           -4.07764170937931       -0.02858334420006       -1.47392119203455
H           -5.69992999795726        0.69115451240476        3.75355935424778
H           -6.30367612648162        0.79594530428288        2.07276088519666
H           -2.57138941357532        1.35777148571046        2.82495305811634
H           -3.50907773519141        5.18829783999066        1.58275420585605
