42
 energy: -62.295719820301 gnorm: 0.000541567998 xtb: 6.7.1 (edcfbbe)
C            3.37142764952151        2.31977593828446        0.35327195900715
C            3.17191788022535        1.68989894960347       -1.02683728075639
C            2.92384916236689        0.21290547846179       -0.90898320022118
C            3.91030389152615       -0.72570187415893       -1.14028089010373
C            3.68138031882118       -2.09650479964320       -0.99012700937408
C            2.45451031282519       -2.58062512991887       -0.60039225612405
C            1.42984222146509       -1.66500408026046       -0.35995050401912
C            1.67845368369347       -0.27768691251788       -0.51560734464753
N            0.52874507340488        0.39654321086765       -0.21606752386306
C           -0.44125893480899       -0.51487419823940        0.09860539083007
C            0.06500234037296       -1.78303523740296        0.02991271504035
C           -0.79582549421561       -2.97111950822447        0.29922378156667
C           -2.24399157954506       -2.51799710643932        0.08551632966336
O           -2.55926550398605       -1.35653479471013        0.82485568108536
C           -1.85040563632199       -0.17278485275365        0.47481356898572
C           -1.86459666784770        0.71604842038845        1.73368589015908
C           -3.27059612766946        1.09905905295312        2.17850522815443
C           -2.58759215613829        0.50612005785264       -0.72256192919338
C           -2.31843152624262        1.97232323323115       -0.89485574941644
O           -3.43787687883680        2.64851247076347       -1.16497880555074
O           -1.24681641598076        2.52293439428081       -0.83033618559078
H            4.22530248716125        1.86675140048615        0.85208205903050
H            3.54878000361504        3.38922695425979        0.26291791187500
H            2.49299656455710        2.16462542950865        0.97538610156734
H            4.06236606849054        1.86326522054162       -1.63422142977807
H            2.32460643356014        2.16963948887634       -1.52372941069970
H            4.89046619128630       -0.39071661422675       -1.44917081125453
H            4.49190781413839       -2.78366552254211       -1.18580628631686
H            2.28285100378162       -3.64014263724281       -0.48209742701133
H            0.35592330260222        1.38218551302128       -0.34341355002286
H           -0.55761292770473       -3.79631407506369       -0.37369953771125
H           -0.66406442652327       -3.31750995576314        1.32847512845988
H           -2.95163732222307       -3.27100172406146        0.43972923374300
H           -2.41741616523873       -2.34760884264835       -0.98701807880484
H           -1.26778888375736        1.60951419223761        1.54706839620175
H           -1.38052209803524        0.14465897006614        2.52772446843935
H           -3.87744998129589        0.20444596234219        2.28340212315806
H           -3.74615208706151        1.76373580499482        1.46166436139429
H           -3.22803452510163        1.60850148709075        3.13825132357753
H           -3.66098588603831        0.35870371976142       -0.60091749960311
H           -2.27365839275318        0.00788981816869       -1.64453056122603
H           -3.24855278609123        3.59146269777614       -1.29910838064864
