----- Optimization -----
      -----------------------------------------------------------      
     |                   =====================                   |     
     |                           x T B                           |     
     |                   =====================                   |     
     |                         S. Grimme                         |     
     |          Mulliken Center for Theoretical Chemistry        |     
     |                    University of Bonn                     |     
      -----------------------------------------------------------      

   * xtb version 6.7.1 (edcfbbe) compiled by 'conda@3ef47c1a292c' on 2024-11-25

   xtb is free software: you can redistribute it and/or modify it under
   the terms of the GNU Lesser General Public License as published by
   the Free Software Foundation, either version 3 of the License, or
   (at your option) any later version.
   
   xtb is distributed in the hope that it will be useful,
   but WITHOUT ANY WARRANTY; without even the implied warranty of
   MERCHANTABILITY or FITNESS FOR A PARTICULAR PURPOSE.  See the
   GNU Lesser General Public License for more details.
   
   Cite this work as:
   * C. Bannwarth, E. Caldeweyher, S. Ehlert, A. Hansen, P. Pracht,
     J. Seibert, S. Spicher, S. Grimme, WIREs Comput. Mol. Sci., 2020, 11,
     e01493. DOI: 10.1002/wcms.1493
   
   for GFN2-xTB:
   * C. Bannwarth, S. Ehlert and S. Grimme., J. Chem. Theory Comput., 2019,
     15, 1652-1671. DOI: 10.1021/acs.jctc.8b01176
   for GFN1-xTB:
   * S. Grimme, C. Bannwarth, P. Shushkov, J. Chem. Theory Comput., 2017,
     13, 1989-2009. DOI: 10.1021/acs.jctc.7b00118
   for GFN0-xTB:
   * P. Pracht, E. Caldeweyher, S. Ehlert, S. Grimme, ChemRxiv, 2019, preprint.
     DOI: 10.26434/chemrxiv.8326202.v1
   for GFN-FF:
   * S. Spicher and S. Grimme, Angew. Chem. Int. Ed., 2020, 59, 15665-15673.
     DOI: 10.1002/anie.202004239
   
   for ALPB and GBSA implicit solvation:
   * S. Ehlert, M. Stahn, S. Spicher, S. Grimme, J. Chem. Theory Comput.,
     2021, 17, 4250-4261. DOI: 10.1021/acs.jctc.1c00471
   
   for ddCOSMO and CPCM-X implicit solvation:
   * M. Stahn, S. Ehlert, S. Grimme, J. Phys. Chem. A,
     2023, XX, XXXX-XXXX. DOI: 10.1021/acs.jpca.3c04382
   
   for DFT-D4:
   * E. Caldeweyher, C. Bannwarth and S. Grimme, J. Chem. Phys., 2017,
     147, 034112. DOI: 10.1063/1.4993215
   * E. Caldeweyher, S. Ehlert, A. Hansen, H. Neugebauer, S. Spicher,
     C. Bannwarth and S. Grimme, J. Chem. Phys., 2019, 150, 154122.
     DOI: 10.1063/1.5090222
   * E. Caldeweyher, J.-M. Mewes, S. Ehlert and S. Grimme, Phys. Chem. Chem. Phys.
     2020, 22, 8499-8512. DOI: 10.1039/D0CP00502A
   
   for sTDA-xTB:
   * S. Grimme and C. Bannwarth, J. Chem. Phys., 2016, 145, 054103.
     DOI: 10.1063/1.4959605
   
   in the mass-spec context:
   * V. Asgeirsson, C. Bauer and S. Grimme, Chem. Sci., 2017, 8, 4879.
     DOI: 10.1039/c7sc00601b
   * J. Koopman and S. Grimme, ACS Omega 2019, 4, 12, 15120-15133.
     DOI: 10.1021/acsomega.9b02011
   
   for metadynamics refer to:
   * S. Grimme, J. Chem. Theory Comput., 2019, 155, 2847-2862
     DOI: 10.1021/acs.jctc.9b00143
   
   for SPH calculations refer to:
   * S. Spicher and S. Grimme, J. Chem. Theory Comput., 2021, 17, 1701-1714
     DOI: 10.1021/acs.jctc.0c01306
   
   for ONIOM refer to:
   * C. Plett, A. Katbashev, S. Ehlert, S. Grimme, M. Bursch,
     Phys. Chem. Chem. Phys., 2023, 25, 17860-17868. DOI: 10.1039/D3CP02178E
   
   for DIPRO refer to:
   * J. Kohn, N. Gildemeister, S. Grimme, D. Fazzi, A. Hansen,
     J. Chem. Phys., 2023, just accepted.
   
   for PTB refer to:
   * S. Grimme, M. Mueller, A. Hansen, J. Chem. Phys., 2023, 158, 124111.
     DOI: 10.1063/5.0137838
   
   with help from (in alphabetical order)
   P. Atkinson, C. Bannwarth, F. Bohle, G. Brandenburg, E. Caldeweyher
   M. Checinski, S. Dohm, S. Ehlert, S. Ehrlich, I. Gerasimov, C. Hölzer
   A. Katbashev, J. Kohn, J. Koopman, C. Lavigne, S. Lehtola, F. März, M. Müller,
   F. Musil, H. Neugebauer, J. Pisarek, C. Plett, P. Pracht, F. Pultar,
   J. Seibert, P. Shushkov, S. Spicher, M. Stahn, M. Steiner, T. Strunk,
   J. Stückrath, T. Rose, and J. Unsleber
   
 * started run on 2025/05/15 at 16:31:17.796     
   ID    Z sym.   atoms
    1    6 C      1-4, 6-8, 11-16, 20, 21, 23-26, 28, 30, 31, 33
    2    7 N      5, 9, 10, 19, 22, 32
    3   16 S      17
    4    8 O      18, 27, 29, 34
    5    1 H      35-66

           -------------------------------------------------
          |                Calculation Setup                |
           -------------------------------------------------

          program call               : xtb /rds/general/user/hgt20/home/callum/QDESCP/Vardenafil_rdkit_conf_5/Vardenafil_rdkit_conf_5.xyz --opt normal --acc 1 --gfn 2 --chrg 0 --uhf 0 -P 1
          hostname                   : login-c
          coordinate file            : /rds/general/user/hgt20/home/callum/QDESCP/Vardenafil_rdkit_conf_5/Vardenafil_rdkit_conf_5.xyz
          omp threads                :                     1


           -------------------------------------------------
          |                 G F N 2 - x T B                 |
           -------------------------------------------------

        Reference                      10.1021/acs.jctc.8b01176
      * Hamiltonian:
        H0-scaling (s, p, d)           1.850000    2.230000    2.230000
        zeta-weighting                 0.500000
      * Dispersion:
        s8                             2.700000
        a1                             0.520000
        a2                             5.000000
        s9                             5.000000
      * Repulsion:
        kExp                           1.500000    1.000000
        rExp                           1.000000
      * Coulomb:
        alpha                          2.000000
        third order                    shell-resolved
        anisotropic                    true
        a3                             3.000000
        a5                             4.000000
        cn-shift                       1.200000
        cn-exp                         4.000000
        max-rad                        5.000000


          ...................................................
          :                      SETUP                      :
          :.................................................:
          :  # basis functions                 174          :
          :  # atomic orbitals                 173          :
          :  # shells                          101          :
          :  # electrons                       184          :
          :  max. iterations                   250          :
          :  Hamiltonian                  GFN2-xTB          :
          :  restarted?                      false          :
          :  GBSA solvation                  false          :
          :  PC potential                    false          :
          :  electronic temp.          300.0000000     K    :
          :  accuracy                    1.0000000          :
          :  -> integral cutoff          0.2500000E+02      :
          :  -> integral neglect         0.1000000E-07      :
          :  -> SCF convergence          0.1000000E-05 Eh   :
          :  -> wf. convergence          0.1000000E-03 e    :
          :  Broyden damping             0.4000000          :
          :  net charge                          0          :
          :  unpaired electrons                  0          :
          ...................................................

 iter      E             dE          RMSdq      gap      omega  full diag
   1   -103.6076290 -0.103608E+03  0.418E+00    2.35       0.0  T
   2   -103.8389848 -0.231356E+00  0.269E+00    1.64       1.0  T
   3   -103.8636848 -0.247000E-01  0.141E+00    1.89       1.0  T
   4   -103.8740695 -0.103847E-01  0.495E-01    1.32       1.0  T
   5   -103.8843943 -0.103248E-01  0.173E-01    1.41       1.0  T
   6   -103.8847590 -0.364687E-03  0.949E-02    1.41       1.0  T
   7   -103.8848532 -0.941508E-04  0.574E-02    1.45       1.0  T
   8   -103.8849370 -0.838775E-04  0.261E-02    1.46       1.0  T
   9   -103.8849439 -0.689065E-05  0.102E-02    1.46       1.2  T
  10   -103.8849467 -0.273519E-05  0.476E-03    1.46       2.6  T
  11   -103.8849469 -0.275742E-06  0.208E-03    1.45       5.9  T
  12   -103.8849470 -0.729275E-07  0.642E-04    1.45      19.2  T
  13   -103.8849470 -0.104313E-07  0.323E-04    1.45      38.1  T

   *** convergence criteria satisfied after 13 iterations ***

         #    Occupation            Energy/Eh            Energy/eV
      -------------------------------------------------------------
         1        2.0000           -0.7725928             -21.0233
       ...           ...                  ...                  ...
        86        2.0000           -0.4123361             -11.2202
        87        2.0000           -0.4085200             -11.1164
        88        2.0000           -0.3934112             -10.7053
        89        2.0000           -0.3883587             -10.5678
        90        2.0000           -0.3791436             -10.3170
        91        2.0000           -0.3725073             -10.1364
        92        2.0000           -0.3559378              -9.6856 (HOMO)
        93                         -0.3024967              -8.2314 (LUMO)
        94                         -0.2694763              -7.3328
        95                         -0.2531512              -6.8886
        96                         -0.2304664              -6.2713
        97                         -0.1920481              -5.2259
       ...                                ...                  ...
       173                          1.1510053              31.3204
      -------------------------------------------------------------
                  HL-Gap            0.0534411 Eh            1.4542 eV
             Fermi-level           -0.3292173 Eh           -8.9585 eV

 SCC (total)                   0 d,  0 h,  0 min,  0.193 sec
 SCC setup                      ...        0 min,  0.001 sec (  0.386%)
 Dispersion                     ...        0 min,  0.001 sec (  0.560%)
 classical contributions        ...        0 min,  0.000 sec (  0.178%)
 integral evaluation            ...        0 min,  0.015 sec (  7.970%)
 iterations                     ...        0 min,  0.093 sec ( 48.026%)
 molecular gradient             ...        0 min,  0.082 sec ( 42.664%)
 printout                       ...        0 min,  0.000 sec (  0.212%)

         :::::::::::::::::::::::::::::::::::::::::::::::::::::
         ::                     SUMMARY                     ::
         :::::::::::::::::::::::::::::::::::::::::::::::::::::
         :: total energy            -102.654894995513 Eh    ::
         :: gradient norm              0.103982126744 Eh/a0 ::
         :: HOMO-LUMO gap              1.454206668238 eV    ::
         ::.................................................::
         :: SCC energy              -103.884338064281 Eh    ::
         :: -> isotropic ES            0.142899205180 Eh    ::
         :: -> anisotropic ES          0.008433489388 Eh    ::
         :: -> anisotropic XC          0.049424057255 Eh    ::
         :: -> dispersion             -0.076004555387 Eh    ::
         :: repulsion energy           1.229443068769 Eh    ::
         :: add. restraining           0.000000000000 Eh    ::
         :: total charge              -0.000000000000 e     ::
         :::::::::::::::::::::::::::::::::::::::::::::::::::::

      ----------------------------------------------------------- 
     |                   =====================                   |
     |                        A N C O P T                        |
     |                   =====================                   |
     |               Approximate Normal Coordinate               |
     |                Rational Function Optimizer                |
      ----------------------------------------------------------- 
      ----------------------------------------------------------- 
     |                   =====================                   |
     |                        A N C O P T                        |
     |                   =====================                   |
     |               Approximate Normal Coordinate               |
     |                Rational Function Optimizer                |
      ----------------------------------------------------------- 

          ...................................................
          :                      SETUP                      :
          :.................................................:
          :   optimization level            normal          :
          :   max. optcycles                   200          :
          :   ANC micro-cycles                  20          :
          :   degrees of freedom               192          :
          :.................................................:
          :   RF solver                   davidson          :
          :   write xtbopt.log                true          :
          :   linear?                        false          :
          :   energy convergence         0.5000000E-05 Eh   :
          :   grad. convergence          0.1000000E-02 Eh/α :
          :   maxmium RF displ.          1.0000000          :
          :   Hlow (freq-cutoff)         0.1000000E-01      :
          :   Hmax (freq-cutoff)         5.0000000          :
          :   S6 in model hess.         20.0000000          :
          ...................................................

generating ANC from exact Hessian ...
Using Lindh-Hessian (1995)
 Shifting diagonal of input Hessian by    9.9261735615014009E-003
 Lowest  eigenvalues of input Hessian
    0.000000    0.000000    0.000000    0.000000    0.000000    0.000000
    0.010000    0.010081    0.010137    0.010568    0.010804    0.010929
    0.011342    0.011462    0.011687    0.011858    0.012297    0.012672
 Highest eigenvalues
    2.085769    2.105216    2.318873    2.434960    2.521040    3.435496


........................................................................
.............................. CYCLE    1 ..............................
........................................................................

 iter      E             dE          RMSdq      gap      omega  full diag
   1   -103.8849470 -0.103885E+03  0.137E-04    1.45       0.0  T
   2   -103.8849470 -0.162402E-09  0.893E-05    1.45     137.8  T
   3   -103.8849470 -0.959233E-10  0.604E-05    1.45     204.0  T
     SCC iter.                  ...        0 min,  0.044 sec
     gradient                   ...        0 min,  0.055 sec
 * total energy  :  -102.6548950 Eh     change       -0.1725809E-08 Eh
   gradient norm :     0.1039796 Eh/α   predicted     0.0000000E+00 (-100.00%)
   displ. norm   :     0.3403402 α      lambda       -0.1948781E-01
   maximum displ.:     0.1266430 α      in ANC's #64, #66, #45, ...

........................................................................
.............................. CYCLE    2 ..............................
........................................................................

 iter      E             dE          RMSdq      gap      omega  full diag
   1   -103.9369628 -0.103937E+03  0.182E-01    1.50       0.0  T
   2   -103.9372300 -0.267247E-03  0.117E-01    1.55       1.0  T
   3   -103.9372476 -0.175394E-04  0.604E-02    1.54       1.0  T
   4   -103.9373013 -0.536811E-04  0.224E-02    1.55       1.0  T
   5   -103.9373213 -0.200275E-04  0.654E-03    1.55       1.9  T
   6   -103.9373213  0.132194E-07  0.188E-03    1.55       6.5  T
   7   -103.9373214 -0.127375E-06  0.822E-04    1.55      15.0  T
   8   -103.9373214 -0.117693E-07  0.413E-04    1.55      29.8  T
     SCC iter.                  ...        0 min,  0.039 sec
     gradient                   ...        0 min,  0.097 sec
 * total energy  :  -102.6686599 Eh     change       -0.1376491E-01 Eh
   gradient norm :     0.0454568 Eh/α   predicted    -0.1087815E-01 ( -20.97%)
   displ. norm   :     0.3132655 α      lambda       -0.6818865E-02
   maximum displ.:     0.1163833 α      in ANC's #24, #35, #64, ...

........................................................................
.............................. CYCLE    3 ..............................
........................................................................

 iter      E             dE          RMSdq      gap      omega  full diag
   1   -103.9662006 -0.103966E+03  0.137E-01    1.52       0.0  T
   2   -103.9663659 -0.165308E-03  0.882E-02    1.56       1.0  T
   3   -103.9663816 -0.156462E-04  0.441E-02    1.55       1.0  T
   4   -103.9664094 -0.277719E-04  0.181E-02    1.56       1.0  T
   5   -103.9664214 -0.120136E-04  0.619E-03    1.56       2.0  T
   6   -103.9664214  0.164732E-07  0.162E-03    1.56       7.6  T
   7   -103.9664215 -0.120013E-06  0.657E-04    1.56      18.7  T
   8   -103.9664215 -0.320588E-08  0.313E-04    1.56      39.3  T
     SCC iter.                  ...        0 min,  0.073 sec
     gradient                   ...        0 min,  0.094 sec
 * total energy  :  -102.6726617 Eh     change       -0.4001832E-02 Eh
   gradient norm :     0.0147267 Eh/α   predicted    -0.3745140E-02 (  -6.41%)
   displ. norm   :     0.2036445 α      lambda       -0.1060860E-02
   maximum displ.:     0.0988897 α      in ANC's #24, #20, #8, ...

........................................................................
.............................. CYCLE    4 ..............................
........................................................................

 iter      E             dE          RMSdq      gap      omega  full diag
   1   -103.9686272 -0.103969E+03  0.522E-02    1.54       0.0  T
   2   -103.9686473 -0.201493E-04  0.306E-02    1.55       1.0  T
   3   -103.9686477 -0.313121E-06  0.160E-02    1.55       1.0  T
   4   -103.9686538 -0.611085E-05  0.474E-03    1.55       2.6  T
   5   -103.9686546 -0.836202E-06  0.214E-03    1.55       5.8  T
   6   -103.9686546 -0.374037E-07  0.798E-04    1.55      15.4  T
   7   -103.9686547 -0.272093E-07  0.230E-04    1.55      53.6  T
     SCC iter.                  ...        0 min,  0.073 sec
     gradient                   ...        0 min,  0.094 sec
 * total energy  :  -102.6734836 Eh     change       -0.8218705E-03 Eh
   gradient norm :     0.0127838 Eh/α   predicted    -0.5524314E-03 ( -32.78%)
   displ. norm   :     0.3288917 α      lambda       -0.1173431E-02
   maximum displ.:     0.1534320 α      in ANC's #24, #20, #8, ...

........................................................................
.............................. CYCLE    5 ..............................
........................................................................

 iter      E             dE          RMSdq      gap      omega  full diag
   1   -103.9680032 -0.103968E+03  0.775E-02    1.53       0.0  T
   2   -103.9680583 -0.550348E-04  0.441E-02    1.54       1.0  T
   3   -103.9680642 -0.593494E-05  0.246E-02    1.54       1.0  T
   4   -103.9680749 -0.106684E-04  0.607E-03    1.54       2.0  T
   5   -103.9680770 -0.210241E-05  0.245E-03    1.54       5.0  T
   6   -103.9680771 -0.860423E-07  0.991E-04    1.54      12.4  T
   7   -103.9680771 -0.343116E-07  0.254E-04    1.54      48.5  T
     SCC iter.                  ...        0 min,  0.073 sec
     gradient                   ...        0 min,  0.094 sec
 * total energy  :  -102.6742827 Eh     change       -0.7991249E-03 Eh
   gradient norm :     0.0105991 Eh/α   predicted    -0.6501847E-03 ( -18.64%)
   displ. norm   :     0.2455489 α      lambda       -0.5080841E-03
   maximum displ.:     0.1009165 α      in ANC's #24, #20, #9, ...

........................................................................
.............................. CYCLE    6 ..............................
........................................................................

 iter      E             dE          RMSdq      gap      omega  full diag
   1   -103.9684592 -0.103968E+03  0.546E-02    1.54       0.0  T
   2   -103.9684885 -0.293481E-04  0.310E-02    1.54       1.0  T
   3   -103.9684927 -0.415714E-05  0.176E-02    1.55       1.0  T
   4   -103.9684977 -0.501979E-05  0.463E-03    1.55       2.7  T
   5   -103.9684989 -0.113470E-05  0.158E-03    1.55       7.8  T
   6   -103.9684989 -0.361142E-07  0.766E-04    1.55      16.1  T
   7   -103.9684989 -0.161796E-07  0.202E-04    1.55      61.1  T
     SCC iter.                  ...        0 min,  0.034 sec
     gradient                   ...        0 min,  0.094 sec
 * total energy  :  -102.6746505 Eh     change       -0.3677938E-03 Eh
   gradient norm :     0.0087760 Eh/α   predicted    -0.2693711E-03 ( -26.76%)
   displ. norm   :     0.2376283 α      lambda       -0.3663565E-03
   maximum displ.:     0.0842224 α      in ANC's #9, #13, #24, ...

........................................................................
.............................. CYCLE    7 ..............................
........................................................................

 iter      E             dE          RMSdq      gap      omega  full diag
   1   -103.9702081 -0.103970E+03  0.514E-02    1.55       0.0  T
   2   -103.9702271 -0.189280E-04  0.293E-02    1.55       1.0  T
   3   -103.9702275 -0.450394E-06  0.165E-02    1.55       1.0  T
   4   -103.9702338 -0.627586E-05  0.406E-03    1.55       3.0  T
   5   -103.9702345 -0.712764E-06  0.152E-03    1.55       8.1  T
   6   -103.9702345 -0.290368E-07  0.699E-04    1.55      17.6  T
   7   -103.9702345 -0.154961E-07  0.195E-04    1.55      63.2  T
     SCC iter.                  ...        0 min,  0.034 sec
     gradient                   ...        0 min,  0.094 sec
 * total energy  :  -102.6749127 Eh     change       -0.2621853E-03 Eh
   gradient norm :     0.0062522 Eh/α   predicted    -0.1936287E-03 ( -26.15%)
   displ. norm   :     0.2167285 α      lambda       -0.2292147E-03
   maximum displ.:     0.0866026 α      in ANC's #9, #13, #12, ...

........................................................................
.............................. CYCLE    8 ..............................
........................................................................

 iter      E             dE          RMSdq      gap      omega  full diag
   1   -103.9717709 -0.103972E+03  0.448E-02    1.56       0.0  T
   2   -103.9717782 -0.730017E-05  0.256E-02    1.56       1.0  T
   3   -103.9717749  0.337743E-05  0.132E-02    1.56       1.0  T
   4   -103.9717813 -0.646568E-05  0.262E-03    1.56       4.7  T
   5   -103.9717816 -0.227747E-06  0.116E-03    1.56      10.6  T
   6   -103.9717816 -0.223529E-07  0.470E-04    1.56      26.2  T
   7   -103.9717816 -0.769445E-08  0.149E-04    1.56      82.8  T
     SCC iter.                  ...        0 min,  0.069 sec
     gradient                   ...        0 min,  0.089 sec
 * total energy  :  -102.6750768 Eh     change       -0.1640645E-03 Eh
   gradient norm :     0.0046002 Eh/α   predicted    -0.1200114E-03 ( -26.85%)
   displ. norm   :     0.2024513 α      lambda       -0.1498714E-03
   maximum displ.:     0.0870307 α      in ANC's #9, #12, #13, ...

........................................................................
.............................. CYCLE    9 ..............................
........................................................................

 iter      E             dE          RMSdq      gap      omega  full diag
   1   -103.9725485 -0.103973E+03  0.408E-02    1.57       0.0  T
   2   -103.9725513 -0.286211E-05  0.234E-02    1.56       1.0  T
   3   -103.9725484  0.290467E-05  0.920E-03    1.57       1.3  T
   4   -103.9725526 -0.412225E-05  0.169E-03    1.56       7.3  T
   5   -103.9725526 -0.610740E-07  0.878E-04    1.56      14.0  T
   6   -103.9725526 -0.193282E-07  0.318E-04    1.56      38.7  T
     SCC iter.                  ...        0 min,  0.074 sec
     gradient                   ...        0 min,  0.100 sec
 * total energy  :  -102.6751856 Eh     change       -0.1088490E-03 Eh
   gradient norm :     0.0038872 Eh/α   predicted    -0.7800762E-04 ( -28.33%)
   displ. norm   :     0.2048044 α      lambda       -0.1163318E-03
   maximum displ.:     0.0913602 α      in ANC's #9, #12, #7, ...

........................................................................
.............................. CYCLE   10 ..............................
........................................................................

 iter      E             dE          RMSdq      gap      omega  full diag
   1   -103.9726342 -0.103973E+03  0.416E-02    1.57       0.0  T
   2   -103.9726361 -0.180880E-05  0.239E-02    1.57       1.0  T
   3   -103.9726346  0.141882E-05  0.649E-03    1.57       1.9  T
   4   -103.9726367 -0.205038E-05  0.155E-03    1.56       8.0  T
   5   -103.9726367 -0.469084E-07  0.726E-04    1.57      17.0  T
   6   -103.9726367 -0.104098E-07  0.268E-04    1.57      45.9  T
     SCC iter.                  ...        0 min,  0.029 sec
     gradient                   ...        0 min,  0.100 sec
 * total energy  :  -102.6752710 Eh     change       -0.8539765E-04 Eh
   gradient norm :     0.0037062 Eh/α   predicted    -0.6060807E-04 ( -29.03%)
   displ. norm   :     0.2047969 α      lambda       -0.9741444E-04
   maximum displ.:     0.0918275 α      in ANC's #9, #12, #7, ...

........................................................................
.............................. CYCLE   11 ..............................
........................................................................

 iter      E             dE          RMSdq      gap      omega  full diag
   1   -103.9724107 -0.103972E+03  0.426E-02    1.57       0.0  T
   2   -103.9724120 -0.132768E-05  0.245E-02    1.56       1.0  T
   3   -103.9724111  0.886935E-06  0.527E-03    1.56       2.3  T
   4   -103.9724124 -0.129328E-05  0.162E-03    1.56       7.6  T
   5   -103.9724124 -0.625141E-07  0.688E-04    1.56      17.9  T
   6   -103.9724125 -0.915026E-08  0.244E-04    1.56      50.4  T
     SCC iter.                  ...        0 min,  0.029 sec
     gradient                   ...        0 min,  0.091 sec
 * total energy  :  -102.6753413 Eh     change       -0.7032127E-04 Eh
   gradient norm :     0.0034085 Eh/α   predicted    -0.5075440E-04 ( -27.82%)
   displ. norm   :     0.1807352 α      lambda       -0.7150677E-04
   maximum displ.:     0.0811907 α      in ANC's #7, #9, #12, ...

........................................................................
.............................. CYCLE   12 ..............................
........................................................................

 iter      E             dE          RMSdq      gap      omega  full diag
   1   -103.9720595 -0.103972E+03  0.380E-02    1.56       0.0  T
   2   -103.9720604 -0.956246E-06  0.219E-02    1.56       1.0  T
   3   -103.9720596  0.810470E-06  0.470E-03    1.56       2.6  T
   4   -103.9720607 -0.110086E-05  0.135E-03    1.56       9.1  T
   5   -103.9720608 -0.535800E-07  0.594E-04    1.56      20.7  T
   6   -103.9720608 -0.735544E-08  0.199E-04    1.56      61.9  T
     SCC iter.                  ...        0 min,  0.069 sec
     gradient                   ...        0 min,  0.100 sec
 * total energy  :  -102.6753924 Eh     change       -0.5105149E-04 Eh
   gradient norm :     0.0028309 Eh/α   predicted    -0.3692259E-04 ( -27.68%)
   displ. norm   :     0.1422530 α      lambda       -0.5055117E-04
   maximum displ.:     0.0698973 α      in ANC's #7, #9, #4, ...

........................................................................
.............................. CYCLE   13 ..............................
........................................................................

 iter      E             dE          RMSdq      gap      omega  full diag
   1   -103.9723176 -0.103972E+03  0.295E-02    1.56       0.0  T
   2   -103.9723182 -0.569263E-06  0.171E-02    1.56       1.0  T
   3   -103.9723177  0.482311E-06  0.345E-03    1.56       3.6  T
   4   -103.9723183 -0.621335E-06  0.104E-03    1.56      11.8  T
   5   -103.9723183 -0.442321E-07  0.417E-04    1.56      29.5  T
   6   -103.9723183 -0.358823E-08  0.152E-04    1.56      81.2  T
     SCC iter.                  ...        0 min,  0.029 sec
     gradient                   ...        0 min,  0.094 sec
 * total energy  :  -102.6754270 Eh     change       -0.3463382E-04 Eh
   gradient norm :     0.0025403 Eh/α   predicted    -0.2579316E-04 ( -25.53%)
   displ. norm   :     0.1235835 α      lambda       -0.3440162E-04
   maximum displ.:     0.0631642 α      in ANC's #7, #9, #4, ...

........................................................................
.............................. CYCLE   14 ..............................
........................................................................

 iter      E             dE          RMSdq      gap      omega  full diag
   1   -103.9718667 -0.103972E+03  0.247E-02    1.56       0.0  T
   2   -103.9718673 -0.606292E-06  0.142E-02    1.56       1.0  T
   3   -103.9718666  0.690051E-06  0.404E-03    1.56       3.0  T
   4   -103.9718675 -0.885239E-06  0.986E-04    1.56      12.5  T
   5   -103.9718675 -0.296717E-07  0.408E-04    1.56      30.1  T
     SCC iter.                  ...        0 min,  0.053 sec
     gradient                   ...        0 min,  0.084 sec
 * total energy  :  -102.6754478 Eh     change       -0.2073091E-04 Eh
   gradient norm :     0.0023222 Eh/α   predicted    -0.1746546E-04 ( -15.75%)
   displ. norm   :     0.0816246 α      lambda       -0.2705979E-04
   maximum displ.:     0.0394476 α      in ANC's #7, #4, #8, ...

........................................................................
.............................. CYCLE   15 ..............................
........................................................................

 iter      E             dE          RMSdq      gap      omega  full diag
   1   -103.9729981 -0.103973E+03  0.148E-02    1.57       0.0  T
   2   -103.9729984 -0.229442E-06  0.838E-03    1.57       1.5  T
   3   -103.9729982  0.158619E-06  0.214E-03    1.57       5.7  T
   4   -103.9729984 -0.204619E-06  0.811E-04    1.57      15.2  T
   5   -103.9729984 -0.202294E-07  0.241E-04    1.57      51.1  T
     SCC iter.                  ...        0 min,  0.025 sec
     gradient                   ...        0 min,  0.088 sec
 * total energy  :  -102.6754620 Eh     change       -0.1425696E-04 Eh
   gradient norm :     0.0023799 Eh/α   predicted    -0.1362381E-04 (  -4.44%)
   displ. norm   :     0.0476551 α      lambda       -0.1281651E-04
   maximum displ.:     0.0244974 α      in ANC's #7, #9, #4, ...

........................................................................
.............................. CYCLE   16 ..............................
........................................................................

 iter      E             dE          RMSdq      gap      omega  full diag
   1   -103.9727766 -0.103973E+03  0.859E-03    1.57       0.0  T
   2   -103.9727767 -0.101124E-06  0.491E-03    1.57       2.5  T
   3   -103.9727766  0.123813E-06  0.180E-03    1.57       6.8  T
   4   -103.9727768 -0.156195E-06  0.458E-04    1.57      26.9  T
   5   -103.9727768 -0.966708E-08  0.172E-04    1.57      71.7  T
     SCC iter.                  ...        0 min,  0.058 sec
     gradient                   ...        0 min,  0.055 sec
 * total energy  :  -102.6754720 Eh     change       -0.9988285E-05 Eh
   gradient norm :     0.0015892 Eh/α   predicted    -0.6423180E-05 ( -35.69%)
   displ. norm   :     0.1147570 α      lambda       -0.1653248E-04
   maximum displ.:     0.0583198 α      in ANC's #7, #9, #1, ...

........................................................................
.............................. CYCLE   17 ..............................
........................................................................

 iter      E             dE          RMSdq      gap      omega  full diag
   1   -103.9727389 -0.103973E+03  0.188E-02    1.57       0.0  T
   2   -103.9727394 -0.487889E-06  0.109E-02    1.57       1.1  T
   3   -103.9727391  0.302118E-06  0.322E-03    1.57       3.8  T
   4   -103.9727395 -0.363096E-06  0.102E-03    1.57      12.1  T
   5   -103.9727395 -0.614884E-07  0.365E-04    1.57      33.7  T
   6   -103.9727395 -0.213156E-08  0.147E-04    1.57      83.9  T
     SCC iter.                  ...        0 min,  0.029 sec
     gradient                   ...        0 min,  0.088 sec
 * total energy  :  -102.6754844 Eh     change       -0.1237963E-04 Eh
   gradient norm :     0.0017063 Eh/α   predicted    -0.8318836E-05 ( -32.80%)
   displ. norm   :     0.0577695 α      lambda       -0.7209365E-05
   maximum displ.:     0.0277689 α      in ANC's #7, #1, #10, ...

........................................................................
.............................. CYCLE   18 ..............................
........................................................................

 iter      E             dE          RMSdq      gap      omega  full diag
   1   -103.9724714 -0.103972E+03  0.934E-03    1.57       0.0  T
   2   -103.9724715 -0.587428E-07  0.549E-03    1.57       2.2  T
   3   -103.9724714  0.316670E-07  0.910E-04    1.57      13.5  T
   4   -103.9724715 -0.428872E-07  0.380E-04    1.57      32.4  T
     SCC iter.                  ...        0 min,  0.020 sec
     gradient                   ...        0 min,  0.082 sec
 * total energy  :  -102.6754927 Eh     change       -0.8300563E-05 Eh
   gradient norm :     0.0015759 Eh/α   predicted    -0.3612144E-05 ( -56.48%)
   displ. norm   :     0.1785400 α      lambda       -0.2071511E-04
   maximum displ.:     0.0816607 α      in ANC's #7, #1, #10, ...

........................................................................
.............................. CYCLE   19 ..............................
........................................................................

 iter      E             dE          RMSdq      gap      omega  full diag
   1   -103.9724735 -0.103972E+03  0.275E-02    1.56       0.0  T
   2   -103.9724739 -0.348889E-06  0.162E-02    1.56       1.0  T
   3   -103.9724731  0.774914E-06  0.365E-03    1.56       3.4  T
   4   -103.9724740 -0.945283E-06  0.101E-03    1.56      12.2  T
   5   -103.9724740 -0.187039E-07  0.386E-04    1.56      31.9  T
   6   -103.9724741 -0.279664E-08  0.140E-04    1.56      87.8  T
     SCC iter.                  ...        0 min,  0.063 sec
     gradient                   ...        0 min,  0.089 sec
 * total energy  :  -102.6755125 Eh     change       -0.1977043E-04 Eh
   gradient norm :     0.0016156 Eh/α   predicted    -0.1050516E-04 ( -46.86%)
   displ. norm   :     0.1779892 α      lambda        0.4763187E-05
   maximum displ.:     0.0814099 α      in ANC's #7, #1, #10, ...

........................................................................
.............................. CYCLE   20 ..............................
........................................................................

 iter      E             dE          RMSdq      gap      omega  full diag
   1   -103.9720042 -0.103972E+03  0.274E-02    1.56       0.0  T
   2   -103.9720045 -0.358378E-06  0.161E-02    1.56       1.0  T
   3   -103.9720038  0.720720E-06  0.356E-03    1.55       3.5  T
   4   -103.9720047 -0.884845E-06  0.102E-03    1.56      12.0  T
   5   -103.9720047 -0.205708E-07  0.392E-04    1.56      31.4  T
   6   -103.9720047 -0.293088E-08  0.143E-04    1.56      86.0  T
     SCC iter.                  ...        0 min,  0.029 sec
     gradient                   ...        0 min,  0.083 sec
 * total energy  :  -102.6755079 Eh     change        0.4526794E-05 Eh
   gradient norm :     0.0034344 Eh/α   predicted     0.2415071E-05 ( -46.65%)
   displ. norm   :     0.0306964 α      lambda       -0.1786848E-04
   maximum displ.:     0.0123121 α      in ANC's #10, #7, #8, ...
 * RMSD in coord.:     0.3011724 α      energy gain  -0.2061294E-01 Eh

generating ANC from exact Hessian ...
Using Lindh-Hessian (1995)
 Shifting diagonal of input Hessian by    9.9173673431630326E-003
 Lowest  eigenvalues of input Hessian
    0.000000    0.000000    0.000000    0.000000    0.000000    0.000000
    0.010000    0.010083    0.010148    0.010525    0.010893    0.011047
    0.011313    0.011497    0.011770    0.012014    0.012372    0.012663
 Highest eigenvalues
    2.098370    2.203481    2.357836    2.436245    2.717655    3.584690


........................................................................
.............................. CYCLE   21 ..............................
........................................................................

 iter      E             dE          RMSdq      gap      omega  full diag
   1   -103.9722813 -0.103972E+03  0.711E-03    1.56       0.0  T
   2   -103.9722813 -0.697185E-07  0.398E-03    1.56       3.1  T
   3   -103.9722813  0.355670E-07  0.113E-03    1.56      10.9  T
   4   -103.9722813 -0.407205E-07  0.529E-04    1.56      23.3  T
   5   -103.9722813 -0.119332E-07  0.150E-04    1.56      82.3  T
     SCC iter.                  ...        0 min,  0.025 sec
     gradient                   ...        0 min,  0.088 sec
 * total energy  :  -102.6755217 Eh     change       -0.1373827E-04 Eh
   gradient norm :     0.0020326 Eh/α   predicted     0.0000000E+00 (-100.00%)
   displ. norm   :     0.0136322 α      lambda       -0.8437211E-05
   maximum displ.:     0.0051059 α      in ANC's #1, #21, #19, ...

........................................................................
.............................. CYCLE   22 ..............................
........................................................................

 iter      E             dE          RMSdq      gap      omega  full diag
   1   -103.9726016 -0.103973E+03  0.409E-03    1.56       0.0  T
   2   -103.9726017 -0.265598E-07  0.228E-03    1.56       5.4  T
   3   -103.9726017  0.653209E-08  0.650E-04    1.56      18.9  T
   4   -103.9726017 -0.898059E-08  0.299E-04    1.56      41.1  T
     SCC iter.                  ...        0 min,  0.020 sec
     gradient                   ...        0 min,  0.076 sec
 * total energy  :  -102.6755286 Eh     change       -0.6947077E-05 Eh
   gradient norm :     0.0010731 Eh/α   predicted    -0.4373911E-05 ( -37.04%)
   displ. norm   :     0.0507705 α      lambda       -0.1070551E-04
   maximum displ.:     0.0214758 α      in ANC's #1, #19, #21, ...

........................................................................
.............................. CYCLE   23 ..............................
........................................................................

 iter      E             dE          RMSdq      gap      omega  full diag
   1   -103.9729514 -0.103973E+03  0.119E-02    1.56       0.0  T
   2   -103.9729515 -0.147745E-06  0.669E-03    1.56       1.8  T
   3   -103.9729514  0.960179E-07  0.190E-03    1.56       6.5  T
   4   -103.9729515 -0.112697E-06  0.865E-04    1.56      14.2  T
   5   -103.9729516 -0.253037E-07  0.237E-04    1.56      51.9  T
     SCC iter.                  ...        0 min,  0.025 sec
     gradient                   ...        0 min,  0.064 sec
 * total energy  :  -102.6755363 Eh     change       -0.7666383E-05 Eh
   gradient norm :     0.0014893 Eh/α   predicted    -0.5608832E-05 ( -26.84%)
   displ. norm   :     0.0213329 α      lambda       -0.3250884E-05
   maximum displ.:     0.0110726 α      in ANC's #19, #1, #4, ...

........................................................................
.............................. CYCLE   24 ..............................
........................................................................

 iter      E             dE          RMSdq      gap      omega  full diag
   1   -103.9727729 -0.103973E+03  0.317E-03    1.56       0.0  T
   2   -103.9727729 -0.113132E-07  0.186E-03    1.56       6.6  T
   3   -103.9727729  0.245139E-08  0.405E-04    1.56      30.4  T
   4   -103.9727729 -0.439890E-08  0.150E-04    1.56      82.0  T
     SCC iter.                  ...        0 min,  0.020 sec
     gradient                   ...        0 min,  0.055 sec
 * total energy  :  -102.6755408 Eh     change       -0.4529419E-05 Eh
   gradient norm :     0.0009956 Eh/α   predicted    -0.1692437E-05 ( -62.63%)
   displ. norm   :     0.1320418 α      lambda       -0.1524273E-04
   maximum displ.:     0.0720234 α      in ANC's #19, #1, #4, ...

   *** GEOMETRY OPTIMIZATION CONVERGED AFTER 24 ITERATIONS ***

------------------------------------------------------------------------
 total energy gain   :        -0.0206458 Eh      -12.9554 kcal/mol
 total RMSD          :         0.3014446 a0        0.1595 Å
 total power (kW/mol):        -2.2585663 (step)  -14.5985 (real)
------------------------------------------------------------------------

 ANCopt (total)                0 d,  0 h,  0 min,  3.713 sec
 optimizer setup                ...        0 min,  0.000 sec (  0.002%)
 model hessian                  ...        0 min,  0.057 sec (  1.544%)
 ANC generation                 ...        0 min,  0.008 sec (  0.204%)
 coordinate transformation      ...        0 min,  0.000 sec (  0.011%)
 single point calculation       ...        0 min,  3.636 sec ( 97.927%)
 optimization log               ...        0 min,  0.006 sec (  0.161%)
 hessian update                 ...        0 min,  0.001 sec (  0.015%)
 rational function              ...        0 min,  0.002 sec (  0.062%)

================
 final structure:
================
66
 xtb: 6.7.1 (edcfbbe)
C           -6.50820218992479       -0.57756754124774       -2.06256263766038
C           -5.23168076427339       -0.09054575161493       -2.73433574462417
C           -4.98010305619628        1.39690898699326       -2.44089272587640
C           -4.63744074627435        1.61455054204623       -1.01197467224419
N           -5.47586469689536        1.92617735468627       -0.04543852555914
C           -4.77528513221289        1.98391961937011        1.10902390566478
C           -5.40382603125224        2.32289579643670        2.40768366178770
C           -3.44542349569619        1.69387496809927        0.85198597870148
N           -3.39291073085228        1.45806797859481       -0.51194812894718
N           -2.20919894128951        1.16250344147386       -1.12709322179641
C           -1.08645703859798        1.11087697216903       -0.36059722119785
C            0.19982435954941        0.84550742156129       -1.02857765655658
C            0.34186762491564        0.23655667954232       -2.29257523065675
C            1.62115272873205       -0.00101685191711       -2.79441080241330
C            2.74260319240088        0.36857882617681       -2.07493194880789
C            2.59843041095407        0.98716279823289       -0.84905895497035
S            4.06297749064376        1.44424267629319        0.08933669167999
O            5.19187312742929        1.33438204375148       -0.78884020863192
N            4.22245785083752        0.27349773048069        1.24760057128402
C            3.25090274441656        0.25987181684009        2.31593803722601
C            3.81975803590173       -0.55561485433073        3.47618751845991
N            4.11396187080746       -1.89599322541384        3.00471340662905
C            5.11571828441494       -1.85007267689753        1.95810324817267
C            4.55838288904524       -1.04900578142470        0.78183227193972
C            4.37789270507157       -2.86129994998792        4.05285328460814
C            5.62511768281291       -2.62013760627975        4.91007766961485
O            3.81612579280472        2.68678403663305        0.75263420572695
C            1.34573183865479        1.21838574787698       -0.32797920950810
O           -0.79056953807823       -0.09800984518375       -2.97044990996190
C           -0.69360321639137       -0.75894566918404       -4.22621762776965
C           -2.10761125479691       -1.02531157059462       -4.71670539507856
N           -1.07321504469971        1.30171997472913        0.90895778890661
C           -2.22938748548403        1.57347132821095        1.64306996620913
O           -2.18820302184241        1.68963706925948        2.84747599545009
H           -7.37276363202612       -0.06775788212910       -2.48026010059556
H           -6.63360330964466       -1.64782031385090       -2.20811785775073
H           -6.47694181648149       -0.36836375231876       -0.99654464310641
H           -5.30756641506454       -0.23237570087191       -3.81473519377277
H           -4.38361751112337       -0.68111435524378       -2.37679416978683
H           -5.88465617809154        1.96359632995439       -2.66078754569778
H           -4.17168433603181        1.77454214457656       -3.07451335346483
H           -5.07098278146075        3.30551727136724        2.73865406624914
H           -5.10497680208586        1.60305034660397        3.16625179250088
H           -6.48408797855607        2.32816273141469        2.29724787791245
H           -2.21592321887740        0.90058729253480       -2.10401681648756
H            1.75161871052585       -0.47189239674901       -3.75482533583629
H            3.73523871452125        0.20135601735832       -2.46119899100660
H            3.07586090647282        1.29362168737218        2.61186421082521
H            2.30726904530983       -0.19601360312562        1.98313777497718
H            4.71746175661060       -0.04160758925804        3.85625824940277
H            3.07772285602642       -0.61726938679064        4.27423062925415
H            5.33717025919818       -2.86980245532535        1.63551632758541
H            6.04905340447390       -1.36777914813805        2.29155035958805
H            5.30363210472916       -0.93699391864349       -0.00582605039868
H            3.66924891365160       -1.56094270162135        0.38236920039672
H            3.49620123111645       -2.87759243442386        4.69990509727063
H            4.45790664402041       -3.84104427789890        3.57202219768342
H            5.71047438652367       -3.40753478408249        5.65433122149714
H            5.56077261677790       -1.66612009260848        5.42680662129568
H            6.52386887712707       -2.62806179485117        4.29848008029087
H            1.22487369721261        1.70652750429937        0.62487336584151
H           -0.14968210009959       -1.70338038339621       -4.10775858674737
H           -0.15795959184685       -0.12172157879607       -4.94054477393625
H           -2.64822418779182       -0.09094354190241       -4.84347048783567
H           -2.64214361323081       -1.64782575976636       -4.00454895242327
H           -2.06945689652148       -1.53895595907299       -5.67244059351902

 Bond Distances (Angstroems)
 ---------------------------
C1-C2=1.5225         C1-H35=1.0871        C1-H36=1.0874        C1-H37=1.0868        C2-C1=1.5225         C2-C3=1.5369         
C2-H38=1.0923        C2-H39=1.0935        C3-C2=1.5369         C3-C4=1.4855         C3-H40=1.0898        C3-H41=1.0944        
C4-C3=1.4855         C4-N5=1.3169         C4-N9=1.3503         N5-C4=1.3169         N5-C6=1.3516         C6-N5=1.3516         
C6-C7=1.4821         C6-C8=1.3852         C7-C6=1.4821         C7-H42=1.0890        C7-H43=1.0876        C7-H44=1.0859        
C8-C6=1.3852         C8-N9=1.3852         C8-C33=1.4557        N9-C4=1.3503         N9-C8=1.3852         N9-N10=1.3664        
N10-N9=1.3664        N10-C11=1.3604       N10-H45=1.0114       C11-N10=1.3604       C11-C12=1.4735       C11-N32=1.2839       
C12-C11=1.4735       C12-C13=1.4102       C12-C28=1.3939       C13-C12=1.4102       C13-C14=1.3946       C13-O29=1.3616       
C14-C13=1.3946       C14-C15=1.3827       C14-H46=1.0776       C15-C14=1.3827       C15-C16=1.3807       C15-H47=1.0782       
C16-C15=1.3807       C16-S17=1.7984       C16-C28=1.3763       S17-C16=1.7984       S17-O18=1.4345       S17-N19=1.6546       
S17-O27=1.4300       O18-S17=1.4345       N19-S17=1.6546       N19-C20=1.4441       N19-C24=1.4418       C20-N19=1.4441       
C20-C21=1.5280       C20-H48=1.0894       C20-H49=1.0996       C21-C20=1.5280       C21-N22=1.4510       C21-H50=1.1021       
C21-H51=1.0915       N22-C21=1.4510       N22-C23=1.4495       N22-C25=1.4492       C23-N22=1.4495       C23-C24=1.5284       
C23-H52=1.0922       C23-H53=1.1022       C24-N19=1.4418       C24-C23=1.5284       C24-H54=1.0901       C24-H55=1.1010       
C25-N22=1.4492       C25-C26=1.5325       C25-H56=1.0938       C25-H57=1.0943       C26-C25=1.5325       C26-H58=1.0868       
C26-H59=1.0869       C26-H60=1.0871       O27-S17=1.4300       C28-C12=1.3939       C28-C16=1.3763       C28-H61=1.0774       
O29-C13=1.3616       O29-C30=1.4224       C30-O29=1.4224       C30-C31=1.5202       C30-H62=1.0963       C30-H63=1.0969       
C31-C30=1.5202       C31-H64=1.0869       C31-H65=1.0865       C31-H66=1.0857       N32-C11=1.2839       N32-C33=1.3962       
C33-C8=1.4557        C33-N32=1.3962       C33-O34=1.2107       O34-C33=1.2107       H35-C1=1.0871        H36-C1=1.0874        
H37-C1=1.0868        H38-C2=1.0923        H39-C2=1.0935        H40-C3=1.0898        H41-C3=1.0944        H42-C7=1.0890        
H43-C7=1.0876        H44-C7=1.0859        H45-N10=1.0114       H46-C14=1.0776       H47-C15=1.0782       H48-C20=1.0894       
H49-C20=1.0996       H50-C21=1.1021       H51-C21=1.0915       H52-C23=1.0922       H53-C23=1.1022       H54-C24=1.0901       
H55-C24=1.1010       H56-C25=1.0938       H57-C25=1.0943       H58-C26=1.0868       H59-C26=1.0869       H60-C26=1.0871       
H61-C28=1.0774       H62-C30=1.0963       H63-C30=1.0969       H64-C31=1.0869       H65-C31=1.0865       H66-C31=1.0857       
 C  H  Rav=1.0902 sigma=0.0063  Rmin=1.0774  Rmax=1.1022    31
 C  C  Rav=1.4582 sigma=0.0620  Rmin=1.3763  Rmax=1.5369    17
 N  H  Rav=1.0114 sigma=0.0000  Rmin=1.0114  Rmax=1.0114     1
 N  C  Rav=1.3900 sigma=0.0555  Rmin=1.2839  Rmax=1.4510    12
 N  N  Rav=1.3664 sigma=0.0000  Rmin=1.3664  Rmax=1.3664     1
 O  C  Rav=1.3316 sigma=0.0890  Rmin=1.2107  Rmax=1.4224     3
 S  C  Rav=1.7984 sigma=0.0000  Rmin=1.7984  Rmax=1.7984     1
 S  N  Rav=1.6546 sigma=0.0000  Rmin=1.6546  Rmax=1.6546     1
 S  O  Rav=1.4322 sigma=0.0022  Rmin=1.4300  Rmax=1.4345     2

 selected bond angles (degree)
 --------------------
H35-C1-C2=110.32               H36-C1-C2=110.64               H36-C1-H35=108.57              H37-C1-C2=110.31               
H37-C1-H35=108.03              H37-C1-H36=108.91              C3-C2-C1=111.26                H38-C2-C1=109.67               
H38-C2-C3=109.02               H39-C2-C1=109.46               H39-C2-C3=109.47               H39-C2-H38=107.89              
C4-C3-C2=111.30                H40-C3-C2=109.20               H40-C3-C4=108.02               H41-C3-C2=110.14               
H41-C3-C4=109.63               H41-C3-H40=108.47              N5-C4-C3=126.43                N9-C4-C3=123.49                
N9-C4-N5=110.02                C6-N5-C4=107.88                C7-C6-N5=122.57                C8-C6-N5=109.28                
C8-C6-C7=128.15                H42-C7-C6=110.06               H43-C7-C6=110.07               H43-C7-H42=107.53              
H44-C7-C6=109.51               H44-C7-H42=109.30              H44-C7-H43=110.33              N9-C8-C6=104.76                
C33-C8-C6=135.93               C33-C8-N9=119.30               C8-N9-C4=108.06                N10-N9-C4=131.06               
N10-N9-C8=120.86               C11-N10-N9=118.00              H45-N10-N9=119.02              H45-N10-C11=122.67             

 selected dihedral angles (degree)
 ---------------------------------
C3-C2-C1-H35= 64.50           C3-C2-C1-H36=184.65           C3-C2-C1-H37=305.23           H38-C2-C1-H35=303.80          
H38-C2-C1-H36= 63.96          H38-C2-C1-H37=184.53          H39-C2-C1-H35=185.62          H39-C2-C1-H36=305.77          
H39-C2-C1-H37= 66.35          C4-C3-C2-C1= 68.67            C4-C3-C2-H38=189.75           C4-C3-C2-H39=307.55           
H40-C3-C2-C1=309.50           H40-C3-C2-H38= 70.58          H40-C3-C2-H39=188.38          H41-C3-C2-C1=190.48           
H41-C3-C2-H38=311.56          H41-C3-C2-H39= 69.36          N5-C4-C3-C2=266.23            N5-C4-C3-H40= 26.10           
N5-C4-C3-H41=144.13           N9-C4-C3-C2= 83.27            N9-C4-C3-H40=203.14           N9-C4-C3-H41=321.17           
C6-N5-C4-C3=177.71            C6-N5-C4-N9=  0.33            C7-C6-N5-C4=179.45            C8-C6-N5-C4=359.89            
H42-C7-C6-N5=249.91           H42-C7-C6-C8= 69.39           H43-C7-C6-N5=131.56           H43-C7-C6-C8=311.04           
H44-C7-C6-N5= 10.10           H44-C7-C6-C8=189.57           N9-C8-C6-N5=359.86            N9-C8-C6-C7=180.32            
C33-C8-C6-N5=181.25           C33-C8-C6-C7=  1.71           C8-N9-C4-C3=182.11            C8-N9-C4-N5=359.57            
N10-N9-C4-C3=  3.93           N10-N9-C4-N5=181.39           C4-N9-C8-C6=  0.34            C4-N9-C8-C33=179.23           
N10-N9-C8-C6=178.74           N10-N9-C8-C33=357.63          C11-N10-N9-C4=177.81          C11-N10-N9-C8=359.82          
H45-N10-N9-C4=351.65          H45-N10-N9-C8=173.66          
           -------------------------------------------------
          |                Final Singlepoint                |
           -------------------------------------------------

          ...................................................
          :                      SETUP                      :
          :.................................................:
          :  # basis functions                 174          :
          :  # atomic orbitals                 173          :
          :  # shells                          101          :
          :  # electrons                       184          :
          :  max. iterations                   250          :
          :  Hamiltonian                  GFN2-xTB          :
          :  restarted?                      false          :
          :  GBSA solvation                  false          :
          :  PC potential                    false          :
          :  electronic temp.          300.0000000     K    :
          :  accuracy                    1.0000000          :
          :  -> integral cutoff          0.2500000E+02      :
          :  -> integral neglect         0.1000000E-07      :
          :  -> SCF convergence          0.1000000E-05 Eh   :
          :  -> wf. convergence          0.1000000E-03 e    :
          :  Broyden damping             0.4000000          :
          :  net charge                          0          :
          :  unpaired electrons                  0          :
          ...................................................

 iter      E             dE          RMSdq      gap      omega  full diag
   1   -103.9727729 -0.103973E+03  0.530E-05    1.56       0.0  T
   2   -103.9727729 -0.512443E-10  0.338E-05    1.56     364.6  T
   3   -103.9727729 -0.430589E-10  0.157E-05    1.56     783.6  T

   *** convergence criteria satisfied after 3 iterations ***

         #    Occupation            Energy/Eh            Energy/eV
      -------------------------------------------------------------
         1        2.0000           -0.7722117             -21.0130
       ...           ...                  ...                  ...
        86        2.0000           -0.4078216             -11.0974
        87        2.0000           -0.4049563             -11.0194
        88        2.0000           -0.3924806             -10.6799
        89        2.0000           -0.3884793             -10.5711
        90        2.0000           -0.3807909             -10.3618
        91        2.0000           -0.3715224             -10.1096
        92        2.0000           -0.3526844              -9.5970 (HOMO)
        93                         -0.2953208              -8.0361 (LUMO)
        94                         -0.2635494              -7.1715
        95                         -0.2465317              -6.7085
        96                         -0.2241552              -6.0996
        97                         -0.1828777              -4.9764
       ...                                ...                  ...
       173                          1.2411428              33.7732
      -------------------------------------------------------------
                  HL-Gap            0.0573637 Eh            1.5609 eV
             Fermi-level           -0.3240026 Eh           -8.8166 eV

 SCC (total)                   0 d,  0 h,  0 min,  0.087 sec
 SCC setup                      ...        0 min,  0.001 sec (  0.756%)
 Dispersion                     ...        0 min,  0.001 sec (  0.866%)
 classical contributions        ...        0 min,  0.000 sec (  0.385%)
 integral evaluation            ...        0 min,  0.015 sec ( 16.903%)
 iterations                     ...        0 min,  0.015 sec ( 17.156%)
 molecular gradient             ...        0 min,  0.055 sec ( 63.523%)
 printout                       ...        0 min,  0.000 sec (  0.404%)

         :::::::::::::::::::::::::::::::::::::::::::::::::::::
         ::                     SUMMARY                     ::
         :::::::::::::::::::::::::::::::::::::::::::::::::::::
         :: total energy            -102.675540815551 Eh    ::
         :: gradient norm              0.000995588437 Eh/a0 ::
         :: HOMO-LUMO gap              1.560944842740 eV    ::
         ::.................................................::
         :: SCC energy              -103.972170680392 Eh    ::
         :: -> isotropic ES            0.141531124903 Eh    ::
         :: -> anisotropic ES          0.005350251419 Eh    ::
         :: -> anisotropic XC          0.046749852205 Eh    ::
         :: -> dispersion             -0.076827050061 Eh    ::
         :: repulsion energy           1.296629864842 Eh    ::
         :: add. restraining           0.000000000000 Eh    ::
         :: total charge               0.000000000000 e     ::
         :::::::::::::::::::::::::::::::::::::::::::::::::::::

           -------------------------------------------------
          |                Property Printout                |
           -------------------------------------------------

    * Orbital Energies and Occupations

         #    Occupation            Energy/Eh            Energy/eV
      -------------------------------------------------------------
         1        2.0000           -0.7722117             -21.0130
       ...           ...                  ...                  ...
        80        2.0000           -0.4404960             -11.9865
        81        2.0000           -0.4388159             -11.9408
        82        2.0000           -0.4361715             -11.8688
        83        2.0000           -0.4332496             -11.7893
        84        2.0000           -0.4251963             -11.5702
        85        2.0000           -0.4214848             -11.4692
        86        2.0000           -0.4078216             -11.0974
        87        2.0000           -0.4049563             -11.0194
        88        2.0000           -0.3924806             -10.6799
        89        2.0000           -0.3884793             -10.5711
        90        2.0000           -0.3807909             -10.3618
        91        2.0000           -0.3715224             -10.1096
        92        2.0000           -0.3526844              -9.5970 (HOMO)
        93                         -0.2953208              -8.0361 (LUMO)
        94                         -0.2635494              -7.1715
        95                         -0.2465317              -6.7085
        96                         -0.2241552              -6.0996
        97                         -0.1828777              -4.9764
        98                         -0.1392786              -3.7900
        99                         -0.1189516              -3.2368
       100                         -0.1081009              -2.9416
       101                         -0.0802962              -2.1850
       102                         -0.0689981              -1.8775
       103                         -0.0535679              -1.4577
       ...                                ...                  ...
       173                          1.2411428              33.7732
      -------------------------------------------------------------
                  HL-Gap            0.0573637 Eh            1.5609 eV
             Fermi-level           -0.3240026 Eh           -8.8166 eV

     #   Z          covCN         q      C6AA      α(0)
     1   6 C        3.753    -0.109    22.647     6.786
     2   6 C        3.802    -0.049    21.448     6.594
     3   6 C        3.805    -0.068    21.794     6.646
     4   6 C        3.128     0.102    25.548     8.276
     5   7 N        1.927    -0.284    28.201     7.874
     6   6 C        3.147     0.077    26.032     8.347
     7   6 C        3.755    -0.113    22.718     6.796
     8   6 C        3.064    -0.038    28.881     8.813
     9   7 N        2.949     0.047    20.409     6.710
    10   7 N        2.768    -0.095    23.086     7.136
    11   6 C        2.856     0.170    24.333     8.085
    12   6 C        2.981    -0.020    28.493     8.756
    13   6 C        2.857     0.143    24.877     8.175
    14   6 C        2.918    -0.061    29.526     8.911
    15   6 C        2.956    -0.025    28.619     8.775
    16   6 C        2.965    -0.096    30.414     9.046
    17  16 S        3.877     1.070   104.663    17.219
    18   8 O        0.860    -0.553    25.000     6.704
    19   7 N        2.739    -0.260    26.748     7.681
    20   6 C        3.845     0.002    20.507     6.442
    21   6 C        3.766     0.008    20.475     6.449
    22   7 N        2.732    -0.177    24.834     7.401
    23   6 C        3.766     0.010    20.452     6.446
    24   6 C        3.857     0.006    20.437     6.429
    25   6 C        3.749     0.002    20.606     6.474
    26   6 C        3.750    -0.113    22.725     6.799
    27   8 O        0.860    -0.544    24.783     6.675
    28   6 C        2.965    -0.023    28.579     8.769
    29   8 O        1.704    -0.278    18.612     5.825
    30   6 C        3.686     0.081    19.413     6.307
    31   6 C        3.751    -0.116    22.787     6.808
    32   7 N        1.844    -0.299    28.606     7.927
    33   6 C        2.777     0.289    22.102     7.700
    34   8 O        0.859    -0.395    21.578     6.228
    35   1 H        0.925     0.043     2.406     2.425
    36   1 H        0.925     0.037     2.492     2.468
    37   1 H        0.925     0.052     2.290     2.366
    38   1 H        0.924     0.034     2.532     2.489
    39   1 H        0.924     0.025     2.664     2.553
    40   1 H        0.925     0.070     2.081     2.256
    41   1 H        0.924     0.028     2.609     2.526
    42   1 H        0.925     0.062     2.180     2.309
    43   1 H        0.925     0.065     2.147     2.291
    44   1 H        0.925     0.063     2.166     2.302
    45   1 H        0.860     0.209     1.060     1.613
    46   1 H        0.926     0.058     2.226     2.333
    47   1 H        0.926     0.075     2.036     2.231
    48   1 H        0.925     0.067     2.122     2.278
    49   1 H        0.923     0.036     2.498     2.472
    50   1 H        0.923     0.029     2.597     2.520
    51   1 H        0.924     0.051     2.304     2.374
    52   1 H        0.924     0.044     2.394     2.420
    53   1 H        0.923     0.029     2.594     2.519
    54   1 H        0.925     0.059     2.209     2.324
    55   1 H        0.923     0.024     2.670     2.555
    56   1 H        0.924     0.040     2.443     2.444
    57   1 H        0.924     0.037     2.493     2.469
    58   1 H        0.925     0.039     2.468     2.457
    59   1 H        0.925     0.038     2.478     2.462
    60   1 H        0.925     0.036     2.508     2.477
    61   1 H        0.926     0.099     1.797     2.096
    62   1 H        0.924     0.042     2.422     2.434
    63   1 H        0.924     0.041     2.437     2.441
    64   1 H        0.925     0.056     2.247     2.344
    65   1 H        0.925     0.061     2.186     2.312
    66   1 H        0.925     0.058     2.221     2.330

 Mol. C6AA /au·bohr⁶  :      48340.392386
 Mol. C8AA /au·bohr⁸  :    1144295.999382
 Mol. α(0) /au        :        335.896565


Wiberg/Mayer (AO) data.
largest (>0.10) Wiberg bond orders for each atom

 ---------------------------------------------------------------------------
     #   Z sym  total        # sym  WBO       # sym  WBO       # sym  WBO
 ---------------------------------------------------------------------------
     1   6 C    3.994 --     2 C    1.022    35 H    0.987    36 H    0.987
                            37 H    0.984
     2   6 C    3.995 --     1 C    1.022     3 C    0.984    39 H    0.978
                            38 H    0.977
     3   6 C    3.994 --     4 C    1.017     2 C    0.984    40 H    0.968
                            41 H    0.968
     4   6 C    3.946 --     5 N    1.446     9 N    1.232     3 C    1.017
     5   7 N    3.023 --     4 C    1.446     6 C    1.327
     6   6 C    3.976 --     8 C    1.428     5 N    1.327     7 C    1.036
     7   6 C    3.993 --     6 C    1.036    44 H    0.982    43 H    0.970
                            42 H    0.963
     8   6 C    3.914 --     6 C    1.428     9 N    1.104    33 C    1.067
     9   7 N    3.626 --     4 C    1.232     8 C    1.104    10 N    1.034
    10   7 N    3.474 --    11 C    1.197     9 N    1.034    45 H    0.900
                            32 N    0.132
    11   6 C    3.964 --    32 N    1.584    10 N    1.197    12 C    1.040
    12   6 C    3.982 --    28 C    1.392    13 C    1.307    11 C    1.040
    13   6 C    3.935 --    14 C    1.372    12 C    1.307    29 O    1.071
    14   6 C    3.986 --    15 C    1.444    13 C    1.372    46 H    0.962
    15   6 C    3.981 --    14 C    1.444    16 C    1.409    47 H    0.962
    16   6 C    3.973 --    28 C    1.433    15 C    1.409    17 S    0.742
    17  16 S    5.074 --    27 O    1.650    18 O    1.639    19 N    0.967
                            16 C    0.742
    18   8 O    1.937 --    17 S    1.639    27 O    0.109
    19   7 N    3.247 --    24 C    0.992    20 C    0.989    17 S    0.967
    20   6 C    3.968 --    21 C    0.994    19 N    0.989    48 H    0.969
                            49 H    0.965
    21   6 C    3.987 --    22 N    1.006    20 C    0.994    51 H    0.970
                            50 H    0.963
    22   7 N    3.135 --    23 C    1.008    21 C    1.006    25 C    1.004
    23   6 C    3.988 --    22 N    1.008    24 C    0.994    52 H    0.971
                            53 H    0.962
    24   6 C    3.973 --    23 C    0.994    19 N    0.992    54 H    0.970
                            55 H    0.967
    25   6 C    3.984 --    22 N    1.004    26 C    1.004    57 H    0.972
                            56 H    0.972
    26   6 C    3.997 --    25 C    1.004    60 H    0.987    59 H    0.987
                            58 H    0.986
    27   8 O    1.950 --    17 S    1.650    18 O    0.109
    28   6 C    3.980 --    16 C    1.433    12 C    1.392    61 H    0.954
    29   8 O    2.246 --    13 C    1.071    30 C    0.948
    30   6 C    3.935 --    31 C    1.016    62 H    0.969    63 H    0.968
                            29 O    0.948
    31   6 C    3.990 --    30 C    1.016    64 H    0.985    65 H    0.984
                            66 H    0.982
    32   7 N    3.062 --    11 C    1.584    33 C    1.081    10 N    0.132
    33   6 C    3.953 --    34 O    1.715    32 N    1.081     8 C    1.067
    34   8 O    2.036 --    33 C    1.715
    35   1 H    0.998 --     1 C    0.987
    36   1 H    0.999 --     1 C    0.987
    37   1 H    0.997 --     1 C    0.984
    38   1 H    0.998 --     2 C    0.977
    39   1 H    0.999 --     2 C    0.978
    40   1 H    0.994 --     3 C    0.968
    41   1 H    0.999 --     3 C    0.968
    42   1 H    0.996 --     7 C    0.963
    43   1 H    0.996 --     7 C    0.970
    44   1 H    0.996 --     7 C    0.982
    45   1 H    0.956 --    10 N    0.900
    46   1 H    0.995 --    14 C    0.962
    47   1 H    0.994 --    15 C    0.962
    48   1 H    0.995 --    20 C    0.969
    49   1 H    0.999 --    20 C    0.965
    50   1 H    0.999 --    21 C    0.963
    51   1 H    0.996 --    21 C    0.970
    52   1 H    0.997 --    23 C    0.971
    53   1 H    0.999 --    23 C    0.962
    54   1 H    0.996 --    24 C    0.970
    55   1 H    0.999 --    24 C    0.967
    56   1 H    0.998 --    25 C    0.972
    57   1 H    0.998 --    25 C    0.972
    58   1 H    0.998 --    26 C    0.986
    59   1 H    0.999 --    26 C    0.987
    60   1 H    0.999 --    26 C    0.987
    61   1 H    0.990 --    28 C    0.954
    62   1 H    0.998 --    30 C    0.969
    63   1 H    0.998 --    30 C    0.968
    64   1 H    0.997 --    31 C    0.985
    65   1 H    0.996 --    31 C    0.984
    66   1 H    0.996 --    31 C    0.982
 ---------------------------------------------------------------------------

Topologies differ in total number of bonds
Writing topology from bond orders to xtbtopo.mol

molecular dipole:
                 x           y           z       tot (Debye)
 q only:       -1.100      -2.547      -2.712
   full:       -0.742      -2.735      -3.389      11.229
molecular quadrupole (traceless):
                xx          xy          yy          xz          yz          zz
 q only:      -15.361     -20.295      -9.365      24.479      -6.974      24.726
  q+dip:      -21.199     -19.603      -8.442      27.586      -7.376      29.641
   full:      -24.060     -19.150      -4.907      27.544      -9.295      28.967

           -------------------------------------------------
          |                Geometry Summary                 |
           -------------------------------------------------

      molecular mass/u    :      488.6036560
   center of mass at/Å    :        0.2178646       0.4715385       0.0164099
  moments of inertia/u·Å² :        0.2894483E+04   0.8612463E+04   0.9930798E+04
rotational constants/cm⁻¹ :        0.5824056E-02   0.1957353E-02   0.1697510E-02

 * 66 selected distances

     #   Z          #   Z                                           value/Å
     1   6 C        2   6 C                                       1.5224903
     2   6 C        3   6 C                                       1.5368546
     3   6 C        4   6 C                                       1.4854604
     4   6 C        5   7 N                                       1.3169125
     5   7 N        6   6 C                                       1.3516396
     6   6 C        7   6 C                                       1.4820547
     6   6 C        8   6 C                                       1.3851811
     4   6 C        9   7 N                                       1.3503217
     8   6 C        9   7 N                                       1.3851639
     9   7 N       10   7 N                                       1.3663586
    10   7 N       11   6 C                                       1.3604158
    12   6 C       13   6 C                                       1.4102083
    13   6 C       14   6 C                                       1.3945791
    14   6 C       15   6 C                                       1.3827155
    15   6 C       16   6 C                                       1.3806509
    16   6 C       17  16 S                                       1.7984458 (max)
    17  16 S       18   8 O                                       1.4344580
    17  16 S       19   7 N                                       1.6545856
    19   7 N       20   6 C                                       1.4441088
    20   6 C       21   6 C                                       1.5280033
    21   6 C       22   7 N                                       1.4510197
    22   7 N       23   6 C                                       1.4494888
    19   7 N       24   6 C                                       1.4418050
    23   6 C       24   6 C                                       1.5283798
    22   7 N       25   6 C                                       1.4491633
    25   6 C       26   6 C                                       1.5325024
    17  16 S       27   8 O                                       1.4299681
    12   6 C       28   6 C                                       1.3939084
    16   6 C       28   6 C                                       1.3763147
    13   6 C       29   8 O                                       1.3615664
    29   8 O       30   6 C                                       1.4223894
    30   6 C       31   6 C                                       1.5201803
    11   6 C       32   7 N                                       1.2838873
    33   6 C       34   8 O                                       1.2106960
     1   6 C       35   1 H                                       1.0871264
     1   6 C       36   1 H                                       1.0873606
     1   6 C       37   1 H                                       1.0868017
     2   6 C       38   1 H                                       1.0923084
     2   6 C       39   1 H                                       1.0935350
     3   6 C       40   1 H                                       1.0898187
     3   6 C       41   1 H                                       1.0943596
     7   6 C       42   1 H                                       1.0889771
     7   6 C       43   1 H                                       1.0876186
     7   6 C       44   1 H                                       1.0859051
    10   7 N       45   1 H                                       1.0114471 (min)
    14   6 C       46   1 H                                       1.0775627
    15   6 C       47   1 H                                       1.0781888
    20   6 C       48   1 H                                       1.0894269
    20   6 C       49   1 H                                       1.0995601
    21   6 C       50   1 H                                       1.1020569
    21   6 C       51   1 H                                       1.0914626
    23   6 C       52   1 H                                       1.0922236
    23   6 C       53   1 H                                       1.1022290
    24   6 C       54   1 H                                       1.0901142
    24   6 C       55   1 H                                       1.1010039
    25   6 C       56   1 H                                       1.0937649
    25   6 C       57   1 H                                       1.0943034
    26   6 C       58   1 H                                       1.0868273
    26   6 C       59   1 H                                       1.0868757
    26   6 C       60   1 H                                       1.0871377
    28   6 C       61   1 H                                       1.0774123
    30   6 C       62   1 H                                       1.0962846
    30   6 C       63   1 H                                       1.0969194
    31   6 C       64   1 H                                       1.0869110
    31   6 C       65   1 H                                       1.0864694
    31   6 C       66   1 H                                       1.0856870

 * 9 distinct bonds (by element types)

   Z      Z             #   av. dist./Å        max./Å        min./Å
   1 H    6 C          31     1.0902010     1.1022290     1.0774123
   6 C    6 C          15     1.4572989     1.5368546     1.3763147
   1 H    7 N           1     1.0114471     1.0114471     1.0114471
   6 C    7 N          11     1.3894479     1.4510197     1.2838873
   7 N    7 N           1     1.3663586     1.3663586     1.3663586
   6 C    8 O           3     1.3315506     1.4223894     1.2106960
   6 C   16 S           1     1.7984458     1.7984458     1.7984458
   7 N   16 S           1     1.6545856     1.6545856     1.6545856
   8 O   16 S           2     1.4322131     1.4344580     1.4299681


optimized geometry written to: xtbopt.xyz


           -------------------------------------------------
          | TOTAL ENERGY             -102.675540815551 Eh   |
          | GRADIENT NORM               0.000995588437 Eh/α |
          | HOMO-LUMO GAP               1.560944842740 eV   |
           -------------------------------------------------

------------------------------------------------------------------------
 * finished run on 2025/05/15 at 16:31:21.812     
------------------------------------------------------------------------
 total:
 * wall-time:     0 d,  0 h,  0 min,  4.017 sec
 *  cpu-time:     0 d,  0 h,  0 min,  2.722 sec
 * ratio c/w:     0.678 speedup
 SCF:
 * wall-time:     0 d,  0 h,  0 min,  0.194 sec
 *  cpu-time:     0 d,  0 h,  0 min,  0.139 sec
 * ratio c/w:     0.717 speedup
 ANC optimizer:
 * wall-time:     0 d,  0 h,  0 min,  3.802 sec
 *  cpu-time:     0 d,  0 h,  0 min,  2.563 sec
 * ratio c/w:     0.674 speedup



----- Single-point -----
      -----------------------------------------------------------      
     |                   =====================                   |     
     |                           x T B                           |     
     |                   =====================                   |     
     |                         S. Grimme                         |     
     |          Mulliken Center for Theoretical Chemistry        |     
     |                    University of Bonn                     |     
      -----------------------------------------------------------      

   * xtb version 6.7.1 (edcfbbe) compiled by 'conda@3ef47c1a292c' on 2024-11-25

   xtb is free software: you can redistribute it and/or modify it under
   the terms of the GNU Lesser General Public License as published by
   the Free Software Foundation, either version 3 of the License, or
   (at your option) any later version.
   
   xtb is distributed in the hope that it will be useful,
   but WITHOUT ANY WARRANTY; without even the implied warranty of
   MERCHANTABILITY or FITNESS FOR A PARTICULAR PURPOSE.  See the
   GNU Lesser General Public License for more details.
   
   Cite this work as:
   * C. Bannwarth, E. Caldeweyher, S. Ehlert, A. Hansen, P. Pracht,
     J. Seibert, S. Spicher, S. Grimme, WIREs Comput. Mol. Sci., 2020, 11,
     e01493. DOI: 10.1002/wcms.1493
   
   for GFN2-xTB:
   * C. Bannwarth, S. Ehlert and S. Grimme., J. Chem. Theory Comput., 2019,
     15, 1652-1671. DOI: 10.1021/acs.jctc.8b01176
   for GFN1-xTB:
   * S. Grimme, C. Bannwarth, P. Shushkov, J. Chem. Theory Comput., 2017,
     13, 1989-2009. DOI: 10.1021/acs.jctc.7b00118
   for GFN0-xTB:
   * P. Pracht, E. Caldeweyher, S. Ehlert, S. Grimme, ChemRxiv, 2019, preprint.
     DOI: 10.26434/chemrxiv.8326202.v1
   for GFN-FF:
   * S. Spicher and S. Grimme, Angew. Chem. Int. Ed., 2020, 59, 15665-15673.
     DOI: 10.1002/anie.202004239
   
   for ALPB and GBSA implicit solvation:
   * S. Ehlert, M. Stahn, S. Spicher, S. Grimme, J. Chem. Theory Comput.,
     2021, 17, 4250-4261. DOI: 10.1021/acs.jctc.1c00471
   
   for ddCOSMO and CPCM-X implicit solvation:
   * M. Stahn, S. Ehlert, S. Grimme, J. Phys. Chem. A,
     2023, XX, XXXX-XXXX. DOI: 10.1021/acs.jpca.3c04382
   
   for DFT-D4:
   * E. Caldeweyher, C. Bannwarth and S. Grimme, J. Chem. Phys., 2017,
     147, 034112. DOI: 10.1063/1.4993215
   * E. Caldeweyher, S. Ehlert, A. Hansen, H. Neugebauer, S. Spicher,
     C. Bannwarth and S. Grimme, J. Chem. Phys., 2019, 150, 154122.
     DOI: 10.1063/1.5090222
   * E. Caldeweyher, J.-M. Mewes, S. Ehlert and S. Grimme, Phys. Chem. Chem. Phys.
[...]
          coordinate file            : /rds/general/user/hgt20/home/callum/QDESCP/Vardenafil_rdkit_conf_5/Vardenafil_rdkit_conf_5.xyz
          omp threads                :                     1


           -------------------------------------------------
          |                 G F N 2 - x T B                 |
           -------------------------------------------------

        Reference                      10.1021/acs.jctc.8b01176
      * Hamiltonian:
        H0-scaling (s, p, d)           1.850000    2.230000    2.230000
        zeta-weighting                 0.500000
      * Dispersion:
        s8                             2.700000
        a1                             0.520000
        a2                             5.000000
        s9                             5.000000
      * Repulsion:
        kExp                           1.500000    1.000000
        rExp                           1.000000
      * Coulomb:
        alpha                          2.000000
        third order                    shell-resolved
        anisotropic                    true
        a3                             3.000000
        a5                             4.000000
        cn-shift                       1.200000
        cn-exp                         4.000000
        max-rad                        5.000000


          ...................................................
          :                      SETUP                      :
          :.................................................:
          :  # basis functions                 174          :
          :  # atomic orbitals                 173          :
          :  # shells                          101          :
          :  # electrons                       184          :
          :  max. iterations                   250          :
          :  Hamiltonian                  GFN2-xTB          :
          :  restarted?                      false          :
          :  GBSA solvation                  false          :
          :  PC potential                    false          :
          :  electronic temp.          300.0000000     K    :
          :  accuracy                    1.0000000          :
          :  -> integral cutoff          0.2500000E+02      :
          :  -> integral neglect         0.1000000E-07      :
          :  -> SCF convergence          0.1000000E-05 Eh   :
          :  -> wf. convergence          0.1000000E-03 e    :
          :  Broyden damping             0.4000000          :
          :  net charge                          0          :
          :  unpaired electrons                  2          :
          ...................................................

 iter      E             dE          RMSdq      gap      omega  full diag
   1   -103.5504648 -0.103550E+03  0.411E+00    0.75       0.0  T
   2   -103.7560279 -0.205563E+00  0.282E+00    0.55       1.0  T
   3   -103.6514245  0.104603E+00  0.196E+00    0.68       1.0  T
   4   -103.7050234 -0.535989E-01  0.144E+00    0.50       1.0  T
   5   -103.8136638 -0.108640E+00  0.878E-01    0.93       1.0  T
   6   -103.8349255 -0.212617E-01  0.684E-01    0.65       1.0  T
   7   -103.8585218 -0.235963E-01  0.441E-01    0.82       1.0  T
   8   -103.8739089 -0.153871E-01  0.291E-01    0.70       1.0  T
   9   -103.8716523  0.225662E-02  0.249E-01    0.74       1.0  T
  10   -103.7458608  0.125791E+00  0.903E-01    0.68       1.0  T
  11   -103.8794546 -0.133594E+00  0.143E-01    0.69       1.0  T
  12   -103.8801006 -0.646002E-03  0.815E-02    0.72       1.0  T
  13   -103.8761883  0.391226E-02  0.172E-01    0.72       1.0  T
  14   -103.8781492 -0.196090E-02  0.117E-01    0.72       1.0  T
  15   -103.8807933 -0.264407E-02  0.208E-02    0.72       1.0  T
  16   -103.8807435  0.497992E-04  0.271E-02    0.72       1.0  T
  17   -103.8808546 -0.111143E-03  0.700E-03    0.72       1.8  T
  18   -103.8808596 -0.501382E-05  0.451E-03    0.72       2.7  T
  19   -103.8808634 -0.375508E-05  0.189E-03    0.72       6.5  T
  20   -103.8808638 -0.412412E-06  0.605E-04    0.72      20.4  T
  21   -103.8808638  0.298484E-07  0.748E-04    0.72      16.5  T

   *** convergence criteria satisfied after 21 iterations ***

         #    Occupation            Energy/Eh            Energy/eV
      -------------------------------------------------------------
         1        2.0000           -0.7646167             -20.8063
       ...           ...                  ...                  ...
        87        2.0000           -0.4013279             -10.9207
        88        2.0000           -0.3931322             -10.6977
        89        2.0000           -0.3910179             -10.6401
        90        1.9508           -0.3817382             -10.3876
        91        1.7998           -0.3802401             -10.3469
        92        1.2494           -0.3778780             -10.2826
        93        1.0000           -0.2690378              -7.3209 (HOMO)
        94        0.0000           -0.2426884              -6.6039 (LUMO)
        95                         -0.2309606              -6.2848
        96                         -0.2065320              -5.6200
        97                         -0.1790653              -4.8726
        98                         -0.1227195              -3.3394
       ...                                ...                  ...
       173                          1.2487482              33.9802
      -------------------------------------------------------------
                  HL-Gap            0.0263494 Eh            0.7170 eV
             Fermi-level           -0.3173938 Eh           -8.6367 eV

 transition dipole moment (au) for excitation:          92          93
     X       Y       Z   
   0.1743   0.0204  -0.1289  total (au/Debye):    0.218   0.554
 dE (eV)             :    2.962
 oscillator strength :  0.48665E-02

 SCC (total)                   0 d,  0 h,  0 min,  0.206 sec
 SCC setup                      ...        0 min,  0.001 sec (  0.360%)
 Dispersion                     ...        0 min,  0.001 sec (  0.518%)
 classical contributions        ...        0 min,  0.000 sec (  0.167%)
 integral evaluation            ...        0 min,  0.015 sec (  7.453%)
 iterations                     ...        0 min,  0.105 sec ( 50.837%)
 molecular gradient             ...        0 min,  0.071 sec ( 34.210%)
 printout                       ...        0 min,  0.013 sec (  6.450%)

         :::::::::::::::::::::::::::::::::::::::::::::::::::::
         ::                     SUMMARY                     ::
         :::::::::::::::::::::::::::::::::::::::::::::::::::::
         :: total energy            -102.583631665229 Eh    ::
         :: gradient norm              0.131177444621 Eh/a0 ::
         :: HOMO-LUMO gap              0.717002656209 eV    ::
         ::.................................................::
         :: SCC energy              -103.880261530071 Eh    ::
         :: -> isotropic ES            0.133011117161 Eh    ::
         :: -> anisotropic ES          0.003385482617 Eh    ::
         :: -> anisotropic XC          0.039661348388 Eh    ::
         :: -> dispersion             -0.076768604094 Eh    ::
         :: repulsion energy           1.296629864842 Eh    ::
         :: add. restraining           0.000000000000 Eh    ::
         :: total charge              -0.000000000004 e     ::
         :::::::::::::::::::::::::::::::::::::::::::::::::::::

           -------------------------------------------------
          |                Property Printout                |
           -------------------------------------------------

    * Orbital Energies and Occupations

         #    Occupation            Energy/Eh            Energy/eV
      -------------------------------------------------------------
         1        2.0000           -0.7646167             -20.8063
       ...           ...                  ...                  ...
        81        2.0000           -0.4318560             -11.7514
        82        2.0000           -0.4272606             -11.6264
        83        2.0000           -0.4178693             -11.3708
        84        2.0000           -0.4133028             -11.2465
        85        2.0000           -0.4074816             -11.0881
        86        2.0000           -0.4060248             -11.0485
        87        2.0000           -0.4013279             -10.9207
        88        2.0000           -0.3931322             -10.6977
        89        2.0000           -0.3910179             -10.6401
        90        1.9508           -0.3817382             -10.3876
        91        1.7998           -0.3802401             -10.3469
        92        1.2494           -0.3778780             -10.2826
        93        1.0000           -0.2690378              -7.3209 (HOMO)
        94        0.0000           -0.2426884              -6.6039 (LUMO)
        95                         -0.2309606              -6.2848
        96                         -0.2065320              -5.6200
        97                         -0.1790653              -4.8726
        98                         -0.1227195              -3.3394
        99                         -0.1087041              -2.9580
       100                         -0.0947223              -2.5775
       101                         -0.0675664              -1.8386
       102                         -0.0592414              -1.6120
       103                         -0.0456658              -1.2426
       104                         -0.0304853              -0.8295
       ...                                ...                  ...
       173                          1.2487482              33.9802
      -------------------------------------------------------------
                  HL-Gap            0.0263494 Eh            0.7170 eV
             Fermi-level           -0.3173938 Eh           -8.6367 eV

     #   Z          covCN         q      C6AA      α(0)
     1   6 C        3.753    -0.109    22.644     6.786
     2   6 C        3.802    -0.050    21.467     6.597
     3   6 C        3.805    -0.068    21.800     6.647
     4   6 C        3.128     0.106    25.470     8.263
     5   7 N        1.927    -0.268    27.801     7.818
     6   6 C        3.147     0.076    26.049     8.349
     7   6 C        3.755    -0.113    22.727     6.798
     8   6 C        3.064    -0.014    28.288     8.722
     9   7 N        2.949     0.053    20.305     6.693
    10   7 N        2.768    -0.114    23.474     7.196
    11   6 C        2.856     0.124    25.280     8.241
    12   6 C        2.981    -0.039    28.965     8.828
    13   6 C        2.857     0.125    25.248     8.236
    14   6 C        2.918    -0.069    29.720     8.940
    15   6 C        2.956    -0.056    29.382     8.891
    16   6 C        2.965    -0.103    30.607     9.075
    17  16 S        3.877     1.075   104.520    17.207
    18   8 O        0.860    -0.557    25.087     6.715
    19   7 N        2.739    -0.256    26.635     7.665
    20   6 C        3.845     0.001    20.525     6.444
    21   6 C        3.766     0.001    20.596     6.468
    22   7 N        2.732    -0.129    23.804     7.246
    23   6 C        3.766     0.002    20.579     6.466
    24   6 C        3.857     0.004    20.479     6.436
    25   6 C        3.749    -0.003    20.701     6.489
    26   6 C        3.750    -0.114    22.754     6.803
    27   8 O        0.860    -0.550    24.925     6.694
    28   6 C        2.965    -0.045    29.119     8.851
    29   8 O        1.704    -0.292    18.851     5.862
    30   6 C        3.686     0.084    19.371     6.301
    31   6 C        3.751    -0.114    22.747     6.802
    32   7 N        1.844    -0.243    27.187     7.728
    33   6 C        2.777     0.266    22.508     7.771
    34   8 O        0.859    -0.379    21.266     6.183
    35   1 H        0.925     0.043     2.414     2.430
    36   1 H        0.925     0.038     2.479     2.462
    37   1 H        0.925     0.050     2.317     2.380
    38   1 H        0.924     0.037     2.492     2.469
    39   1 H        0.924     0.030     2.589     2.516
    40   1 H        0.925     0.071     2.078     2.254
    41   1 H        0.924     0.036     2.498     2.472
    42   1 H        0.925     0.065     2.139     2.287
    43   1 H        0.925     0.067     2.113     2.273
    44   1 H        0.925     0.067     2.114     2.274
    45   1 H        0.860     0.207     1.073     1.622
    46   1 H        0.926     0.039     2.462     2.454
    47   1 H        0.926     0.048     2.345     2.395
    48   1 H        0.925     0.075     2.032     2.229
    49   1 H        0.923     0.049     2.336     2.390
    50   1 H        0.923     0.047     2.359     2.402
    51   1 H        0.924     0.059     2.207     2.323
    52   1 H        0.924     0.053     2.278     2.361
    53   1 H        0.923     0.046     2.365     2.405
    54   1 H        0.925     0.070     2.088     2.260
    55   1 H        0.923     0.038     2.469     2.458
    56   1 H        0.924     0.050     2.316     2.380
    57   1 H        0.924     0.047     2.354     2.399
    58   1 H        0.925     0.048     2.344     2.394
    59   1 H        0.925     0.044     2.401     2.423
    60   1 H        0.925     0.042     2.424     2.434
    61   1 H        0.926     0.066     2.130     2.282
    62   1 H        0.924     0.037     2.493     2.469
    63   1 H        0.924     0.036     2.497     2.471
    64   1 H        0.925     0.052     2.298     2.370
    65   1 H        0.925     0.057     2.240     2.341
    66   1 H        0.925     0.052     2.290     2.367

 Mol. C6AA /au·bohr⁶  :      48262.826618
 Mol. C8AA /au·bohr⁸  :    1143739.380679
 Mol. α(0) /au        :        335.654501


Wiberg/Mayer (AO) data.
largest (>0.10) Wiberg bond orders for each atom

 ---------------------------------------------------------------------------
     #   Z sym  total        # sym  WBO       # sym  WBO       # sym  WBO
 ---------------------------------------------------------------------------
     1   6 C    3.994 --     2 C    1.022    35 H    0.987    36 H    0.987
                            37 H    0.985
     2   6 C    3.993 --     1 C    1.022     3 C    0.983    39 H    0.978
                            38 H    0.977
     3   6 C    3.993 --     4 C    1.018     2 C    0.983    40 H    0.967
                            41 H    0.967
     4   6 C    3.924 --     5 N    1.423     9 N    1.242     3 C    1.018
     5   7 N    3.035 --     4 C    1.423     6 C    1.302
     6   6 C    3.923 --     8 C    1.403     5 N    1.302     7 C    1.038
     7   6 C    3.988 --     6 C    1.038    44 H    0.979    43 H    0.967
                            42 H    0.961
     8   6 C    3.836 --     6 C    1.403     9 N    1.126    33 C    0.996
     9   7 N    3.633 --     4 C    1.242     8 C    1.126    10 N    1.033
    10   7 N    3.361 --    11 C    1.118     9 N    1.033    45 H    0.902
    11   6 C    3.904 --    32 N    1.403    12 C    1.136    10 N    1.118
    12   6 C    3.944 --    28 C    1.304    13 C    1.233    11 C    1.136
    13   6 C    3.911 --    14 C    1.421    12 C    1.233    29 O    1.046
    14   6 C    3.971 --    13 C    1.421    15 C    1.381    46 H    0.964
    15   6 C    3.913 --    14 C    1.381    16 C    1.368    47 H    0.966
    16   6 C    3.937 --    28 C    1.461    15 C    1.368    17 S    0.730
    17  16 S    5.027 --    27 O    1.647    18 O    1.638    19 N    0.934
                            16 C    0.730
    18   8 O    1.932 --    17 S    1.638    27 O    0.108
    19   7 N    3.214 --    24 C    0.999    20 C    0.996    17 S    0.934
    20   6 C    3.962 --    19 N    0.996    21 C    0.988    48 H    0.967
                            49 H    0.960
    21   6 C    3.973 --    22 N    1.008    20 C    0.988    51 H    0.970
                            50 H    0.954
    22   7 N    3.122 --    23 C    1.009    21 C    1.008    25 C    1.002
    23   6 C    3.976 --    22 N    1.009    24 C    0.989    52 H    0.970
                            53 H    0.954
    24   6 C    3.966 --    19 N    0.999    23 C    0.989    54 H    0.968
                            55 H    0.963
    25   6 C    3.972 --    22 N    1.002    26 C    0.997    57 H    0.970
                            56 H    0.970
    26   6 C    3.978 --    25 C    0.997    60 H    0.986    59 H    0.986
                            58 H    0.984
    27   8 O    1.943 --    17 S    1.647    18 O    0.108
    28   6 C    3.969 --    16 C    1.461    12 C    1.304    61 H    0.957
    29   8 O    2.221 --    13 C    1.046    30 C    0.956
    30   6 C    3.943 --    31 C    1.016    62 H    0.969    63 H    0.968
                            29 O    0.956
    31   6 C    3.992 --    30 C    1.016    64 H    0.985    65 H    0.984
                            66 H    0.984
    32   7 N    3.034 --    11 C    1.403    33 C    1.163    34 O    0.197
    33   6 C    3.901 --    34 O    1.590    32 N    1.163     8 C    0.996
    34   8 O    1.998 --    33 C    1.590    32 N    0.197
    35   1 H    0.998 --     1 C    0.987
    36   1 H    0.998 --     1 C    0.987
    37   1 H    0.997 --     1 C    0.985
    38   1 H    0.998 --     2 C    0.977
    39   1 H    0.999 --     2 C    0.978
    40   1 H    0.994 --     3 C    0.967
    41   1 H    0.998 --     3 C    0.967
    42   1 H    0.991 --     7 C    0.961
    43   1 H    0.992 --     7 C    0.967
    44   1 H    0.993 --     7 C    0.979
    45   1 H    0.956 --    10 N    0.902
    46   1 H    0.997 --    14 C    0.964
    47   1 H    0.997 --    15 C    0.966
    48   1 H    0.994 --    20 C    0.967
    49   1 H    0.990 --    20 C    0.960
    50   1 H    0.981 --    21 C    0.954
    51   1 H    0.995 --    21 C    0.970
    52   1 H    0.996 --    23 C    0.970
    53   1 H    0.982 --    23 C    0.954
    54   1 H    0.995 --    24 C    0.968
    55   1 H    0.991 --    24 C    0.963
    56   1 H    0.995 --    25 C    0.970
    57   1 H    0.996 --    25 C    0.970
    58   1 H    0.997 --    26 C    0.984
    59   1 H    0.998 --    26 C    0.986
    60   1 H    0.998 --    26 C    0.986
    61   1 H    0.994 --    28 C    0.957
    62   1 H    0.998 --    30 C    0.969
    63   1 H    0.998 --    30 C    0.968
    64   1 H    0.997 --    31 C    0.985
    65   1 H    0.997 --    31 C    0.984
    66   1 H    0.997 --    31 C    0.984
 ---------------------------------------------------------------------------

Topologies differ in total number of bonds
Writing topology from bond orders to xtbtopo.mol

molecular dipole:
                 x           y           z       tot (Debye)
 q only:       -0.792      -3.032      -0.837
   full:       -0.397      -3.231      -1.361       8.968
molecular quadrupole (traceless):
                xx          xy          yy          xz          yz          zz
 q only:       -4.390     -30.835     -15.012      37.520     -10.997      19.402
  q+dip:       -9.346     -30.078     -14.216      40.569     -10.994      23.561
   full:      -11.732     -29.723     -11.537      40.806     -12.585      23.269


           -------------------------------------------------
          | TOTAL ENERGY             -102.583631665229 Eh   |
          | GRADIENT NORM               0.131177444621 Eh/α |
          | HOMO-LUMO GAP               0.717002656209 eV   |
           -------------------------------------------------

------------------------------------------------------------------------
 * finished run on 2025/05/15 at 16:31:25.145     
------------------------------------------------------------------------
 total:
 * wall-time:     0 d,  0 h,  0 min,  0.227 sec
 *  cpu-time:     0 d,  0 h,  0 min,  0.209 sec
 * ratio c/w:     0.923 speedup
 SCF:
 * wall-time:     0 d,  0 h,  0 min,  0.207 sec
 *  cpu-time:     0 d,  0 h,  0 min,  0.190 sec
 * ratio c/w:     0.922 speedup


