66
 energy: -102.675540815551 gnorm: 0.000995588437 xtb: 6.7.1 (edcfbbe)
C           -6.50820218992479       -0.57756754124774       -2.06256263766038
C           -5.23168076427339       -0.09054575161493       -2.73433574462417
C           -4.98010305619628        1.39690898699326       -2.44089272587640
C           -4.63744074627435        1.61455054204623       -1.01197467224419
N           -5.47586469689536        1.92617735468627       -0.04543852555914
C           -4.77528513221289        1.98391961937011        1.10902390566478
C           -5.40382603125224        2.32289579643670        2.40768366178770
C           -3.44542349569619        1.69387496809927        0.85198597870148
N           -3.39291073085228        1.45806797859481       -0.51194812894718
N           -2.20919894128951        1.16250344147386       -1.12709322179641
C           -1.08645703859798        1.11087697216903       -0.36059722119785
C            0.19982435954941        0.84550742156129       -1.02857765655658
C            0.34186762491564        0.23655667954232       -2.29257523065675
C            1.62115272873205       -0.00101685191711       -2.79441080241330
C            2.74260319240088        0.36857882617681       -2.07493194880789
C            2.59843041095407        0.98716279823289       -0.84905895497035
S            4.06297749064376        1.44424267629319        0.08933669167999
O            5.19187312742929        1.33438204375148       -0.78884020863192
N            4.22245785083752        0.27349773048069        1.24760057128402
C            3.25090274441656        0.25987181684009        2.31593803722601
C            3.81975803590173       -0.55561485433073        3.47618751845991
N            4.11396187080746       -1.89599322541384        3.00471340662905
C            5.11571828441494       -1.85007267689753        1.95810324817267
C            4.55838288904524       -1.04900578142470        0.78183227193972
C            4.37789270507157       -2.86129994998792        4.05285328460814
C            5.62511768281291       -2.62013760627975        4.91007766961485
O            3.81612579280472        2.68678403663305        0.75263420572695
C            1.34573183865479        1.21838574787698       -0.32797920950810
O           -0.79056953807823       -0.09800984518375       -2.97044990996190
C           -0.69360321639137       -0.75894566918404       -4.22621762776965
C           -2.10761125479691       -1.02531157059462       -4.71670539507856
N           -1.07321504469971        1.30171997472913        0.90895778890661
C           -2.22938748548403        1.57347132821095        1.64306996620913
O           -2.18820302184241        1.68963706925948        2.84747599545009
H           -7.37276363202612       -0.06775788212910       -2.48026010059556
H           -6.63360330964466       -1.64782031385090       -2.20811785775073
H           -6.47694181648149       -0.36836375231876       -0.99654464310641
H           -5.30756641506454       -0.23237570087191       -3.81473519377277
H           -4.38361751112337       -0.68111435524378       -2.37679416978683
H           -5.88465617809154        1.96359632995439       -2.66078754569778
H           -4.17168433603181        1.77454214457656       -3.07451335346483
H           -5.07098278146075        3.30551727136724        2.73865406624914
H           -5.10497680208586        1.60305034660397        3.16625179250088
H           -6.48408797855607        2.32816273141469        2.29724787791245
H           -2.21592321887740        0.90058729253480       -2.10401681648756
H            1.75161871052585       -0.47189239674901       -3.75482533583629
H            3.73523871452125        0.20135601735832       -2.46119899100660
H            3.07586090647282        1.29362168737218        2.61186421082521
H            2.30726904530983       -0.19601360312562        1.98313777497718
H            4.71746175661060       -0.04160758925804        3.85625824940277
H            3.07772285602642       -0.61726938679064        4.27423062925415
H            5.33717025919818       -2.86980245532535        1.63551632758541
H            6.04905340447390       -1.36777914813805        2.29155035958805
H            5.30363210472916       -0.93699391864349       -0.00582605039868
H            3.66924891365160       -1.56094270162135        0.38236920039672
H            3.49620123111645       -2.87759243442386        4.69990509727063
H            4.45790664402041       -3.84104427789890        3.57202219768342
H            5.71047438652367       -3.40753478408249        5.65433122149714
H            5.56077261677790       -1.66612009260848        5.42680662129568
H            6.52386887712707       -2.62806179485117        4.29848008029087
H            1.22487369721261        1.70652750429937        0.62487336584151
H           -0.14968210009959       -1.70338038339621       -4.10775858674737
H           -0.15795959184685       -0.12172157879607       -4.94054477393625
H           -2.64822418779182       -0.09094354190241       -4.84347048783567
H           -2.64214361323081       -1.64782575976636       -4.00454895242327
H           -2.06945689652148       -1.53895595907299       -5.67244059351902
