50
 energy: -70.102968145316 gnorm: 0.000411676837 xtb: 6.7.1 (edcfbbe)
O           -0.97004473938181       -0.14493236064458       -2.12512615901129
C           -0.32675374758803       -0.76010358603490       -1.03393650988489
C            0.29966618845657        0.31567544965861       -0.11714976854228
N            1.01546409359309        1.29861563256271       -0.93425549306064
C            1.24769373178939        2.48586320911695       -0.12216635536907
C            1.94461279721033        2.11062873988062        1.20286610204304
C            2.30018963147062        0.77672334872602       -1.38494459673885
C            3.28488741638542        0.57888315850932       -0.20985103357515
C            4.08725950653211       -0.71536951238398       -0.36499478853464
C            5.22555766313410       -0.84091131450512        0.64112438946069
C            2.44295896058091        0.66536083901482        1.07365829441973
C            1.22427332134014       -0.25811069848353        0.96799616029807
C           -1.26437453419416       -1.61879906777688       -0.22081116010558
C           -0.85148405693906       -2.87239831199666        0.16487357186415
C           -1.65841372899100       -3.64417727316174        1.01260413696538
N           -2.80555356462557       -3.24090666919015        1.48086485826566
C           -3.25565937876801       -2.02992716577006        1.10613092369241
C           -2.52998877165924       -1.16588865634169        0.23642939389021
C           -3.09721060779366        0.07346005906407       -0.12322663923913
C           -4.32268499723277        0.45156327429582        0.36729812700826
O           -4.95517407059784        1.61931436606881        0.06880301953631
C           -4.34635921547138        2.49115462379656       -0.85229393324056
C           -5.02515441131423       -0.39778922925436        1.25348493071626
C           -4.50697421500714       -1.60532331886549        1.60672521672112
H           -0.43293694809109        0.62964678515826       -2.35132975772502
H            0.47468292942554       -1.41537762099536       -1.41759286223490
H           -0.53037540824773        0.85601786233993        0.35044336393967
H            0.28499527408335        2.96983276320203        0.06204887855190
H            1.86060943799169        3.17266310398315       -0.70969958815954
H            2.78108986487368        2.78167721541090        1.40202584114356
H            1.24968489121909        2.18244592992893        2.04122207537219
H            2.70339811964982        1.48001750295501       -2.11887279787527
H            2.12688596929015       -0.17012357968838       -1.89857070812394
H            4.00097972885623        1.40832196955640       -0.19305343979329
H            3.42726422448907       -1.58021034571931       -0.27290645804786
H            4.50804238633242       -0.73127306717028       -1.37404911674254
H            5.80223152902628       -1.74168065228370        0.44448827888464
H            4.84692767621096       -0.89870712326091        1.65832461933088
H            5.89324695439853        0.01501499443735        0.57057077353028
H            3.04163769559730        0.39831755407407        1.94681139647441
H            1.53980156767784       -1.27008122821429        0.71244324969049
H            0.70269755764821       -0.31050919604197        1.92463977634402
H            0.09426828982166       -3.27049101807403       -0.17307209708073
H           -1.33670545681196       -4.62978414202668        1.32464402818003
H           -2.56367352962599        0.69050812513153       -0.82470187842322
H           -4.19475760335267        2.00705525276951       -1.82198901158447
H           -5.03445620275793        3.32726793390861       -0.96740745383218
H           -3.38582430183238        2.86209344070283       -0.47957065907812
H           -5.98171109151871       -0.06088739424872        1.62154125962562
H           -5.03513682527762       -2.27436060211203        2.26740960005194
