31
 energy: -58.964928481552 gnorm: 0.000518539080 xtb: 6.7.1 (edcfbbe)
N           -4.92129764044076       -0.49362185292927       -0.03435831113452
C           -3.59472855152185       -0.66856704225834       -0.00985135793725
N           -3.10280630363776       -1.86917266445870       -0.33255289713324
C           -1.79864831111307       -2.05026083588220       -0.29464222987987
Cl          -1.26609972947116       -3.61323571807558       -0.72846586268019
N           -0.84672478196180       -1.20156731125322        0.02822727314604
C           -1.32252050220132        0.00962742209547        0.33547435133855
C           -2.68710045414839        0.34701221470672        0.34185345391364
N           -2.83294587584922        1.66100090811545        0.70508906406547
C           -1.62514758151911        2.08572123129530        0.90046709283772
N           -0.65314155462607        1.13790894335074        0.70979589282401
C            0.77374544253640        1.36517762220223        0.77630019635602
C            1.52831609940261        0.20735116601614        1.44204213241575
C            2.79735099258425        0.08567241928438        0.60043338463288
C            2.32696835150739        0.59020387845058       -0.77501794528900
O            1.30035214248123        1.53456278184102       -0.51849524045701
C            1.83055740393095       -0.55896297080947       -1.65944042524008
O            2.94108749508804       -1.38020696101541       -1.95521942068830
O            3.78898629145862        0.90381923437151        1.17358444318004
H           -5.30189342827990        0.40981282771050        0.18181582094888
H           -5.51053304841055       -1.25769829452060       -0.31365638128907
H           -1.38263087504215        3.08759768946520        1.19540586552658
H            0.90540654234400        2.31111619765004        1.32207510111660
H            0.94061123132995       -0.70539302782103        1.37508227270585
H            1.77353939394325        0.42460611043956        2.47817243712358
H            3.15022182029857       -0.94951566648149        0.52623035537177
H            3.12967226524366        1.11822861486514       -1.30236103360217
H            1.05021637899608       -1.11763519770275       -1.12909156776983
H            1.40082372160271       -0.13266214074577       -2.57606325708994
H            2.62931705716901       -2.15013684790051       -2.44203257138359
H            4.57914600830465        0.86951726999536        0.62389936406720
