57
 energy: -90.580399730369 gnorm: 0.000294916921 xtb: 6.7.1 (edcfbbe)
C            3.29867495930746        1.07414472215778       -1.65638014599558
N            3.38949347374725        0.33336188632129       -0.41544492765669
C            4.34002309921179        0.69097589778381        0.47575205898504
N            5.24434574788949        1.57181732255912        0.11620124773894
C            6.19428119886403        1.89836592264457        1.01035911593159
C            6.29592716330777        1.37650296651829        2.26068648278200
C            5.32388600640980        0.42193302731308        2.70119862623277
N            4.35307937508844        0.13946557757904        1.72041633254415
O            5.24021580664749       -0.13749575971985        3.77674719031041
C            2.37762648366345       -0.66974333092140       -0.12737840606801
C            1.92427418428141       -1.41979758862169       -1.38122310346513
C            0.88548355342619       -2.47136932998123       -0.98359320215210
C            1.14681610063820       -0.05898918040929        0.56054329333916
C            0.13077785920012       -1.15954827802663        0.88546143877014
N           -0.26406828207525       -1.89169833456349       -0.30837256862168
C           -1.16579300844910       -1.27094906979002       -1.15126465149035
N           -0.92903849119313       -0.90884952108950       -2.38237859143576
C           -2.12144006126853       -0.43095622987552       -2.86664828129948
C           -3.10576234106722       -0.51881863500540       -1.85684726031455
N           -2.47031451674262       -1.07073360225588       -0.76497159954626
C           -3.09662336126327       -1.48186481773162        0.45843374594128
C           -3.19668295434156       -0.39002505654413        1.50165067795590
C           -3.07622865210502        0.95195124390782        1.16400293591776
C           -3.19478726411520        1.93579495856122        2.13000482089716
C           -3.44100503146451        1.56018330993429        3.43710862456660
F           -3.56198460481668        2.51275937912699        4.38232209249499
C           -3.56713164663414        0.23118575768097        3.80177732591259
C           -3.44159155922917       -0.73891121950190        2.82574036898781
C           -4.40629394421586       -0.09461159300858       -2.06378583376594
C           -4.70755194793479        0.41696102342520       -3.31219611957533
C           -3.74314345930693        0.50824906667873       -4.31514668225752
C           -2.44305913443278        0.09035425706234       -4.11265487609799
H            2.28455308751832        1.44699724180839       -1.80053630599016
H            3.57652986983260        0.44804116904073       -2.50476029423665
H            3.99115635549174        1.90914847039409       -1.59243152079472
H            6.90367498594825        2.63000242043894        0.64643364303693
H            7.07682937468835        1.66055066301292        2.94439732080558
H            3.64258230507695       -0.51440069772913        2.02095894340769
H            2.82244851799719       -1.41897943287295        0.54154990766678
H            2.77453937362581       -1.90628217799657       -1.85938800133289
H            1.44683470747431       -0.74799761753137       -2.09258883910241
H            1.32371084180413       -3.20551621938820       -0.29970441104371
H            0.52496450540271       -2.98539072865023       -1.87449078293182
H            1.43331280792778        0.46122483593537        1.47640147554272
H            0.68294199806992        0.66568057598389       -0.11174310173552
H            0.57107225458795       -1.88148047234662        1.58128559386298
H           -0.74798983919604       -0.71842864265721        1.35683039266493
H           -4.10913629352276       -1.82998724416322        0.21727946250444
H           -2.53516969549191       -2.33212119442096        0.85986065490392
H           -2.88892477957015        1.23780669371357        0.13989357729097
H           -3.10311485429436        2.98032092490156        1.87860523238432
H           -3.75875224151974       -0.02765005469461        4.83077800841691
H           -3.53592018330416       -1.78086333678360        3.09357641599452
H           -5.15408582430280       -0.15494407530241       -1.28656525098853
H           -5.71258584265960        0.75553942701099       -3.51507045214506
H           -4.02528922321583        0.91764753060194       -5.27381142626962
H           -1.69628695934738        0.16123716957103       -4.88698037137995
