49
 energy: -69.209110739526 gnorm: 0.000502155236 xtb: 6.7.1 (edcfbbe)
C            0.46292498542150        1.73078021551319        2.30426145137210
C            0.85190457923273        1.10863523643239        0.96730993062992
N            2.18665721706681        0.56425579268898        1.09719865161264
C            3.00554849151093        0.22289229677640        0.06871528545829
C            2.73393417954436        0.55601638168468       -1.25199100554086
C            3.62981931797162        0.19141662395628       -2.25459998145145
N            4.74191636935760       -0.46674841048009       -2.05785453286290
C            5.05387414483060       -0.79855262755671       -0.79081125187084
C            4.23164284785932       -0.47575501546770        0.32556367371578
C            4.67245848260703       -0.85695986782224        1.60693677341360
C            5.85014089335394       -1.52985125628838        1.78868622054373
C            6.64134705593234       -1.85226448777391        0.67788734005896
Cl           8.12151096857460       -2.70865824595604        0.93487416178606
C            6.26166697701987       -1.49796260552304       -0.58547525399463
C           -0.13948079345379        0.01952665388981        0.52228659315044
C           -1.52694428152222        0.56571531492513        0.19565537569938
C           -2.39129642501058       -0.50256088469771       -0.47508113494428
N           -3.78186634165412       -0.09753428473960       -0.56964262563454
C           -4.69168086948031       -1.22870266584368       -0.69263320466074
C           -4.92754910353047       -1.91363906681190        0.65101465543795
C           -4.01130200528816        0.97441229021693       -1.53214314820369
C           -4.35955747616095        2.26715201877242       -0.77621077425841
O           -5.36484543643019        2.03107257374918        0.17339627721740
H           -0.47734292581234        2.26578378780554        2.21598446347171
H            1.22868368180411        2.43379859581831        2.62398904015478
H            0.35357697049146        0.96142286294506        3.06639909244773
H            0.88152589771292        1.89906124343346        0.20899625036243
H            2.37547527013626        0.13089083845550        1.98654534627760
H            1.83737416182881        1.08953150843937       -1.52072938629257
H            3.41395909240830        0.44747073390612       -3.28461680171861
H            4.08854653175380       -0.61226406081904        2.48297037104883
H            6.17821521395877       -1.81368570127864        2.77616540062618
H            6.86177963042874       -1.73219039310301       -1.44935749401201
H           -0.21597727751635       -0.73544506649050        1.30855194982080
H            0.26865001137038       -0.47051109538088       -0.36537721153191
H           -1.42724549195119        1.42944391782212       -0.46393980057193
H           -2.02950807294527        0.88939180372089        1.10715197265820
H           -1.97198101114093       -0.74590855020121       -1.46795652352529
H           -2.34605897730127       -1.40828757104011        0.13192837867030
H           -5.65206443906518       -0.85292701624335       -1.05117957836850
H           -4.32268112952915       -1.96692378509496       -1.42430865480450
H           -5.27832974944329       -1.19246427570339        1.38455847396357
H           -5.68216613300507       -2.68734560186792        0.53624510849195
H           -4.02158052913044       -2.37759439230313        1.03101188317904
H           -3.13354612474067        1.14226293441446       -2.16581586573832
H           -4.85004403775092        0.72111905416709       -2.18654867627116
H           -4.73929758375850        3.02434989373449       -1.46580664728151
H           -3.46245163611507        2.66464902551131       -0.27948971378455
H           -5.12793512043915        1.19398532971102        0.59938514605626
