----- Optimization -----
      -----------------------------------------------------------      
     |                   =====================                   |     
     |                           x T B                           |     
     |                   =====================                   |     
     |                         S. Grimme                         |     
     |          Mulliken Center for Theoretical Chemistry        |     
     |                    University of Bonn                     |     
      -----------------------------------------------------------      

   * xtb version 6.7.1 (edcfbbe) compiled by 'conda@3ef47c1a292c' on 2024-11-25

   xtb is free software: you can redistribute it and/or modify it under
   the terms of the GNU Lesser General Public License as published by
   the Free Software Foundation, either version 3 of the License, or
   (at your option) any later version.
   
   xtb is distributed in the hope that it will be useful,
   but WITHOUT ANY WARRANTY; without even the implied warranty of
   MERCHANTABILITY or FITNESS FOR A PARTICULAR PURPOSE.  See the
   GNU Lesser General Public License for more details.
   
   Cite this work as:
   * C. Bannwarth, E. Caldeweyher, S. Ehlert, A. Hansen, P. Pracht,
     J. Seibert, S. Spicher, S. Grimme, WIREs Comput. Mol. Sci., 2020, 11,
     e01493. DOI: 10.1002/wcms.1493
   
   for GFN2-xTB:
   * C. Bannwarth, S. Ehlert and S. Grimme., J. Chem. Theory Comput., 2019,
     15, 1652-1671. DOI: 10.1021/acs.jctc.8b01176
   for GFN1-xTB:
   * S. Grimme, C. Bannwarth, P. Shushkov, J. Chem. Theory Comput., 2017,
     13, 1989-2009. DOI: 10.1021/acs.jctc.7b00118
   for GFN0-xTB:
   * P. Pracht, E. Caldeweyher, S. Ehlert, S. Grimme, ChemRxiv, 2019, preprint.
     DOI: 10.26434/chemrxiv.8326202.v1
   for GFN-FF:
   * S. Spicher and S. Grimme, Angew. Chem. Int. Ed., 2020, 59, 15665-15673.
     DOI: 10.1002/anie.202004239
   
   for ALPB and GBSA implicit solvation:
   * S. Ehlert, M. Stahn, S. Spicher, S. Grimme, J. Chem. Theory Comput.,
     2021, 17, 4250-4261. DOI: 10.1021/acs.jctc.1c00471
   
   for ddCOSMO and CPCM-X implicit solvation:
   * M. Stahn, S. Ehlert, S. Grimme, J. Phys. Chem. A,
     2023, XX, XXXX-XXXX. DOI: 10.1021/acs.jpca.3c04382
   
   for DFT-D4:
   * E. Caldeweyher, C. Bannwarth and S. Grimme, J. Chem. Phys., 2017,
     147, 034112. DOI: 10.1063/1.4993215
   * E. Caldeweyher, S. Ehlert, A. Hansen, H. Neugebauer, S. Spicher,
     C. Bannwarth and S. Grimme, J. Chem. Phys., 2019, 150, 154122.
     DOI: 10.1063/1.5090222
   * E. Caldeweyher, J.-M. Mewes, S. Ehlert and S. Grimme, Phys. Chem. Chem. Phys.
     2020, 22, 8499-8512. DOI: 10.1039/D0CP00502A
   
   for sTDA-xTB:
   * S. Grimme and C. Bannwarth, J. Chem. Phys., 2016, 145, 054103.
     DOI: 10.1063/1.4959605
   
   in the mass-spec context:
   * V. Asgeirsson, C. Bauer and S. Grimme, Chem. Sci., 2017, 8, 4879.
     DOI: 10.1039/c7sc00601b
   * J. Koopman and S. Grimme, ACS Omega 2019, 4, 12, 15120-15133.
     DOI: 10.1021/acsomega.9b02011
   
   for metadynamics refer to:
   * S. Grimme, J. Chem. Theory Comput., 2019, 155, 2847-2862
     DOI: 10.1021/acs.jctc.9b00143
   
   for SPH calculations refer to:
   * S. Spicher and S. Grimme, J. Chem. Theory Comput., 2021, 17, 1701-1714
     DOI: 10.1021/acs.jctc.0c01306
   
   for ONIOM refer to:
   * C. Plett, A. Katbashev, S. Ehlert, S. Grimme, M. Bursch,
     Phys. Chem. Chem. Phys., 2023, 25, 17860-17868. DOI: 10.1039/D3CP02178E
   
   for DIPRO refer to:
   * J. Kohn, N. Gildemeister, S. Grimme, D. Fazzi, A. Hansen,
     J. Chem. Phys., 2023, just accepted.
   
   for PTB refer to:
   * S. Grimme, M. Mueller, A. Hansen, J. Chem. Phys., 2023, 158, 124111.
     DOI: 10.1063/5.0137838
   
   with help from (in alphabetical order)
   P. Atkinson, C. Bannwarth, F. Bohle, G. Brandenburg, E. Caldeweyher
   M. Checinski, S. Dohm, S. Ehlert, S. Ehrlich, I. Gerasimov, C. Hölzer
   A. Katbashev, J. Kohn, J. Koopman, C. Lavigne, S. Lehtola, F. März, M. Müller,
   F. Musil, H. Neugebauer, J. Pisarek, C. Plett, P. Pracht, F. Pultar,
   J. Seibert, P. Shushkov, S. Spicher, M. Stahn, M. Steiner, T. Strunk,
   J. Stückrath, T. Rose, and J. Unsleber
   
 * started run on 2025/05/15 at 16:12:30.188     
   ID    Z sym.   atoms
    1    6 C      1, 2, 4-6, 8-12, 14-17, 19-22
    2    7 N      3, 7, 18
    3   17 Cl     13
    4    8 O      23
    5    1 H      24-49

           -------------------------------------------------
          |                Calculation Setup                |
           -------------------------------------------------

          program call               : xtb /rds/general/user/hgt20/home/callum/QDESCP/Hydroxychloroquine_rdkit_conf_12/Hydroxychloroquine_rdkit_conf_12.xyz --opt normal --acc 1 --gfn 2 --chrg 0 --uhf 0 -P 1
          hostname                   : login-c
          coordinate file            : /rds/general/user/hgt20/home/callum/QDESCP/Hydroxychloroquine_rdkit_conf_12/Hydroxychloroquine_rdkit_conf_12.xyz
          omp threads                :                     1


           -------------------------------------------------
          |                 G F N 2 - x T B                 |
           -------------------------------------------------

        Reference                      10.1021/acs.jctc.8b01176
      * Hamiltonian:
        H0-scaling (s, p, d)           1.850000    2.230000    2.230000
        zeta-weighting                 0.500000
      * Dispersion:
        s8                             2.700000
        a1                             0.520000
        a2                             5.000000
        s9                             5.000000
      * Repulsion:
        kExp                           1.500000    1.000000
        rExp                           1.000000
      * Coulomb:
        alpha                          2.000000
        third order                    shell-resolved
        anisotropic                    true
        a3                             3.000000
        a5                             4.000000
        cn-shift                       1.200000
        cn-exp                         4.000000
        max-rad                        5.000000


          ...................................................
          :                      SETUP                      :
          :.................................................:
          :  # basis functions                 124          :
          :  # atomic orbitals                 123          :
          :  # shells                           73          :
          :  # electrons                       126          :
          :  max. iterations                   250          :
          :  Hamiltonian                  GFN2-xTB          :
          :  restarted?                      false          :
          :  GBSA solvation                  false          :
          :  PC potential                    false          :
          :  electronic temp.          300.0000000     K    :
          :  accuracy                    1.0000000          :
          :  -> integral cutoff          0.2500000E+02      :
          :  -> integral neglect         0.1000000E-07      :
          :  -> SCF convergence          0.1000000E-05 Eh   :
          :  -> wf. convergence          0.1000000E-03 e    :
          :  Broyden damping             0.4000000          :
          :  net charge                          0          :
          :  unpaired electrons                  0          :
          ...................................................

 iter      E             dE          RMSdq      gap      omega  full diag
   1    -70.0017723 -0.700018E+02  0.349E+00    2.40       0.0  T
   2    -70.0822154 -0.804431E-01  0.215E+00    2.33       1.0  T
   3    -70.0683682  0.138472E-01  0.117E+00    2.71       1.0  T
   4    -70.0965905 -0.282223E-01  0.398E-01    2.29       1.0  T
   5    -70.1015461 -0.495561E-02  0.122E-01    2.37       1.0  T
   6    -70.1020385 -0.492392E-03  0.555E-02    2.36       1.0  T
   7    -70.1020966 -0.580372E-04  0.276E-02    2.36       1.0  T
   8    -70.1021047 -0.814501E-05  0.123E-02    2.36       1.2  T
   9    -70.1021072 -0.251948E-05  0.737E-03    2.37       1.9  T
  10    -70.1021078 -0.543530E-06  0.536E-03    2.37       2.7  T
  11    -70.1021082 -0.454698E-06  0.305E-03    2.37       4.7  T
  12    -70.1021084 -0.172200E-06  0.164E-03    2.37       8.7  T
  13    -70.1021084 -0.515784E-07  0.794E-04    2.37      18.0  T
  14    -70.1021085 -0.118937E-07  0.432E-04    2.37      33.1  T

   *** convergence criteria satisfied after 14 iterations ***

         #    Occupation            Energy/Eh            Energy/eV
      -------------------------------------------------------------
         1        2.0000           -1.0530348             -28.6545
       ...           ...                  ...                  ...
        57        2.0000           -0.4149080             -11.2902
        58        2.0000           -0.4128952             -11.2355
        59        2.0000           -0.4068547             -11.0711
        60        2.0000           -0.3962240             -10.7818
        61        2.0000           -0.3734443             -10.1619
        62        2.0000           -0.3705490             -10.0832
        63        2.0000           -0.3631033              -9.8805 (HOMO)
        64                         -0.2761658              -7.5149 (LUMO)
        65                         -0.2376493              -6.4668
        66                         -0.2053080              -5.5867
        67                         -0.1610496              -4.3824
        68                         -0.1324008              -3.6028
       ...                                ...                  ...
       123                          0.6610371              17.9877
      -------------------------------------------------------------
                  HL-Gap            0.0869375 Eh            2.3657 eV
             Fermi-level           -0.3196345 Eh           -8.6977 eV

 SCC (total)                   0 d,  0 h,  0 min,  0.108 sec
 SCC setup                      ...        0 min,  0.000 sec (  0.388%)
 Dispersion                     ...        0 min,  0.001 sec (  0.534%)
 classical contributions        ...        0 min,  0.000 sec (  0.176%)
 integral evaluation            ...        0 min,  0.008 sec (  7.853%)
 iterations                     ...        0 min,  0.037 sec ( 34.390%)
 molecular gradient             ...        0 min,  0.061 sec ( 56.452%)
 printout                       ...        0 min,  0.000 sec (  0.200%)

         :::::::::::::::::::::::::::::::::::::::::::::::::::::
         ::                     SUMMARY                     ::
         :::::::::::::::::::::::::::::::::::::::::::::::::::::
         :: total energy             -69.198341908415 Eh    ::
         :: gradient norm              0.090669925327 Eh/a0 ::
         :: HOMO-LUMO gap              2.365690853265 eV    ::
         ::.................................................::
         :: SCC energy               -70.101967869271 Eh    ::
         :: -> isotropic ES            0.054039836421 Eh    ::
         :: -> anisotropic ES          0.009465310168 Eh    ::
         :: -> anisotropic XC          0.039868722893 Eh    ::
         :: -> dispersion             -0.047938924946 Eh    ::
         :: repulsion energy           0.903625960856 Eh    ::
         :: add. restraining           0.000000000000 Eh    ::
         :: total charge              -0.000000000000 e     ::
         :::::::::::::::::::::::::::::::::::::::::::::::::::::

      ----------------------------------------------------------- 
     |                   =====================                   |
     |                        A N C O P T                        |
     |                   =====================                   |
     |               Approximate Normal Coordinate               |
     |                Rational Function Optimizer                |
      ----------------------------------------------------------- 
      ----------------------------------------------------------- 
     |                   =====================                   |
     |                        A N C O P T                        |
     |                   =====================                   |
     |               Approximate Normal Coordinate               |
     |                Rational Function Optimizer                |
      ----------------------------------------------------------- 

          ...................................................
          :                      SETUP                      :
          :.................................................:
          :   optimization level            normal          :
          :   max. optcycles                   200          :
          :   ANC micro-cycles                  20          :
          :   degrees of freedom               141          :
          :.................................................:
          :   RF solver                   davidson          :
          :   write xtbopt.log                true          :
          :   linear?                        false          :
          :   energy convergence         0.5000000E-05 Eh   :
          :   grad. convergence          0.1000000E-02 Eh/α :
          :   maxmium RF displ.          1.0000000          :
          :   Hlow (freq-cutoff)         0.1000000E-01      :
          :   Hmax (freq-cutoff)         5.0000000          :
          :   S6 in model hess.         20.0000000          :
          ...................................................

generating ANC from exact Hessian ...
Using Lindh-Hessian (1995)
 Shifting diagonal of input Hessian by    9.8458431012733109E-003
 Lowest  eigenvalues of input Hessian
    0.000000    0.000000    0.000000    0.000000    0.000000    0.000000
    0.010000    0.010037    0.010144    0.010670    0.010959    0.011591
    0.012187    0.012574    0.012769    0.014008    0.014262    0.014506
 Highest eigenvalues
    1.823620    1.833273    1.882804    1.980603    2.086605    2.160859


........................................................................
.............................. CYCLE    1 ..............................
........................................................................

 iter      E             dE          RMSdq      gap      omega  full diag
   1    -70.1021085 -0.701021E+02  0.285E-04    2.37       0.0  T
   2    -70.1021085 -0.669189E-09  0.233E-04    2.37      61.3  T
   3    -70.1021085 -0.315765E-09  0.198E-04    2.37      72.2  T
     SCC iter.                  ...        0 min,  0.008 sec
     gradient                   ...        0 min,  0.028 sec
 * total energy  :   -69.1983419 Eh     change       -0.2945981E-08 Eh
   gradient norm :     0.0906703 Eh/α   predicted     0.0000000E+00 (-100.00%)
   displ. norm   :     0.2484715 α      lambda       -0.1027132E-01
   maximum displ.:     0.0731296 α      in ANC's #29, #31, #45, ...

........................................................................
.............................. CYCLE    2 ..............................
........................................................................

 iter      E             dE          RMSdq      gap      omega  full diag
   1    -70.1331401 -0.701331E+02  0.148E-01    2.48       0.0  T
   2    -70.1332514 -0.111368E-03  0.923E-02    2.48       1.0  T
   3    -70.1332497  0.175501E-05  0.510E-02    2.50       1.0  T
   4    -70.1332905 -0.407854E-04  0.129E-02    2.48       1.1  T
   5    -70.1332972 -0.673766E-05  0.411E-03    2.49       3.5  T
   6    -70.1332977 -0.481499E-06  0.169E-03    2.49       8.4  T
   7    -70.1332977 -0.260118E-07  0.577E-04    2.49      24.8  T
   8    -70.1332977 -0.413417E-08  0.316E-04    2.49      45.3  T
     SCC iter.                  ...        0 min,  0.061 sec
     gradient                   ...        0 min,  0.028 sec
 * total energy  :   -69.2053621 Eh     change       -0.7020239E-02 Eh
   gradient norm :     0.0377071 Eh/α   predicted    -0.5454472E-02 ( -22.30%)
   displ. norm   :     0.2285999 α      lambda       -0.3067929E-02
   maximum displ.:     0.0820313 α      in ANC's #9, #10, #23, ...

........................................................................
.............................. CYCLE    3 ..............................
........................................................................

 iter      E             dE          RMSdq      gap      omega  full diag
   1    -70.1498442 -0.701498E+02  0.980E-02    2.57       0.0  T
   2    -70.1499317 -0.874503E-04  0.609E-02    2.56       1.0  T
   3    -70.1499589 -0.271671E-04  0.355E-02    2.58       1.0  T
   4    -70.1499695 -0.105980E-04  0.102E-02    2.57       1.4  T
   5    -70.1499734 -0.392065E-05  0.343E-03    2.57       4.2  T
   6    -70.1499737 -0.315550E-06  0.140E-03    2.57      10.2  T
   7    -70.1499737 -0.169816E-07  0.423E-04    2.57      33.8  T
   8    -70.1499737 -0.315855E-08  0.200E-04    2.57      71.5  T
     SCC iter.                  ...        0 min,  0.020 sec
     gradient                   ...        0 min,  0.053 sec
 * total energy  :   -69.2071605 Eh     change       -0.1798317E-02 Eh
   gradient norm :     0.0115502 Eh/α   predicted    -0.1614766E-02 ( -10.21%)
   displ. norm   :     0.1665181 α      lambda       -0.5849052E-03
   maximum displ.:     0.0739964 α      in ANC's #9, #10, #7, ...

........................................................................
.............................. CYCLE    4 ..............................
........................................................................

 iter      E             dE          RMSdq      gap      omega  full diag
   1    -70.1513731 -0.701514E+02  0.466E-02    2.59       0.0  T
   2    -70.1513880 -0.148593E-04  0.281E-02    2.58       1.0  T
   3    -70.1513902 -0.221499E-05  0.166E-02    2.59       1.0  T
   4    -70.1513952 -0.496668E-05  0.433E-03    2.58       3.3  T
   5    -70.1513958 -0.684648E-06  0.160E-03    2.58       8.9  T
   6    -70.1513959 -0.418809E-07  0.811E-04    2.58      17.6  T
   7    -70.1513959 -0.750225E-08  0.304E-04    2.58      47.0  T
     SCC iter.                  ...        0 min,  0.018 sec
     gradient                   ...        0 min,  0.061 sec
 * total energy  :   -69.2076171 Eh     change       -0.4566511E-03 Eh
   gradient norm :     0.0109041 Eh/α   predicted    -0.3005668E-03 ( -34.18%)
   displ. norm   :     0.2869159 α      lambda       -0.6863679E-03
   maximum displ.:     0.1278890 α      in ANC's #10, #9, #7, ...

........................................................................
.............................. CYCLE    5 ..............................
........................................................................

 iter      E             dE          RMSdq      gap      omega  full diag
   1    -70.1506462 -0.701506E+02  0.690E-02    2.60       0.0  T
   2    -70.1506704 -0.242324E-04  0.414E-02    2.58       1.0  T
   3    -70.1506669  0.356529E-05  0.238E-02    2.59       1.0  T
   4    -70.1506814 -0.144921E-04  0.579E-03    2.59       2.5  T
   5    -70.1506826 -0.127752E-05  0.225E-03    2.59       6.3  T
   6    -70.1506827 -0.592941E-07  0.117E-03    2.59      12.2  T
   7    -70.1506827 -0.195887E-07  0.410E-04    2.59      34.8  T
   8    -70.1506827 -0.160379E-08  0.305E-04    2.59      46.9  T
     SCC iter.                  ...        0 min,  0.021 sec
     gradient                   ...        0 min,  0.073 sec
 * total energy  :   -69.2080725 Eh     change       -0.4554263E-03 Eh
   gradient norm :     0.0093242 Eh/α   predicted    -0.3714381E-03 ( -18.44%)
   displ. norm   :     0.2126797 α      lambda       -0.2836968E-03
   maximum displ.:     0.1008201 α      in ANC's #7, #10, #9, ...

........................................................................
.............................. CYCLE    6 ..............................
........................................................................

 iter      E             dE          RMSdq      gap      omega  full diag
   1    -70.1506822 -0.701507E+02  0.423E-02    2.59       0.0  T
   2    -70.1506870 -0.476822E-05  0.251E-02    2.58       1.0  T
   3    -70.1506828  0.418080E-05  0.126E-02    2.59       1.1  T
   4    -70.1506889 -0.608954E-05  0.282E-03    2.58       5.1  T
   5    -70.1506892 -0.286874E-06  0.121E-03    2.58      11.8  T
   6    -70.1506892 -0.118284E-07  0.585E-04    2.58      24.4  T
   7    -70.1506892 -0.663849E-08  0.156E-04    2.58      91.5  T
     SCC iter.                  ...        0 min,  0.018 sec
     gradient                   ...        0 min,  0.067 sec
 * total energy  :   -69.2082884 Eh     change       -0.2158509E-03 Eh
   gradient norm :     0.0069435 Eh/α   predicted    -0.1482764E-03 ( -31.31%)
   displ. norm   :     0.2966574 α      lambda       -0.3065534E-03
   maximum displ.:     0.1531726 α      in ANC's #7, #10, #6, ...

........................................................................
.............................. CYCLE    7 ..............................
........................................................................

 iter      E             dE          RMSdq      gap      omega  full diag
   1    -70.1510871 -0.701511E+02  0.542E-02    2.59       0.0  T
   2    -70.1510912 -0.407237E-05  0.317E-02    2.58       1.0  T
   3    -70.1510856  0.552427E-05  0.125E-02    2.59       1.1  T
   4    -70.1510926 -0.699503E-05  0.288E-03    2.58       5.0  T
   5    -70.1510929 -0.238258E-06  0.139E-03    2.58      10.3  T
   6    -70.1510929 -0.150146E-07  0.590E-04    2.58      24.2  T
   7    -70.1510929 -0.756565E-08  0.201E-04    2.58      71.2  T
     SCC iter.                  ...        0 min,  0.018 sec
     gradient                   ...        0 min,  0.028 sec
 * total energy  :   -69.2085172 Eh     change       -0.2288050E-03 Eh
   gradient norm :     0.0053810 Eh/α   predicted    -0.1667874E-03 ( -27.11%)
   displ. norm   :     0.3061115 α      lambda       -0.2440949E-03
   maximum displ.:     0.1676034 α      in ANC's #7, #6, #10, ...

........................................................................
.............................. CYCLE    8 ..............................
........................................................................

 iter      E             dE          RMSdq      gap      omega  full diag
   1    -70.1519423 -0.701519E+02  0.533E-02    2.58       0.0  T
   2    -70.1519443 -0.201572E-05  0.312E-02    2.58       1.0  T
   3    -70.1519426  0.163779E-05  0.734E-03    2.58       1.9  T
   4    -70.1519449 -0.220899E-05  0.233E-03    2.58       6.1  T
   5    -70.1519450 -0.120136E-06  0.115E-03    2.58      12.5  T
   6    -70.1519450 -0.117575E-07  0.471E-04    2.58      30.3  T
   7    -70.1519450 -0.401565E-08  0.276E-04    2.58      51.8  T
     SCC iter.                  ...        0 min,  0.045 sec
     gradient                   ...        0 min,  0.028 sec
 * total energy  :   -69.2086890 Eh     change       -0.1717624E-03 Eh
   gradient norm :     0.0039638 Eh/α   predicted    -0.1334976E-03 ( -22.28%)
   displ. norm   :     0.2344290 α      lambda       -0.1198716E-03
   maximum displ.:     0.1319255 α      in ANC's #7, #6, #10, ...

........................................................................
.............................. CYCLE    9 ..............................
........................................................................

 iter      E             dE          RMSdq      gap      omega  full diag
   1    -70.1526201 -0.701526E+02  0.397E-02    2.58       0.0  T
   2    -70.1526209 -0.807044E-06  0.233E-02    2.58       1.0  T
   3    -70.1526205  0.351139E-06  0.411E-03    2.58       3.5  T
   4    -70.1526211 -0.584146E-06  0.150E-03    2.58       9.5  T
   5    -70.1526211 -0.378777E-07  0.747E-04    2.58      19.1  T
   6    -70.1526211 -0.435348E-08  0.326E-04    2.58      43.8  T
     SCC iter.                  ...        0 min,  0.048 sec
     gradient                   ...        0 min,  0.028 sec
 * total energy  :   -69.2087699 Eh     change       -0.8091179E-04 Eh
   gradient norm :     0.0027660 Eh/α   predicted    -0.6322987E-04 ( -21.85%)
   displ. norm   :     0.1439290 α      lambda       -0.6394607E-04
   maximum displ.:     0.0800013 α      in ANC's #7, #6, #11, ...

........................................................................
.............................. CYCLE   10 ..............................
........................................................................

 iter      E             dE          RMSdq      gap      omega  full diag
   1    -70.1539412 -0.701539E+02  0.246E-02    2.58       0.0  T
   2    -70.1539418 -0.559543E-06  0.144E-02    2.58       1.0  T
   3    -70.1539409  0.846709E-06  0.450E-03    2.58       3.2  T
   4    -70.1539420 -0.102215E-05  0.100E-03    2.58      14.2  T
   5    -70.1539420 -0.358179E-07  0.484E-04    2.58      29.5  T
   6    -70.1539420 -0.206434E-08  0.257E-04    2.58      55.5  T
     SCC iter.                  ...        0 min,  0.016 sec
     gradient                   ...        0 min,  0.058 sec
 * total energy  :   -69.2088053 Eh     change       -0.3545559E-04 Eh
   gradient norm :     0.0046788 Eh/α   predicted    -0.3264681E-04 (  -7.92%)
   displ. norm   :     0.1550285 α      lambda       -0.5392718E-04
   maximum displ.:     0.0827514 α      in ANC's #7, #6, #11, ...

........................................................................
.............................. CYCLE   11 ..............................
........................................................................

 iter      E             dE          RMSdq      gap      omega  full diag
   1    -70.1533984 -0.701534E+02  0.250E-02    2.58       0.0  T
   2    -70.1533986 -0.241040E-06  0.146E-02    2.58       1.0  T
   3    -70.1533985  0.129848E-06  0.240E-03    2.58       6.0  T
   4    -70.1533987 -0.213710E-06  0.710E-04    2.58      20.1  T
   5    -70.1533987 -0.404735E-08  0.424E-04    2.58      33.7  T
     SCC iter.                  ...        0 min,  0.013 sec
     gradient                   ...        0 min,  0.028 sec
 * total energy  :   -69.2088360 Eh     change       -0.3070715E-04 Eh
   gradient norm :     0.0021817 Eh/α   predicted    -0.2761593E-04 ( -10.07%)
   displ. norm   :     0.0803627 α      lambda       -0.3552625E-04
   maximum displ.:     0.0413176 α      in ANC's #4, #11, #6, ...

........................................................................
.............................. CYCLE   12 ..............................
........................................................................

 iter      E             dE          RMSdq      gap      omega  full diag
   1    -70.1534689 -0.701535E+02  0.135E-02    2.58       0.0  T
   2    -70.1534690 -0.101439E-06  0.790E-03    2.58       1.8  T
   3    -70.1534688  0.260421E-06  0.259E-03    2.58       5.5  T
   4    -70.1534691 -0.308067E-06  0.478E-04    2.58      29.9  T
   5    -70.1534691 -0.536342E-08  0.244E-04    2.58      58.5  T
     SCC iter.                  ...        0 min,  0.028 sec
     gradient                   ...        0 min,  0.028 sec
 * total energy  :   -69.2088664 Eh     change       -0.3032970E-04 Eh
   gradient norm :     0.0019492 Eh/α   predicted    -0.1787912E-04 ( -41.05%)
   displ. norm   :     0.2902121 α      lambda       -0.7958581E-04
   maximum displ.:     0.1473140 α      in ANC's #4, #11, #6, ...

........................................................................
.............................. CYCLE   13 ..............................
........................................................................

 iter      E             dE          RMSdq      gap      omega  full diag
   1    -70.1523360 -0.701523E+02  0.492E-02    2.58       0.0  T
   2    -70.1523372 -0.113886E-05  0.289E-02    2.58       1.0  T
   3    -70.1523345  0.263863E-05  0.860E-03    2.58       1.7  T
   4    -70.1523377 -0.316543E-05  0.170E-03    2.58       8.4  T
   5    -70.1523377 -0.496838E-07  0.900E-04    2.58      15.9  T
   6    -70.1523377 -0.107070E-07  0.400E-04    2.58      35.7  T
     SCC iter.                  ...        0 min,  0.015 sec
     gradient                   ...        0 min,  0.043 sec
 * total energy  :   -69.2089268 Eh     change       -0.6041639E-04 Eh
   gradient norm :     0.0033594 Eh/α   predicted    -0.4128472E-04 ( -31.67%)
   displ. norm   :     0.0554462 α      lambda       -0.2315113E-04
   maximum displ.:     0.0276308 α      in ANC's #4, #6, #8, ...

........................................................................
.............................. CYCLE   14 ..............................
........................................................................

 iter      E             dE          RMSdq      gap      omega  full diag
   1    -70.1528514 -0.701529E+02  0.869E-03    2.58       0.0  T
   2    -70.1528515 -0.587001E-07  0.513E-03    2.58       2.8  T
   3    -70.1528515  0.397021E-07  0.120E-03    2.58      11.9  T
   4    -70.1528515 -0.529883E-07  0.319E-04    2.58      44.8  T
   5    -70.1528515 -0.237580E-08  0.177E-04    2.58      80.5  T
     SCC iter.                  ...        0 min,  0.013 sec
     gradient                   ...        0 min,  0.028 sec
 * total energy  :   -69.2089474 Eh     change       -0.2064577E-04 Eh
   gradient norm :     0.0025167 Eh/α   predicted    -0.1161635E-04 ( -43.73%)
   displ. norm   :     0.2512207 α      lambda       -0.8298888E-04
   maximum displ.:     0.1221809 α      in ANC's #6, #4, #8, ...

........................................................................
.............................. CYCLE   15 ..............................
........................................................................

 iter      E             dE          RMSdq      gap      omega  full diag
   1    -70.1532828 -0.701533E+02  0.381E-02    2.58       0.0  T
   2    -70.1532836 -0.778122E-06  0.225E-02    2.58       1.0  T
   3    -70.1532831  0.475504E-06  0.422E-03    2.58       3.4  T
   4    -70.1532838 -0.674953E-06  0.108E-03    2.58      13.3  T
   5    -70.1532838 -0.184446E-07  0.587E-04    2.58      24.3  T
   6    -70.1532838 -0.291098E-08  0.251E-04    2.58      57.0  T
     SCC iter.                  ...        0 min,  0.015 sec
     gradient                   ...        0 min,  0.049 sec
 * total energy  :   -69.2090003 Eh     change       -0.5290033E-04 Eh
   gradient norm :     0.0016783 Eh/α   predicted    -0.4411712E-04 ( -16.60%)
   displ. norm   :     0.2070227 α      lambda       -0.2471081E-04
   maximum displ.:     0.1037831 α      in ANC's #6, #4, #8, ...

........................................................................
.............................. CYCLE   16 ..............................
........................................................................

 iter      E             dE          RMSdq      gap      omega  full diag
   1    -70.1534971 -0.701535E+02  0.288E-02    2.58       0.0  T
   2    -70.1534974 -0.333956E-06  0.171E-02    2.58       1.0  T
   3    -70.1534970  0.391372E-06  0.330E-03    2.58       4.3  T
   4    -70.1534976 -0.506705E-06  0.838E-04    2.58      17.0  T
   5    -70.1534976 -0.105393E-07  0.495E-04    2.58      28.9  T
     SCC iter.                  ...        0 min,  0.013 sec
     gradient                   ...        0 min,  0.028 sec
 * total energy  :   -69.2090245 Eh     change       -0.2414376E-04 Eh
   gradient norm :     0.0026610 Eh/α   predicted    -0.1259289E-04 ( -47.84%)
   displ. norm   :     0.1077393 α      lambda       -0.2357685E-04
   maximum displ.:     0.0605607 α      in ANC's #6, #4, #12, ...

........................................................................
.............................. CYCLE   17 ..............................
........................................................................

 iter      E             dE          RMSdq      gap      omega  full diag
   1    -70.1536257 -0.701536E+02  0.143E-02    2.58       0.0  T
   2    -70.1536258 -0.903182E-07  0.843E-03    2.58       1.7  T
   3    -70.1536258  0.437829E-07  0.123E-03    2.58      11.6  T
   4    -70.1536258 -0.636910E-07  0.415E-04    2.58      34.4  T
   5    -70.1536258 -0.385201E-08  0.232E-04    2.58      61.7  T
     SCC iter.                  ...        0 min,  0.013 sec
     gradient                   ...        0 min,  0.028 sec
 * total energy  :   -69.2090441 Eh     change       -0.1964904E-04 Eh
   gradient norm :     0.0020143 Eh/α   predicted    -0.1192549E-04 ( -39.31%)
   displ. norm   :     0.2057443 α      lambda       -0.3889254E-04
   maximum displ.:     0.1123514 α      in ANC's #6, #12, #4, ...

........................................................................
.............................. CYCLE   18 ..............................
........................................................................

 iter      E             dE          RMSdq      gap      omega  full diag
   1    -70.1535410 -0.701535E+02  0.282E-02    2.57       0.0  T
   2    -70.1535413 -0.260287E-06  0.167E-02    2.58       1.0  T
   3    -70.1535408  0.430252E-06  0.302E-03    2.57       4.7  T
   4    -70.1535414 -0.521310E-06  0.772E-04    2.58      18.5  T
   5    -70.1535414 -0.134337E-07  0.410E-04    2.58      34.8  T
     SCC iter.                  ...        0 min,  0.013 sec
     gradient                   ...        0 min,  0.046 sec
 * total energy  :   -69.2090693 Eh     change       -0.2519924E-04 Eh
   gradient norm :     0.0014371 Eh/α   predicted    -0.2026995E-04 ( -19.56%)
   displ. norm   :     0.1504654 α      lambda       -0.1278744E-04
   maximum displ.:     0.0854385 α      in ANC's #6, #3, #12, ...

........................................................................
.............................. CYCLE   19 ..............................
........................................................................

 iter      E             dE          RMSdq      gap      omega  full diag
   1    -70.1533347 -0.701533E+02  0.206E-02    2.58       0.0  T
   2    -70.1533349 -0.173446E-06  0.121E-02    2.58       1.2  T
   3    -70.1533349  0.411490E-07  0.142E-03    2.58      10.0  T
   4    -70.1533349 -0.678135E-07  0.562E-04    2.58      25.4  T
   5    -70.1533349 -0.864611E-08  0.273E-04    2.58      52.3  T
     SCC iter.                  ...        0 min,  0.013 sec
     gradient                   ...        0 min,  0.028 sec
 * total energy  :   -69.2090801 Eh     change       -0.1074242E-04 Eh
   gradient norm :     0.0013393 Eh/α   predicted    -0.6461708E-05 ( -39.85%)
   displ. norm   :     0.0696144 α      lambda       -0.7837364E-05
   maximum displ.:     0.0313190 α      in ANC's #10, #6, #3, ...

........................................................................
.............................. CYCLE   20 ..............................
........................................................................

 iter      E             dE          RMSdq      gap      omega  full diag
   1    -70.1536738 -0.701537E+02  0.115E-02    2.58       0.0  T
   2    -70.1536738 -0.288941E-07  0.683E-03    2.58       2.1  T
   3    -70.1536738  0.307576E-07  0.981E-04    2.58      14.6  T
   4    -70.1536738 -0.423065E-07  0.268E-04    2.58      53.4  T
     SCC iter.                  ...        0 min,  0.026 sec
     gradient                   ...        0 min,  0.028 sec
 * total energy  :   -69.2090891 Eh     change       -0.9030478E-05 Eh
   gradient norm :     0.0012613 Eh/α   predicted    -0.3929838E-05 ( -56.48%)
   displ. norm   :     0.1777133 α      lambda       -0.1776119E-04
   maximum displ.:     0.0826209 α      in ANC's #6, #3, #10, ...
 * RMSD in coord.:     0.4106018 α      energy gain  -0.1074719E-01 Eh

generating ANC from exact Hessian ...
Using Lindh-Hessian (1995)
 Shifting diagonal of input Hessian by    9.8477538130643926E-003
 Lowest  eigenvalues of input Hessian
    0.000000    0.000000    0.000000    0.000000    0.000000    0.000000
    0.010000    0.010064    0.010175    0.010704    0.010958    0.011779
    0.012421    0.012621    0.012801    0.014243    0.014469    0.015101
 Highest eigenvalues
    1.848917    1.911763    1.957207    2.029083    2.150274    2.196411


........................................................................
.............................. CYCLE   21 ..............................
........................................................................

 iter      E             dE          RMSdq      gap      omega  full diag
   1    -70.1528059 -0.701528E+02  0.259E-02    2.58       0.0  T
   2    -70.1528062 -0.353905E-06  0.152E-02    2.58       1.0  T
   3    -70.1528057  0.474349E-06  0.328E-03    2.58       4.4  T
   4    -70.1528063 -0.576656E-06  0.846E-04    2.58      16.9  T
   5    -70.1528063 -0.192594E-07  0.484E-04    2.58      29.5  T
     SCC iter.                  ...        0 min,  0.013 sec
     gradient                   ...        0 min,  0.043 sec
 * total energy  :   -69.2090990 Eh     change       -0.9889523E-05 Eh
   gradient norm :     0.0019362 Eh/α   predicted     0.0000000E+00 (-100.00%)
   displ. norm   :     0.0220067 α      lambda       -0.1002394E-04
   maximum displ.:     0.0093209 α      in ANC's #8, #4, #3, ...

........................................................................
.............................. CYCLE   22 ..............................
........................................................................

 iter      E             dE          RMSdq      gap      omega  full diag
   1    -70.1537936 -0.701538E+02  0.758E-03    2.58       0.0  T
   2    -70.1537937 -0.103025E-06  0.432E-03    2.58       3.3  T
   3    -70.1537937  0.219931E-07  0.126E-03    2.58      11.3  T
   4    -70.1537937 -0.306899E-07  0.417E-04    2.58      34.3  T
   5    -70.1537937 -0.519221E-08  0.153E-04    2.58      93.4  T
     SCC iter.                  ...        0 min,  0.013 sec
     gradient                   ...        0 min,  0.028 sec
 * total energy  :   -69.2091071 Eh     change       -0.8102643E-05 Eh
   gradient norm :     0.0005468 Eh/α   predicted    -0.5016302E-05 ( -38.09%)
   displ. norm   :     0.0249428 α      lambda       -0.3018677E-05
   maximum displ.:     0.0104983 α      in ANC's #8, #4, #1, ...

........................................................................
.............................. CYCLE   23 ..............................
........................................................................

 iter      E             dE          RMSdq      gap      omega  full diag
   1    -70.1539162 -0.701539E+02  0.553E-03    2.58       0.0  T
   2    -70.1539162 -0.144149E-07  0.325E-03    2.58       4.4  T
   3    -70.1539162  0.264196E-07  0.958E-04    2.58      14.9  T
   4    -70.1539162 -0.325347E-07  0.194E-04    2.58      73.6  T
     SCC iter.                  ...        0 min,  0.026 sec
     gradient                   ...        0 min,  0.028 sec
 * total energy  :   -69.2091107 Eh     change       -0.3652127E-05 Eh
   gradient norm :     0.0005020 Eh/α   predicted    -0.1511604E-05 ( -58.61%)
   displ. norm   :     0.0778707 α      lambda       -0.6614529E-05
   maximum displ.:     0.0321035 α      in ANC's #8, #4, #1, ...

   *** GEOMETRY OPTIMIZATION CONVERGED AFTER 23 ITERATIONS ***

------------------------------------------------------------------------
 total energy gain   :        -0.0107688 Eh       -6.7575 kcal/mol
 total RMSD          :         0.4103613 a0        0.2172 Å
 total power (kW/mol):        -1.2292852 (step)  -16.4716 (real)
------------------------------------------------------------------------

 ANCopt (total)                0 d,  0 h,  0 min,  1.717 sec
 optimizer setup                ...        0 min,  0.000 sec (  0.005%)
 model hessian                  ...        0 min,  0.047 sec (  2.737%)
 ANC generation                 ...        0 min,  0.004 sec (  0.240%)
 coordinate transformation      ...        0 min,  0.000 sec (  0.013%)
 single point calculation       ...        0 min,  1.655 sec ( 96.425%)
 optimization log               ...        0 min,  0.005 sec (  0.287%)
 hessian update                 ...        0 min,  0.000 sec (  0.021%)
 rational function              ...        0 min,  0.002 sec (  0.118%)

================
 final structure:
================
49
 xtb: 6.7.1 (edcfbbe)
C            0.46292498542150        1.73078021551319        2.30426145137210
C            0.85190457923273        1.10863523643239        0.96730993062992
N            2.18665721706681        0.56425579268898        1.09719865161264
C            3.00554849151093        0.22289229677640        0.06871528545829
C            2.73393417954436        0.55601638168468       -1.25199100554086
C            3.62981931797162        0.19141662395628       -2.25459998145145
N            4.74191636935760       -0.46674841048009       -2.05785453286290
C            5.05387414483060       -0.79855262755671       -0.79081125187084
C            4.23164284785932       -0.47575501546770        0.32556367371578
C            4.67245848260703       -0.85695986782224        1.60693677341360
C            5.85014089335394       -1.52985125628838        1.78868622054373
C            6.64134705593234       -1.85226448777391        0.67788734005896
Cl           8.12151096857460       -2.70865824595604        0.93487416178606
C            6.26166697701987       -1.49796260552304       -0.58547525399463
C           -0.13948079345379        0.01952665388981        0.52228659315044
C           -1.52694428152222        0.56571531492513        0.19565537569938
C           -2.39129642501058       -0.50256088469771       -0.47508113494428
N           -3.78186634165412       -0.09753428473960       -0.56964262563454
C           -4.69168086948031       -1.22870266584368       -0.69263320466074
C           -4.92754910353047       -1.91363906681190        0.65101465543795
C           -4.01130200528816        0.97441229021693       -1.53214314820369
C           -4.35955747616095        2.26715201877242       -0.77621077425841
O           -5.36484543643019        2.03107257374918        0.17339627721740
H           -0.47734292581234        2.26578378780554        2.21598446347171
H            1.22868368180411        2.43379859581831        2.62398904015478
H            0.35357697049146        0.96142286294506        3.06639909244773
H            0.88152589771292        1.89906124343346        0.20899625036243
H            2.37547527013626        0.13089083845550        1.98654534627760
H            1.83737416182881        1.08953150843937       -1.52072938629257
H            3.41395909240830        0.44747073390612       -3.28461680171861
H            4.08854653175380       -0.61226406081904        2.48297037104883
H            6.17821521395877       -1.81368570127864        2.77616540062618
H            6.86177963042874       -1.73219039310301       -1.44935749401201
H           -0.21597727751635       -0.73544506649050        1.30855194982080
H            0.26865001137038       -0.47051109538088       -0.36537721153191
H           -1.42724549195119        1.42944391782212       -0.46393980057193
H           -2.02950807294527        0.88939180372089        1.10715197265820
H           -1.97198101114093       -0.74590855020121       -1.46795652352529
H           -2.34605897730127       -1.40828757104011        0.13192837867030
H           -5.65206443906518       -0.85292701624335       -1.05117957836850
H           -4.32268112952915       -1.96692378509496       -1.42430865480450
H           -5.27832974944329       -1.19246427570339        1.38455847396357
H           -5.68216613300507       -2.68734560186792        0.53624510849195
H           -4.02158052913044       -2.37759439230313        1.03101188317904
H           -3.13354612474067        1.14226293441446       -2.16581586573832
H           -4.85004403775092        0.72111905416709       -2.18654867627116
H           -4.73929758375850        3.02434989373449       -1.46580664728151
H           -3.46245163611507        2.66464902551131       -0.27948971378455
H           -5.12793512043915        1.19398532971102        0.59938514605626

 Bond Distances (Angstroems)
 ---------------------------
C1-C2=1.5251         C1-H24=1.0854        C1-H25=1.0876        C1-H26=1.0884        C2-C1=1.5251         C2-N3=1.4473         
C2-C15=1.5385        C2-H27=1.0958        N3-C2=1.4473         N3-C4=1.3583         N3-H28=1.0072        C4-N3=1.3583         
C4-C5=1.3889         C4-C9=1.4344         C5-C4=1.3889         C5-C6=1.3931         C5-H29=1.0773        C6-C5=1.3931         
C6-N7=1.3072         C6-H30=1.0831        N7-C6=1.3072         N7-C8=1.3464         C8-N7=1.3464         C8-C9=1.4236         
C8-C14=1.4107        C9-C4=1.4344         C9-C8=1.4236         C9-C10=1.4077        C10-C9=1.4077        C10-C11=1.3685       
C10-H31=1.0809       C11-C10=1.3685       C11-C12=1.4014       C11-H32=1.0786       C12-C11=1.4014       C12-Cl13=1.7293      
C12-C14=1.3659       Cl13-C12=1.7293      C14-C8=1.4107        C14-C12=1.3659       C14-H33=1.0776       C15-C2=1.5385        
C15-C16=1.5265       C15-H34=1.0927       C15-H35=1.0930       C16-C15=1.5265       C16-C17=1.5291       C16-H36=1.0913       
C16-H37=1.0900       C17-C16=1.5291       C17-N18=1.4514       C17-H38=1.1049       C17-H39=1.0913       N18-C17=1.4514       
N18-C19=1.4569       N18-C21=1.4588       C19-N18=1.4569       C19-C20=1.5265       C19-H40=1.0918       C19-H41=1.1029       
C20-C19=1.5265       C20-H42=1.0868       C20-H43=1.0868       C20-H44=1.0865       C21-N18=1.4588       C21-C22=1.5375       
C21-H45=1.0955       C21-H46=1.0936       C22-C21=1.5375       C22-O23=1.4029       C22-H47=1.0923       C22-H48=1.0998       
O23-C22=1.4029       O23-H49=0.9687       H24-C1=1.0854        H25-C1=1.0876        H26-C1=1.0884        H27-C2=1.0958        
H28-N3=1.0072        H29-C5=1.0773        H30-C6=1.0831        H31-C10=1.0809       H32-C11=1.0786       H33-C14=1.0776       
H34-C15=1.0927       H35-C15=1.0930       H36-C16=1.0913       H37-C16=1.0900       H38-C17=1.1049       H39-C17=1.0913       
H40-C19=1.0918       H41-C19=1.1029       H42-C20=1.0868       H43-C20=1.0868       H44-C20=1.0865       H45-C21=1.0955       
H46-C21=1.0936       H47-C22=1.0923       H48-C22=1.0998       H49-O23=0.9687       
 C  H  Rav=1.0898 sigma=0.0071  Rmin=1.0773  Rmax=1.1049    24
 C  C  Rav=1.4518 sigma=0.0665  Rmin=1.3659  Rmax=1.5385    15
 N  H  Rav=1.0072 sigma=0.0000  Rmin=1.0072  Rmax=1.0072     1
 N  C  Rav=1.4038 sigma=0.0594  Rmin=1.3072  Rmax=1.4588     7
 O  H  Rav=0.9687 sigma=0.0000  Rmin=0.9687  Rmax=0.9687     1
 O  C  Rav=1.4029 sigma=0.0000  Rmin=1.4029  Rmax=1.4029     1
 Cl C  Rav=1.7293 sigma=0.0000  Rmin=1.7293  Rmax=1.7293     1

 selected bond angles (degree)
 --------------------
H24-C1-C2=110.53               H25-C1-C2=109.99               H25-C1-H24=108.37              H26-C1-C2=110.56               
H26-C1-H24=108.56              H26-C1-H25=108.77              N3-C2-C1=108.06                C15-C2-C1=112.21               
C15-C2-N3=110.73               H27-C2-C1=108.62               H27-C2-N3=107.97               H27-C2-C15=109.14              
C4-N3-C2=125.63                H28-N3-C2=114.45               H28-N3-C4=116.58               C5-C4-N3=122.81                
C9-C4-N3=120.14                C9-C4-C5=117.02                C6-C5-C4=119.72                H29-C5-C4=121.25               
H29-C5-C6=119.03               N7-C6-C5=124.79                H30-C6-C5=119.63               H30-C6-N7=115.58               
C8-N7-C6=117.57                C9-C8-N7=123.25                C14-C8-N7=117.23               C14-C8-C9=119.52               
C8-C9-C4=117.63                C10-C9-C4=124.23               C10-C9-C8=118.14               C11-C10-C9=121.57              
H31-C10-C9=120.48              H31-C10-C11=117.94             

 selected dihedral angles (degree)
 ---------------------------------
N3-C2-C1-H24=172.56           N3-C2-C1-H25= 52.93           N3-C2-C1-H26=292.79           C15-C2-C1-H24=294.93          
C15-C2-C1-H25=175.29          C15-C2-C1-H26= 55.16          H27-C2-C1-H24= 55.68          H27-C2-C1-H25=296.04          
H27-C2-C1-H26=175.91          C4-N3-C2-C1=196.86            C4-N3-C2-C15= 73.60           C4-N3-C2-H27=314.17           
H28-N3-C2-C1= 38.31           H28-N3-C2-C15=275.05          H28-N3-C2-H27=155.62          C5-C4-N3-C2= 10.55            
C5-C4-N3-H28=168.70           C9-C4-N3-C2=188.56            C9-C4-N3-H28=346.71           C6-C5-C4-N3=178.98            
C6-C5-C4-C9=  0.91            H29-C5-C4-N3=358.68           H29-C5-C4-C9=180.61           N7-C6-C5-C4=  0.37            
N7-C6-C5-H29=180.67           H30-C6-C5-C4=179.68           H30-C6-C5-H29=  0.00          C8-N7-C6-C5=358.94            
C8-N7-C6-H30=179.60           C9-C8-N7-C6=  0.44            C14-C8-N7-C6=180.57           C8-C9-C4-N3=180.45            
C8-C9-C4-C5=358.57            C10-C9-C4-N3=  0.25           C10-C9-C4-C5=178.38           C4-C9-C8-N7=  0.81            
C4-C9-C8-C14=180.68           C10-C9-C8-N7=180.99           C10-C9-C8-C14=  0.85          C11-C10-C9-C4=179.62          
C11-C10-C9-C8=359.42          H31-C10-C9-C4=358.86          H31-C10-C9-C8=178.67          
           -------------------------------------------------
          |                Final Singlepoint                |
           -------------------------------------------------

          ...................................................
          :                      SETUP                      :
          :.................................................:
          :  # basis functions                 124          :
          :  # atomic orbitals                 123          :
          :  # shells                           73          :
          :  # electrons                       126          :
          :  max. iterations                   250          :
          :  Hamiltonian                  GFN2-xTB          :
          :  restarted?                      false          :
          :  GBSA solvation                  false          :
          :  PC potential                    false          :
          :  electronic temp.          300.0000000     K    :
          :  accuracy                    1.0000000          :
          :  -> integral cutoff          0.2500000E+02      :
          :  -> integral neglect         0.1000000E-07      :
          :  -> SCF convergence          0.1000000E-05 Eh   :
          :  -> wf. convergence          0.1000000E-03 e    :
          :  Broyden damping             0.4000000          :
          :  net charge                          0          :
          :  unpaired electrons                  0          :
          ...................................................

 iter      E             dE          RMSdq      gap      omega  full diag
   1    -70.1539162 -0.701539E+02  0.122E-04    2.58       0.0  T
   2    -70.1539162 -0.106695E-09  0.959E-05    2.58     149.0  T
   3    -70.1539162 -0.667484E-10  0.789E-05    2.58     181.1  T

   *** convergence criteria satisfied after 3 iterations ***

         #    Occupation            Energy/Eh            Energy/eV
      -------------------------------------------------------------
         1        2.0000           -1.0509261             -28.5972
       ...           ...                  ...                  ...
        57        2.0000           -0.4132098             -11.2440
        58        2.0000           -0.4114544             -11.1962
        59        2.0000           -0.4085203             -11.1164
        60        2.0000           -0.3951538             -10.7527
        61        2.0000           -0.3702204             -10.0742
        62        2.0000           -0.3615127              -9.8373
        63        2.0000           -0.3605508              -9.8111 (HOMO)
        64                         -0.2658092              -7.2330 (LUMO)
        65                         -0.2373896              -6.4597
        66                         -0.1992415              -5.4216
        67                         -0.1541351              -4.1942
        68                         -0.1328892              -3.6161
       ...                                ...                  ...
       123                          0.6818322              18.5536
      -------------------------------------------------------------
                  HL-Gap            0.0947415 Eh            2.5780 eV
             Fermi-level           -0.3131800 Eh           -8.5221 eV

 SCC (total)                   0 d,  0 h,  0 min,  0.062 sec
 SCC setup                      ...        0 min,  0.000 sec (  0.587%)
 Dispersion                     ...        0 min,  0.000 sec (  0.624%)
 classical contributions        ...        0 min,  0.000 sec (  0.297%)
 integral evaluation            ...        0 min,  0.008 sec ( 13.343%)
 iterations                     ...        0 min,  0.008 sec ( 13.140%)
 molecular gradient             ...        0 min,  0.044 sec ( 71.688%)
 printout                       ...        0 min,  0.000 sec (  0.308%)

         :::::::::::::::::::::::::::::::::::::::::::::::::::::
         ::                     SUMMARY                     ::
         :::::::::::::::::::::::::::::::::::::::::::::::::::::
         :: total energy             -69.209110739526 Eh    ::
         :: gradient norm              0.000502155236 Eh/a0 ::
         :: HOMO-LUMO gap              2.578048772404 eV    ::
         ::.................................................::
         :: SCC energy               -70.153769960972 Eh    ::
         :: -> isotropic ES            0.053219014162 Eh    ::
         :: -> anisotropic ES          0.009173947431 Eh    ::
         :: -> anisotropic XC          0.037654660968 Eh    ::
         :: -> dispersion             -0.048467223151 Eh    ::
         :: repulsion energy           0.944659221446 Eh    ::
         :: add. restraining           0.000000000000 Eh    ::
         :: total charge               0.000000000000 e     ::
         :::::::::::::::::::::::::::::::::::::::::::::::::::::

           -------------------------------------------------
          |                Property Printout                |
           -------------------------------------------------

    * Orbital Energies and Occupations

         #    Occupation            Energy/Eh            Energy/eV
      -------------------------------------------------------------
         1        2.0000           -1.0509261             -28.5972
       ...           ...                  ...                  ...
        51        2.0000           -0.4482057             -12.1963
        52        2.0000           -0.4476630             -12.1815
        53        2.0000           -0.4456534             -12.1268
        54        2.0000           -0.4375769             -11.9071
        55        2.0000           -0.4367348             -11.8842
        56        2.0000           -0.4317958             -11.7498
        57        2.0000           -0.4132098             -11.2440
        58        2.0000           -0.4114544             -11.1962
        59        2.0000           -0.4085203             -11.1164
        60        2.0000           -0.3951538             -10.7527
        61        2.0000           -0.3702204             -10.0742
        62        2.0000           -0.3615127              -9.8373
        63        2.0000           -0.3605508              -9.8111 (HOMO)
        64                         -0.2658092              -7.2330 (LUMO)
        65                         -0.2373896              -6.4597
        66                         -0.1992415              -5.4216
        67                         -0.1541351              -4.1942
        68                         -0.1328892              -3.6161
        69                         -0.0693300              -1.8866
        70                         -0.0209036              -0.5688
        71                         -0.0030265              -0.0824
        72                          0.0205925               0.5604
        73                          0.0254814               0.6934
        74                          0.0255783               0.6960
       ...                                ...                  ...
       123                          0.6818322              18.5536
      -------------------------------------------------------------
                  HL-Gap            0.0947415 Eh            2.5780 eV
             Fermi-level           -0.3131800 Eh           -8.5221 eV

     #   Z          covCN         q      C6AA      α(0)
     1   6 C        3.757    -0.118    22.810     6.809
     2   6 C        3.786     0.045    19.833     6.343
     3   7 N        2.695    -0.173    24.735     7.387
     4   6 C        2.901     0.082    26.164     8.387
     5   6 C        2.913    -0.083    30.072     8.992
     6   6 C        2.906     0.063    26.580     8.454
     7   7 N        1.843    -0.256    27.503     7.772
     8   6 C        2.981     0.093    25.928     8.353
     9   6 C        2.983    -0.028    28.689     8.786
    10   6 C        2.919    -0.036    28.904     8.816
    11   6 C        2.951    -0.045    29.127     8.852
    12   6 C        2.885     0.098    25.826     8.331
    13  17 Cl       0.969    -0.181   104.834    15.664
    14   6 C        2.962    -0.052    29.293     8.877
    15   6 C        3.804    -0.069    21.816     6.650
    16   6 C        3.802    -0.065    21.741     6.638
    17   6 C        3.755     0.011    20.444     6.447
    18   7 N        2.728    -0.187    25.051     7.434
    19   6 C        3.749     0.011    20.453     6.450
    20   6 C        3.752    -0.111    22.676     6.791
    21   6 C        3.747    -0.005    20.741     6.496
    22   6 C        3.675     0.074    19.567     6.338
    23   8 O        1.655    -0.447    21.775     6.299
    24   1 H        0.925     0.053     2.285     2.364
    25   1 H        0.925     0.049     2.332     2.388
    26   1 H        0.925     0.042     2.420     2.432
    27   1 H        0.924     0.047     2.360     2.402
    28   1 H        0.860     0.165     1.303     1.788
    29   1 H        0.926     0.027     2.629     2.536
    30   1 H        0.925     0.033     2.538     2.491
    31   1 H        0.926     0.032     2.556     2.500
    32   1 H        0.926     0.053     2.287     2.365
    33   1 H        0.926     0.073     2.053     2.241
    34   1 H        0.924     0.035     2.522     2.483
    35   1 H        0.924     0.039     2.456     2.451
    36   1 H        0.924     0.035     2.520     2.482
    37   1 H        0.925     0.047     2.352     2.398
    38   1 H        0.922     0.007     2.943     2.683
    39   1 H        0.924     0.039     2.467     2.456
    40   1 H        0.924     0.041     2.437     2.441
    41   1 H        0.923     0.011     2.876     2.652
    42   1 H        0.925     0.044     2.397     2.421
    43   1 H        0.925     0.042     2.419     2.432
    44   1 H        0.925     0.038     2.470     2.458
    45   1 H        0.924     0.024     2.672     2.556
    46   1 H        0.924     0.035     2.511     2.478
    47   1 H        0.924     0.042     2.416     2.431
    48   1 H        0.923     0.020     2.740     2.589
    49   1 H        0.805     0.303     0.711     1.325

 Mol. C6AA /au·bohr⁶  :      25117.106024
 Mol. C8AA /au·bohr⁸  :     598157.948596
 Mol. α(0) /au        :        243.610894


Wiberg/Mayer (AO) data.
largest (>0.10) Wiberg bond orders for each atom

 ---------------------------------------------------------------------------
     #   Z sym  total        # sym  WBO       # sym  WBO       # sym  WBO
 ---------------------------------------------------------------------------
     1   6 C    3.993 --     2 C    1.007    25 H    0.985    26 H    0.985
                            24 H    0.982
     2   6 C    3.973 --     1 C    1.007     3 N    0.989    15 C    0.980
                            27 H    0.957
     3   7 N    3.407 --     4 C    1.220     2 C    0.989    28 H    0.931
     4   6 C    3.970 --     5 C    1.391     3 N    1.220     9 C    1.189
     5   6 C    3.978 --     4 C    1.391     6 C    1.369    29 H    0.965
     6   6 C    3.982 --     7 N    1.502     5 C    1.369    30 H    0.963
     7   7 N    3.047 --     6 C    1.502     8 C    1.283
     8   6 C    3.983 --     7 N    1.283    14 C    1.270     9 C    1.246
     9   6 C    3.986 --    10 C    1.306     8 C    1.246     4 C    1.189
    10   6 C    3.992 --    11 C    1.537     9 C    1.306    31 H    0.959
                            14 C    0.111
    11   6 C    3.987 --    10 C    1.537    12 C    1.302    32 H    0.968
    12   6 C    3.916 --    14 C    1.512    11 C    1.302    13 Cl   0.970
    13  17 Cl   1.101 --    12 C    0.970
    14   6 C    3.986 --    12 C    1.512     8 C    1.270    33 H    0.963
                            10 C    0.111
    15   6 C    3.991 --    16 C    1.006     2 C    0.980    34 H    0.977
                            35 H    0.973
    16   6 C    3.995 --    15 C    1.006    17 C    1.000    37 H    0.975
                            36 H    0.974
    17   6 C    3.986 --    18 N    1.005    16 C    1.000    39 H    0.969
                            38 H    0.964
    18   7 N    3.142 --    17 C    1.005    21 C    1.004    19 C    0.999
    19   6 C    3.985 --    20 C    1.014    18 N    0.999    40 H    0.972
                            41 H    0.968
    20   6 C    3.996 --    19 C    1.014    42 H    0.986    43 H    0.985
                            44 H    0.983
    21   6 C    3.986 --    18 N    1.004    22 C    0.987    46 H    0.971
                            45 H    0.969
    22   6 C    3.964 --    23 O    1.010    21 C    0.987    47 H    0.973
                            48 H    0.967
    23   8 O    1.953 --    22 C    1.010    49 H    0.879
    24   1 H    0.997 --     1 C    0.982
    25   1 H    0.998 --     1 C    0.985
    26   1 H    0.998 --     1 C    0.985
    27   1 H    0.997 --     2 C    0.957
    28   1 H    0.972 --     3 N    0.931
    29   1 H    0.999 --     5 C    0.965
    30   1 H    0.998 --     6 C    0.963
    31   1 H    0.999 --    10 C    0.959
    32   1 H    0.997 --    11 C    0.968
    33   1 H    0.994 --    14 C    0.963
    34   1 H    0.999 --    15 C    0.977
    35   1 H    0.998 --    15 C    0.973
    36   1 H    0.999 --    16 C    0.974
    37   1 H    0.998 --    16 C    0.975
    38   1 H    1.000 --    17 C    0.964
    39   1 H    0.998 --    17 C    0.969
    40   1 H    0.998 --    19 C    0.972
    41   1 H    1.000 --    19 C    0.968
    42   1 H    0.998 --    20 C    0.986
    43   1 H    0.998 --    20 C    0.985
    44   1 H    0.999 --    20 C    0.983
    45   1 H    0.999 --    21 C    0.969
    46   1 H    0.999 --    21 C    0.971
    47   1 H    0.998 --    22 C    0.973
    48   1 H    1.000 --    22 C    0.967
    49   1 H    0.908 --    23 O    0.879
 ---------------------------------------------------------------------------

Topologies differ in total number of bonds
Writing topology from bond orders to xtbtopo.mol

molecular dipole:
                 x           y           z       tot (Debye)
 q only:       -1.552       0.320       0.796
   full:       -1.420      -0.026       0.864       4.226
molecular quadrupole (traceless):
                xx          xy          yy          xz          yz          zz
 q only:      -35.955      23.850      12.739       5.644      -0.474      23.217
  q+dip:      -40.850      24.332      12.408      15.094      -3.158      28.441
   full:      -40.309      26.299      14.779      15.442      -2.913      25.530

           -------------------------------------------------
          |                Geometry Summary                 |
           -------------------------------------------------

      molecular mass/u    :      335.8721578
   center of mass at/Å    :        1.4145379      -0.2860499       0.0829289
  moments of inertia/u·Å² :        0.9004843E+03   0.7411615E+04   0.7456678E+04
rotational constants/cm⁻¹ :        0.1872063E-01   0.2274488E-02   0.2260743E-02

 * 50 selected distances

     #   Z          #   Z                                           value/Å
     1   6 C        2   6 C                                       1.5250604
     2   6 C        3   7 N                                       1.4473372
     3   7 N        4   6 C                                       1.3582674
     4   6 C        5   6 C                                       1.3888886
     5   6 C        6   6 C                                       1.3931146
     6   6 C        7   7 N                                       1.3071535
     7   7 N        8   6 C                                       1.3464066
     4   6 C        9   6 C                                       1.4343594
     8   6 C        9   6 C                                       1.4235715
     9   6 C       10   6 C                                       1.4076764
    10   6 C       11   6 C                                       1.3684853
    11   6 C       12   6 C                                       1.4013679
    12   6 C       13  17 Cl                                      1.7292595 (max)
     8   6 C       14   6 C                                       1.4107094
    12   6 C       14   6 C                                       1.3659327
     2   6 C       15   6 C                                       1.5385216
    15   6 C       16   6 C                                       1.5264552
    16   6 C       17   6 C                                       1.5291195
    17   6 C       18   7 N                                       1.4514384
    18   7 N       19   6 C                                       1.4568567
    19   6 C       20   6 C                                       1.5264867
    18   7 N       21   6 C                                       1.4588070
    21   6 C       22   6 C                                       1.5374954
    22   6 C       23   8 O                                       1.4028868
     1   6 C       24   1 H                                       1.0854149
     1   6 C       25   1 H                                       1.0875878
     1   6 C       26   1 H                                       1.0884492
     2   6 C       27   1 H                                       1.0957603
     3   7 N       28   1 H                                       1.0071719
     5   6 C       29   1 H                                       1.0773480
     6   6 C       30   1 H                                       1.0830947
    10   6 C       31   1 H                                       1.0808628
    11   6 C       32   1 H                                       1.0785685
    14   6 C       33   1 H                                       1.0776319
    15   6 C       34   1 H                                       1.0927248
    15   6 C       35   1 H                                       1.0930027
    16   6 C       36   1 H                                       1.0913446
    16   6 C       37   1 H                                       1.0900289
    17   6 C       38   1 H                                       1.1049187
    17   6 C       39   1 H                                       1.0912598
    19   6 C       40   1 H                                       1.0918332
    19   6 C       41   1 H                                       1.1029417
    20   6 C       42   1 H                                       1.0868426
    20   6 C       43   1 H                                       1.0868491
    20   6 C       44   1 H                                       1.0864767
    21   6 C       45   1 H                                       1.0955230
    21   6 C       46   1 H                                       1.0935687
    22   6 C       47   1 H                                       1.0922884
    22   6 C       48   1 H                                       1.0997885
    23   8 O       49   1 H                                       0.9686631 (min)

 * 7 distinct bonds (by element types)

   Z      Z             #   av. dist./Å        max./Å        min./Å
   1 H    6 C          24     1.0897546     1.1049187     1.0773480
   6 C    6 C          15     1.4518163     1.5385216     1.3659327
   1 H    7 N           1     1.0071719     1.0071719     1.0071719
   6 C    7 N           7     1.4037524     1.4588070     1.3071535
   1 H    8 O           1     0.9686631     0.9686631     0.9686631
   6 C    8 O           1     1.4028868     1.4028868     1.4028868
   6 C   17 Cl          1     1.7292595     1.7292595     1.7292595


optimized geometry written to: xtbopt.xyz


           -------------------------------------------------
          | TOTAL ENERGY              -69.209110739526 Eh   |
          | GRADIENT NORM               0.000502155236 Eh/α |
          | HOMO-LUMO GAP               2.578048772404 eV   |
           -------------------------------------------------

------------------------------------------------------------------------
 * finished run on 2025/05/15 at 16:12:32.092     
------------------------------------------------------------------------
 total:
 * wall-time:     0 d,  0 h,  0 min,  1.904 sec
 *  cpu-time:     0 d,  0 h,  0 min,  1.386 sec
 * ratio c/w:     0.728 speedup
 SCF:
 * wall-time:     0 d,  0 h,  0 min,  0.108 sec
 *  cpu-time:     0 d,  0 h,  0 min,  0.075 sec
 * ratio c/w:     0.691 speedup
 ANC optimizer:
 * wall-time:     0 d,  0 h,  0 min,  1.781 sec
 *  cpu-time:     0 d,  0 h,  0 min,  1.299 sec
 * ratio c/w:     0.729 speedup



----- Single-point -----
      -----------------------------------------------------------      
     |                   =====================                   |     
     |                           x T B                           |     
     |                   =====================                   |     
     |                         S. Grimme                         |     
     |          Mulliken Center for Theoretical Chemistry        |     
     |                    University of Bonn                     |     
      -----------------------------------------------------------      

   * xtb version 6.7.1 (edcfbbe) compiled by 'conda@3ef47c1a292c' on 2024-11-25

   xtb is free software: you can redistribute it and/or modify it under
   the terms of the GNU Lesser General Public License as published by
   the Free Software Foundation, either version 3 of the License, or
   (at your option) any later version.
   
   xtb is distributed in the hope that it will be useful,
   but WITHOUT ANY WARRANTY; without even the implied warranty of
   MERCHANTABILITY or FITNESS FOR A PARTICULAR PURPOSE.  See the
   GNU Lesser General Public License for more details.
   
   Cite this work as:
   * C. Bannwarth, E. Caldeweyher, S. Ehlert, A. Hansen, P. Pracht,
     J. Seibert, S. Spicher, S. Grimme, WIREs Comput. Mol. Sci., 2020, 11,
     e01493. DOI: 10.1002/wcms.1493
   
   for GFN2-xTB:
   * C. Bannwarth, S. Ehlert and S. Grimme., J. Chem. Theory Comput., 2019,
     15, 1652-1671. DOI: 10.1021/acs.jctc.8b01176
   for GFN1-xTB:
   * S. Grimme, C. Bannwarth, P. Shushkov, J. Chem. Theory Comput., 2017,
     13, 1989-2009. DOI: 10.1021/acs.jctc.7b00118
   for GFN0-xTB:
   * P. Pracht, E. Caldeweyher, S. Ehlert, S. Grimme, ChemRxiv, 2019, preprint.
     DOI: 10.26434/chemrxiv.8326202.v1
   for GFN-FF:
   * S. Spicher and S. Grimme, Angew. Chem. Int. Ed., 2020, 59, 15665-15673.
     DOI: 10.1002/anie.202004239
   
   for ALPB and GBSA implicit solvation:
   * S. Ehlert, M. Stahn, S. Spicher, S. Grimme, J. Chem. Theory Comput.,
     2021, 17, 4250-4261. DOI: 10.1021/acs.jctc.1c00471
   
   for ddCOSMO and CPCM-X implicit solvation:
   * M. Stahn, S. Ehlert, S. Grimme, J. Phys. Chem. A,
     2023, XX, XXXX-XXXX. DOI: 10.1021/acs.jpca.3c04382
   
   for DFT-D4:
   * E. Caldeweyher, C. Bannwarth and S. Grimme, J. Chem. Phys., 2017,
     147, 034112. DOI: 10.1063/1.4993215
   * E. Caldeweyher, S. Ehlert, A. Hansen, H. Neugebauer, S. Spicher,
     C. Bannwarth and S. Grimme, J. Chem. Phys., 2019, 150, 154122.
     DOI: 10.1063/1.5090222
   * E. Caldeweyher, J.-M. Mewes, S. Ehlert and S. Grimme, Phys. Chem. Chem. Phys.
     2020, 22, 8499-8512. DOI: 10.1039/D0CP00502A
   
   for sTDA-xTB:
   * S. Grimme and C. Bannwarth, J. Chem. Phys., 2016, 145, 054103.
     DOI: 10.1063/1.4959605
   
   in the mass-spec context:
   * V. Asgeirsson, C. Bauer and S. Grimme, Chem. Sci., 2017, 8, 4879.
     DOI: 10.1039/c7sc00601b
   * J. Koopman and S. Grimme, ACS Omega 2019, 4, 12, 15120-15133.
     DOI: 10.1021/acsomega.9b02011
   
   for metadynamics refer to:
   * S. Grimme, J. Chem. Theory Comput., 2019, 155, 2847-2862
     DOI: 10.1021/acs.jctc.9b00143
   
   for SPH calculations refer to:
   * S. Spicher and S. Grimme, J. Chem. Theory Comput., 2021, 17, 1701-1714
     DOI: 10.1021/acs.jctc.0c01306
   
   for ONIOM refer to:
   * C. Plett, A. Katbashev, S. Ehlert, S. Grimme, M. Bursch,
     Phys. Chem. Chem. Phys., 2023, 25, 17860-17868. DOI: 10.1039/D3CP02178E
   
   for DIPRO refer to:
   * J. Kohn, N. Gildemeister, S. Grimme, D. Fazzi, A. Hansen,
     J. Chem. Phys., 2023, just accepted.
   
   for PTB refer to:
   * S. Grimme, M. Mueller, A. Hansen, J. Chem. Phys., 2023, 158, 124111.
     DOI: 10.1063/5.0137838
   
   with help from (in alphabetical order)
   P. Atkinson, C. Bannwarth, F. Bohle, G. Brandenburg, E. Caldeweyher
   M. Checinski, S. Dohm, S. Ehlert, S. Ehrlich, I. Gerasimov, C. Hölzer
   A. Katbashev, J. Kohn, J. Koopman, C. Lavigne, S. Lehtola, F. März, M. Müller,
   F. Musil, H. Neugebauer, J. Pisarek, C. Plett, P. Pracht, F. Pultar,
   J. Seibert, P. Shushkov, S. Spicher, M. Stahn, M. Steiner, T. Strunk,
   J. Stückrath, T. Rose, and J. Unsleber
   
 * started run on 2025/05/15 at 16:12:32.120     
   ID    Z sym.   atoms
    1    6 C      1, 2, 4-6, 8-12, 14-17, 19-22
    2    7 N      3, 7, 18
    3   17 Cl     13
    4    8 O      23
    5    1 H      24-49

           -------------------------------------------------
          |                Calculation Setup                |
           -------------------------------------------------

          program call               : xtb /rds/general/user/hgt20/home/callum/QDESCP/Hydroxychloroquine_rdkit_conf_12/Hydroxychloroquine_rdkit_conf_12.xyz --acc 1 --gfn 2 --chrg 0 --uhf 0 --etemp 300 --input /rds/general/user/hgt20/home/callum/QDESCP/Hydroxychloroquine_rdkit_conf_12/Hydroxychloroquine_rdkit_conf_12_xtb.inp -P 1
          hostname                   : login-c
          coordinate file            : /rds/general/user/hgt20/home/callum/QDESCP/Hydroxychloroquine_rdkit_conf_12/Hydroxychloroquine_rdkit_conf_12.xyz
          omp threads                :                     1


           -------------------------------------------------
          |                 G F N 2 - x T B                 |
           -------------------------------------------------

        Reference                      10.1021/acs.jctc.8b01176
      * Hamiltonian:
        H0-scaling (s, p, d)           1.850000    2.230000    2.230000
        zeta-weighting                 0.500000
      * Dispersion:
        s8                             2.700000
        a1                             0.520000
        a2                             5.000000
        s9                             5.000000
      * Repulsion:
        kExp                           1.500000    1.000000
        rExp                           1.000000
      * Coulomb:
        alpha                          2.000000
        third order                    shell-resolved
        anisotropic                    true
        a3                             3.000000
        a5                             4.000000
        cn-shift                       1.200000
        cn-exp                         4.000000
        max-rad                        5.000000

q/qsh data taken from xtbrestart
CAMM data taken from xtbrestart

          ...................................................
          :                      SETUP                      :
          :.................................................:
          :  # basis functions                 124          :
          :  # atomic orbitals                 123          :
          :  # shells                           73          :
          :  # electrons                       126          :
          :  max. iterations                   250          :
          :  Hamiltonian                  GFN2-xTB          :
          :  restarted?                       true          :
          :  GBSA solvation                  false          :
          :  PC potential                    false          :
          :  electronic temp.          300.0000000     K    :
          :  accuracy                    1.0000000          :
          :  -> integral cutoff          0.2500000E+02      :
          :  -> integral neglect         0.1000000E-07      :
          :  -> SCF convergence          0.1000000E-05 Eh   :
          :  -> wf. convergence          0.1000000E-03 e    :
          :  Broyden damping             0.4000000          :
          :  net charge                          0          :
          :  unpaired electrons                  0          :
          ...................................................

 iter      E             dE          RMSdq      gap      omega  full diag
   1    -70.1539162 -0.701539E+02  0.461E-05    2.58       0.0  T
   2    -70.1539162 -0.159019E-10  0.387E-05    2.58     369.5  T
   3    -70.1539162 -0.106155E-10  0.333E-05    2.58     428.7  T

   *** convergence criteria satisfied after 3 iterations ***

         #    Occupation            Energy/Eh            Energy/eV
      -------------------------------------------------------------
         1        2.0000           -1.0509260             -28.5972
       ...           ...                  ...                  ...
        57        2.0000           -0.4132102             -11.2440
        58        2.0000           -0.4114548             -11.1963
        59        2.0000           -0.4085205             -11.1164
        60        2.0000           -0.3951545             -10.7527
        61        2.0000           -0.3702210             -10.0742
        62        2.0000           -0.3615130              -9.8373
        63        2.0000           -0.3605509              -9.8111 (HOMO)
        64                         -0.2658100              -7.2331 (LUMO)
        65                         -0.2373902              -6.4597
        66                         -0.1992422              -5.4217
        67                         -0.1541357              -4.1942
        68                         -0.1328916              -3.6162
       ...                                ...                  ...
       123                          0.6818316              18.5536
      -------------------------------------------------------------
                  HL-Gap            0.0947410 Eh            2.5780 eV
             Fermi-level           -0.3131805 Eh           -8.5221 eV

 SCC (total)                   0 d,  0 h,  0 min,  0.061 sec
 SCC setup                      ...        0 min,  0.000 sec (  0.721%)
 Dispersion                     ...        0 min,  0.001 sec (  0.950%)
 classical contributions        ...        0 min,  0.000 sec (  0.314%)
 integral evaluation            ...        0 min,  0.009 sec ( 13.992%)
[...]
     DOI: 10.1063/1.4959605
   
   in the mass-spec context:
   * V. Asgeirsson, C. Bauer and S. Grimme, Chem. Sci., 2017, 8, 4879.
     DOI: 10.1039/c7sc00601b
   * J. Koopman and S. Grimme, ACS Omega 2019, 4, 12, 15120-15133.
     DOI: 10.1021/acsomega.9b02011
   
   for metadynamics refer to:
   * S. Grimme, J. Chem. Theory Comput., 2019, 155, 2847-2862
     DOI: 10.1021/acs.jctc.9b00143
   
   for SPH calculations refer to:
   * S. Spicher and S. Grimme, J. Chem. Theory Comput., 2021, 17, 1701-1714
     DOI: 10.1021/acs.jctc.0c01306
   
   for ONIOM refer to:
   * C. Plett, A. Katbashev, S. Ehlert, S. Grimme, M. Bursch,
     Phys. Chem. Chem. Phys., 2023, 25, 17860-17868. DOI: 10.1039/D3CP02178E
   
   for DIPRO refer to:
   * J. Kohn, N. Gildemeister, S. Grimme, D. Fazzi, A. Hansen,
     J. Chem. Phys., 2023, just accepted.
   
   for PTB refer to:
   * S. Grimme, M. Mueller, A. Hansen, J. Chem. Phys., 2023, 158, 124111.
     DOI: 10.1063/5.0137838
   
   with help from (in alphabetical order)
   P. Atkinson, C. Bannwarth, F. Bohle, G. Brandenburg, E. Caldeweyher
   M. Checinski, S. Dohm, S. Ehlert, S. Ehrlich, I. Gerasimov, C. Hölzer
   A. Katbashev, J. Kohn, J. Koopman, C. Lavigne, S. Lehtola, F. März, M. Müller,
   F. Musil, H. Neugebauer, J. Pisarek, C. Plett, P. Pracht, F. Pultar,
   J. Seibert, P. Shushkov, S. Spicher, M. Stahn, M. Steiner, T. Strunk,
   J. Stückrath, T. Rose, and J. Unsleber
   
 * started run on 2025/05/15 at 16:12:33.973     
   ID    Z sym.   atoms
    1    6 C      1, 2, 4-6, 8-12, 14-17, 19-22
    2    7 N      3, 7, 18
    3   17 Cl     13
    4    8 O      23
    5    1 H      24-49

           -------------------------------------------------
          |                Calculation Setup                |
           -------------------------------------------------

          program call               : xtb /rds/general/user/hgt20/home/callum/QDESCP/Hydroxychloroquine_rdkit_conf_12/Hydroxychloroquine_rdkit_conf_12.xyz --acc 1 --gfn 2 --chrg 0 --uhf 2 --etemp 300 --input /rds/general/user/hgt20/home/callum/QDESCP/Hydroxychloroquine_rdkit_conf_12/Hydroxychloroquine_rdkit_conf_12_xtb.inp -P 1
          hostname                   : login-c
          coordinate file            : /rds/general/user/hgt20/home/callum/QDESCP/Hydroxychloroquine_rdkit_conf_12/Hydroxychloroquine_rdkit_conf_12.xyz
          omp threads                :                     1


           -------------------------------------------------
          |                 G F N 2 - x T B                 |
           -------------------------------------------------

        Reference                      10.1021/acs.jctc.8b01176
      * Hamiltonian:
        H0-scaling (s, p, d)           1.850000    2.230000    2.230000
        zeta-weighting                 0.500000
      * Dispersion:
        s8                             2.700000
        a1                             0.520000
        a2                             5.000000
        s9                             5.000000
      * Repulsion:
        kExp                           1.500000    1.000000
        rExp                           1.000000
      * Coulomb:
        alpha                          2.000000
        third order                    shell-resolved
        anisotropic                    true
        a3                             3.000000
        a5                             4.000000
        cn-shift                       1.200000
        cn-exp                         4.000000
        max-rad                        5.000000


          ...................................................
          :                      SETUP                      :
          :.................................................:
          :  # basis functions                 124          :
          :  # atomic orbitals                 123          :
          :  # shells                           73          :
          :  # electrons                       126          :
          :  max. iterations                   250          :
          :  Hamiltonian                  GFN2-xTB          :
          :  restarted?                      false          :
          :  GBSA solvation                  false          :
          :  PC potential                    false          :
          :  electronic temp.          300.0000000     K    :
          :  accuracy                    1.0000000          :
          :  -> integral cutoff          0.2500000E+02      :
          :  -> integral neglect         0.1000000E-07      :
          :  -> SCF convergence          0.1000000E-05 Eh   :
          :  -> wf. convergence          0.1000000E-03 e    :
          :  Broyden damping             0.4000000          :
          :  net charge                          0          :
          :  unpaired electrons                  2          :
          ...................................................

 iter      E             dE          RMSdq      gap      omega  full diag
   1    -69.8653295 -0.698653E+02  0.343E+00    0.48       0.0  T
   2    -69.9144914 -0.491619E-01  0.240E+00    0.88       1.0  T
   3    -69.9395756 -0.250842E-01  0.180E+00    0.67       1.0  T
   4    -70.0173783 -0.778027E-01  0.870E-01    0.74       1.0  T
   5    -70.0099571  0.742120E-02  0.651E-01    0.71       1.0  T
   6    -70.0382263 -0.282692E-01  0.422E-01    0.69       1.0  T
   7    -70.0443278 -0.610154E-02  0.178E-01    0.69       1.0  T
   8    -70.0435380  0.789775E-03  0.241E-01    0.70       1.0  T
   9    -70.0458422 -0.230415E-02  0.106E-01    0.70       1.0  T
  10    -70.0458785 -0.363191E-04  0.108E-01    0.70       1.0  T
  11    -70.0428706  0.300788E-02  0.201E-01    0.70       1.0  T
  12    -70.0451397 -0.226911E-02  0.134E-01    0.70       1.0  T
  13    -70.0463327 -0.119298E-02  0.401E-02    0.70       1.0  T
  14    -70.0463889 -0.562206E-04  0.196E-02    0.70       1.0  T
  15    -70.0463898 -0.845216E-06  0.139E-02    0.70       1.0  T
  16    -70.0464091 -0.193111E-04  0.693E-03    0.70       2.1  T
  17    -70.0464117 -0.261235E-05  0.103E-03    0.70      13.8  T
  18    -70.0464114  0.268253E-06  0.174E-03    0.70       8.2  T
  19    -70.0464118 -0.342728E-06  0.141E-04    0.70     101.6  T
  20    -70.0464118  0.317627E-08  0.198E-04    0.70      72.2  T

   *** convergence criteria satisfied after 20 iterations ***

         #    Occupation            Energy/Eh            Energy/eV
      -------------------------------------------------------------
         1        2.0000           -1.0400637             -28.3016
       ...           ...                  ...                  ...
        58        2.0000           -0.4038821             -10.9902
        59        2.0000           -0.4017854             -10.9331
        60        2.0000           -0.3840814             -10.4514
        61        1.9792           -0.3732316             -10.1561
        62        1.7744           -0.3707454             -10.0885
        63        1.2464           -0.3685117             -10.0277
        64        1.0000           -0.2548304              -6.9343 (HOMO)
        65        0.0000           -0.2290719              -6.2334 (LUMO)
        66                         -0.1899766              -5.1695
        67                         -0.1446183              -3.9353
        68                         -0.1204330              -3.2771
        69                         -0.0608094              -1.6547
       ...                                ...                  ...
       123                          0.6915809              18.8189
      -------------------------------------------------------------
                  HL-Gap            0.0257585 Eh            0.7009 eV
             Fermi-level           -0.3057624 Eh           -8.3202 eV

 transition dipole moment (au) for excitation:          63          64
     X       Y       Z   
   1.1169  -0.4681  -1.1914  total (au/Debye):    1.699   4.318
 dE (eV)             :    3.093
 oscillator strength :  0.30931E+00

 SCC (total)                   0 d,  0 h,  0 min,  0.098 sec
 SCC setup                      ...        0 min,  0.000 sec (  0.425%)
 Dispersion                     ...        0 min,  0.001 sec (  0.575%)
 classical contributions        ...        0 min,  0.000 sec (  0.194%)
 integral evaluation            ...        0 min,  0.009 sec (  8.841%)
 iterations                     ...        0 min,  0.052 sec ( 53.492%)
 molecular gradient             ...        0 min,  0.028 sec ( 28.797%)
 printout                       ...        0 min,  0.007 sec (  7.669%)

         :::::::::::::::::::::::::::::::::::::::::::::::::::::
         ::                     SUMMARY                     ::
         :::::::::::::::::::::::::::::::::::::::::::::::::::::
         :: total energy             -69.101606319569 Eh    ::
         :: gradient norm              0.108282009050 Eh/a0 ::
         :: HOMO-LUMO gap              0.700924379200 eV    ::
         ::.................................................::
         :: SCC energy               -70.046265541014 Eh    ::
         :: -> isotropic ES            0.050060319264 Eh    ::
         :: -> anisotropic ES          0.009402276460 Eh    ::
         :: -> anisotropic XC          0.033535556788 Eh    ::
         :: -> dispersion             -0.048395613737 Eh    ::
         :: repulsion energy           0.944659221446 Eh    ::
         :: add. restraining           0.000000000000 Eh    ::
         :: total charge               0.000000000070 e     ::
         :::::::::::::::::::::::::::::::::::::::::::::::::::::

           -------------------------------------------------
          |                Property Printout                |
           -------------------------------------------------

    * Orbital Energies and Occupations

         #    Occupation            Energy/Eh            Energy/eV
      -------------------------------------------------------------
         1        2.0000           -1.0400637             -28.3016
       ...           ...                  ...                  ...
        52        2.0000           -0.4510578             -12.2739
        53        2.0000           -0.4443664             -12.0918
        54        2.0000           -0.4358394             -11.8598
        55        2.0000           -0.4276071             -11.6358
        56        2.0000           -0.4247560             -11.5582
        57        2.0000           -0.4156284             -11.3098
        58        2.0000           -0.4038821             -10.9902
        59        2.0000           -0.4017854             -10.9331
        60        2.0000           -0.3840814             -10.4514
        61        1.9792           -0.3732316             -10.1561
        62        1.7744           -0.3707454             -10.0885
        63        1.2464           -0.3685117             -10.0277
        64        1.0000           -0.2548304              -6.9343 (HOMO)
        65        0.0000           -0.2290719              -6.2334 (LUMO)
        66                         -0.1899766              -5.1695
        67                         -0.1446183              -3.9353
        68                         -0.1204330              -3.2771
        69                         -0.0608094              -1.6547
        70                         -0.0264726              -0.7204
        71                         -0.0078442              -0.2135
        72                          0.0321269               0.8742
        73                          0.0369127               1.0044
        74                          0.0370141               1.0072
        75                          0.0387327               1.0540
       ...                                ...                  ...
       123                          0.6915809              18.8189
      -------------------------------------------------------------
                  HL-Gap            0.0257585 Eh            0.7009 eV
             Fermi-level           -0.3057624 Eh           -8.3202 eV

     #   Z          covCN         q      C6AA      α(0)
     1   6 C        3.757    -0.119    22.830     6.812
     2   6 C        3.786     0.044    19.845     6.345
     3   7 N        2.695    -0.151    24.261     7.315
     4   6 C        2.901     0.043    27.031     8.525
     5   6 C        2.913    -0.059    29.465     8.901
     6   6 C        2.906     0.035    27.227     8.556
     7   7 N        1.843    -0.206    26.306     7.601
     8   6 C        2.981     0.091    25.980     8.361
     9   6 C        2.983    -0.022    28.551     8.765
    10   6 C        2.919    -0.062    29.550     8.914
    11   6 C        2.951    -0.046    29.151     8.856
    12   6 C        2.885     0.085    26.103     8.376
    13  17 Cl       0.969    -0.191   105.157    15.688
    14   6 C        2.962    -0.065    29.622     8.927
    15   6 C        3.804    -0.068    21.796     6.646
    16   6 C        3.802    -0.065    21.744     6.639
    17   6 C        3.755     0.009    20.485     6.454
    18   7 N        2.728    -0.173    24.748     7.389
    19   6 C        3.749     0.009    20.491     6.456
    20   6 C        3.752    -0.111    22.694     6.793
    21   6 C        3.747    -0.008    20.780     6.502
    22   6 C        3.675     0.074    19.570     6.339
    23   8 O        1.655    -0.445    21.739     6.294
    24   1 H        0.925     0.053     2.279     2.361
    25   1 H        0.925     0.052     2.301     2.372
    26   1 H        0.925     0.044     2.394     2.419
    27   1 H        0.924     0.051     2.312     2.378
    28   1 H        0.860     0.171     1.270     1.765
    29   1 H        0.926     0.030     2.582     2.513
    30   1 H        0.925     0.032     2.561     2.503
    31   1 H        0.926     0.019     2.746     2.591
    32   1 H        0.926     0.043     2.413     2.429
    33   1 H        0.926     0.060     2.199     2.319
    34   1 H        0.924     0.038     2.478     2.462
    35   1 H        0.924     0.043     2.413     2.429
    36   1 H        0.924     0.036     2.497     2.471
    37   1 H        0.925     0.049     2.331     2.388
    38   1 H        0.922     0.013     2.849     2.640
    39   1 H        0.924     0.042     2.418     2.432
    40   1 H        0.924     0.044     2.397     2.421
    41   1 H        0.923     0.016     2.794     2.614
    42   1 H        0.925     0.045     2.380     2.412
    43   1 H        0.925     0.045     2.385     2.415
    44   1 H        0.925     0.040     2.447     2.446
    45   1 H        0.924     0.028     2.615     2.529
    46   1 H        0.924     0.039     2.458     2.452
    47   1 H        0.924     0.045     2.380     2.413
    48   1 H        0.923     0.021     2.711     2.575
    49   1 H        0.805     0.303     0.712     1.325

 Mol. C6AA /au·bohr⁶  :      25094.546146
 Mol. C8AA /au·bohr⁸  :     598120.930954
 Mol. α(0) /au        :        243.528032


Wiberg/Mayer (AO) data.
largest (>0.10) Wiberg bond orders for each atom

 ---------------------------------------------------------------------------
     #   Z sym  total        # sym  WBO       # sym  WBO       # sym  WBO
 ---------------------------------------------------------------------------
     1   6 C    3.991 --     2 C    1.006    26 H    0.985    25 H    0.985
                            24 H    0.982
     2   6 C    3.970 --     1 C    1.006     3 N    0.997    15 C    0.969
                            27 H    0.955
     3   7 N    3.343 --     4 C    1.202     2 C    0.997    28 H    0.928
     4   6 C    3.874 --     5 C    1.234     3 N    1.202     9 C    1.185
     5   6 C    3.866 --     6 C    1.452     4 C    1.234    29 H    0.962
     6   6 C    3.948 --     5 C    1.452     7 N    1.334    30 H    0.958
     7   7 N    2.881 --     6 C    1.334     8 C    1.280
     8   6 C    3.959 --     7 N    1.280    14 C    1.266     9 C    1.228
     9   6 C    3.953 --    10 C    1.312     8 C    1.228     4 C    1.185
    10   6 C    3.900 --    11 C    1.344     9 C    1.312    31 H    0.956
    11   6 C    3.947 --    12 C    1.417    10 C    1.344    32 H    0.969
    12   6 C    3.888 --    11 C    1.417    14 C    1.332    13 Cl   0.960
    13  17 Cl   1.083 --    12 C    0.960
    14   6 C    3.855 --    12 C    1.332     8 C    1.266    33 H    0.964
    15   6 C    3.982 --    16 C    1.006    34 H    0.976    35 H    0.972
                             2 C    0.969
    16   6 C    3.992 --    15 C    1.006    17 C    0.998    37 H    0.975
                            36 H    0.974
    17   6 C    3.982 --    18 N    1.006    16 C    0.998    39 H    0.968
                            38 H    0.962
    18   7 N    3.131 --    17 C    1.006    21 C    1.003    19 C    0.998
    19   6 C    3.981 --    20 C    1.014    18 N    0.998    40 H    0.972
                            41 H    0.967
    20   6 C    3.994 --    19 C    1.014    42 H    0.986    43 H    0.985
                            44 H    0.983
    21   6 C    3.983 --    18 N    1.003    22 C    0.986    46 H    0.970
                            45 H    0.968
    22   6 C    3.961 --    23 O    1.011    21 C    0.986    47 H    0.973
                            48 H    0.967
    23   8 O    1.954 --    22 C    1.011    49 H    0.879
    24   1 H    0.996 --     1 C    0.982
    25   1 H    0.997 --     1 C    0.985
    26   1 H    0.998 --     1 C    0.985
    27   1 H    0.995 --     2 C    0.955
    28   1 H    0.970 --     3 N    0.928
    29   1 H    0.995 --     5 C    0.962
    30   1 H    0.989 --     6 C    0.958
    31   1 H    0.995 --    10 C    0.956
    32   1 H    0.997 --    11 C    0.969
    33   1 H    0.994 --    14 C    0.964
    34   1 H    0.998 --    15 C    0.976
    35   1 H    0.998 --    15 C    0.972
    36   1 H    0.999 --    16 C    0.974
    37   1 H    0.997 --    16 C    0.975
    38   1 H    0.996 --    17 C    0.962
    39   1 H    0.998 --    17 C    0.968
    40   1 H    0.998 --    19 C    0.972
    41   1 H    0.995 --    19 C    0.967
    42   1 H    0.998 --    20 C    0.986
    43   1 H    0.998 --    20 C    0.985
    44   1 H    0.998 --    20 C    0.983
    45   1 H    0.997 --    21 C    0.968
    46   1 H    0.997 --    21 C    0.970
    47   1 H    0.998 --    22 C    0.973
    48   1 H    0.999 --    22 C    0.967
    49   1 H    0.908 --    23 O    0.879
 ---------------------------------------------------------------------------

Topologies differ in total number of bonds
Writing topology from bond orders to xtbtopo.mol

molecular dipole:
                 x           y           z       tot (Debye)
 q only:       -2.679       0.581       0.518
   full:       -2.556       0.248       0.504       6.651
molecular quadrupole (traceless):
                xx          xy          yy          xz          yz          zz
 q only:      -43.224      28.470      16.226       2.651       0.406      26.998
  q+dip:      -48.952      29.637      15.716      10.126      -1.732      33.236
   full:      -48.357      31.309      17.842      10.594      -1.594      30.514


           -------------------------------------------------
          | TOTAL ENERGY              -69.101606319569 Eh   |
          | GRADIENT NORM               0.108282009050 Eh/α |
          | HOMO-LUMO GAP               0.700924379200 eV   |
           -------------------------------------------------

------------------------------------------------------------------------
 * finished run on 2025/05/15 at 16:12:34.085     
------------------------------------------------------------------------
 total:
 * wall-time:     0 d,  0 h,  0 min,  0.111 sec
 *  cpu-time:     0 d,  0 h,  0 min,  0.110 sec
 * ratio c/w:     0.985 speedup
 SCF:
 * wall-time:     0 d,  0 h,  0 min,  0.098 sec
 *  cpu-time:     0 d,  0 h,  0 min,  0.097 sec
 * ratio c/w:     0.995 speedup


