----- Optimization -----
      -----------------------------------------------------------      
     |                   =====================                   |     
     |                           x T B                           |     
     |                   =====================                   |     
     |                         S. Grimme                         |     
     |          Mulliken Center for Theoretical Chemistry        |     
     |                    University of Bonn                     |     
      -----------------------------------------------------------      

   * xtb version 6.7.1 (edcfbbe) compiled by 'conda@3ef47c1a292c' on 2024-11-25

   xtb is free software: you can redistribute it and/or modify it under
   the terms of the GNU Lesser General Public License as published by
   the Free Software Foundation, either version 3 of the License, or
   (at your option) any later version.
   
   xtb is distributed in the hope that it will be useful,
   but WITHOUT ANY WARRANTY; without even the implied warranty of
   MERCHANTABILITY or FITNESS FOR A PARTICULAR PURPOSE.  See the
   GNU Lesser General Public License for more details.
   
   Cite this work as:
   * C. Bannwarth, E. Caldeweyher, S. Ehlert, A. Hansen, P. Pracht,
     J. Seibert, S. Spicher, S. Grimme, WIREs Comput. Mol. Sci., 2020, 11,
     e01493. DOI: 10.1002/wcms.1493
   
   for GFN2-xTB:
   * C. Bannwarth, S. Ehlert and S. Grimme., J. Chem. Theory Comput., 2019,
     15, 1652-1671. DOI: 10.1021/acs.jctc.8b01176
   for GFN1-xTB:
   * S. Grimme, C. Bannwarth, P. Shushkov, J. Chem. Theory Comput., 2017,
     13, 1989-2009. DOI: 10.1021/acs.jctc.7b00118
   for GFN0-xTB:
   * P. Pracht, E. Caldeweyher, S. Ehlert, S. Grimme, ChemRxiv, 2019, preprint.
     DOI: 10.26434/chemrxiv.8326202.v1
   for GFN-FF:
   * S. Spicher and S. Grimme, Angew. Chem. Int. Ed., 2020, 59, 15665-15673.
     DOI: 10.1002/anie.202004239
   
   for ALPB and GBSA implicit solvation:
   * S. Ehlert, M. Stahn, S. Spicher, S. Grimme, J. Chem. Theory Comput.,
     2021, 17, 4250-4261. DOI: 10.1021/acs.jctc.1c00471
   
   for ddCOSMO and CPCM-X implicit solvation:
   * M. Stahn, S. Ehlert, S. Grimme, J. Phys. Chem. A,
     2023, XX, XXXX-XXXX. DOI: 10.1021/acs.jpca.3c04382
   
   for DFT-D4:
   * E. Caldeweyher, C. Bannwarth and S. Grimme, J. Chem. Phys., 2017,
     147, 034112. DOI: 10.1063/1.4993215
   * E. Caldeweyher, S. Ehlert, A. Hansen, H. Neugebauer, S. Spicher,
     C. Bannwarth and S. Grimme, J. Chem. Phys., 2019, 150, 154122.
     DOI: 10.1063/1.5090222
   * E. Caldeweyher, J.-M. Mewes, S. Ehlert and S. Grimme, Phys. Chem. Chem. Phys.
     2020, 22, 8499-8512. DOI: 10.1039/D0CP00502A
   
   for sTDA-xTB:
   * S. Grimme and C. Bannwarth, J. Chem. Phys., 2016, 145, 054103.
     DOI: 10.1063/1.4959605
   
   in the mass-spec context:
   * V. Asgeirsson, C. Bauer and S. Grimme, Chem. Sci., 2017, 8, 4879.
     DOI: 10.1039/c7sc00601b
   * J. Koopman and S. Grimme, ACS Omega 2019, 4, 12, 15120-15133.
     DOI: 10.1021/acsomega.9b02011
   
   for metadynamics refer to:
   * S. Grimme, J. Chem. Theory Comput., 2019, 155, 2847-2862
     DOI: 10.1021/acs.jctc.9b00143
   
   for SPH calculations refer to:
   * S. Spicher and S. Grimme, J. Chem. Theory Comput., 2021, 17, 1701-1714
     DOI: 10.1021/acs.jctc.0c01306
   
   for ONIOM refer to:
   * C. Plett, A. Katbashev, S. Ehlert, S. Grimme, M. Bursch,
     Phys. Chem. Chem. Phys., 2023, 25, 17860-17868. DOI: 10.1039/D3CP02178E
   
   for DIPRO refer to:
   * J. Kohn, N. Gildemeister, S. Grimme, D. Fazzi, A. Hansen,
     J. Chem. Phys., 2023, just accepted.
   
   for PTB refer to:
   * S. Grimme, M. Mueller, A. Hansen, J. Chem. Phys., 2023, 158, 124111.
     DOI: 10.1063/5.0137838
   
   with help from (in alphabetical order)
   P. Atkinson, C. Bannwarth, F. Bohle, G. Brandenburg, E. Caldeweyher
   M. Checinski, S. Dohm, S. Ehlert, S. Ehrlich, I. Gerasimov, C. Hölzer
   A. Katbashev, J. Kohn, J. Koopman, C. Lavigne, S. Lehtola, F. März, M. Müller,
   F. Musil, H. Neugebauer, J. Pisarek, C. Plett, P. Pracht, F. Pultar,
   J. Seibert, P. Shushkov, S. Spicher, M. Stahn, M. Steiner, T. Strunk,
   J. Stückrath, T. Rose, and J. Unsleber
   
 * started run on 2025/05/15 at 16:26:37.079     
   ID    Z sym.   atoms
    1    7 N      1, 3, 6, 9, 11
    2    6 C      2, 4, 7, 8, 10, 12-15, 17
    3   17 Cl     5
    4    8 O      16, 18, 19
    5    1 H      20-31

           -------------------------------------------------
          |                Calculation Setup                |
           -------------------------------------------------

          program call               : xtb /rds/general/user/hgt20/home/callum/QDESCP/Cladribine_rdkit_conf_20/Cladribine_rdkit_conf_20.xyz --opt normal --acc 1 --gfn 2 --chrg 0 --uhf 0 -P 1
          hostname                   : login-c
          coordinate file            : /rds/general/user/hgt20/home/callum/QDESCP/Cladribine_rdkit_conf_20/Cladribine_rdkit_conf_20.xyz
          omp threads                :                     1


           -------------------------------------------------
          |                 G F N 2 - x T B                 |
           -------------------------------------------------

        Reference                      10.1021/acs.jctc.8b01176
      * Hamiltonian:
        H0-scaling (s, p, d)           1.850000    2.230000    2.230000
        zeta-weighting                 0.500000
      * Dispersion:
        s8                             2.700000
        a1                             0.520000
        a2                             5.000000
        s9                             5.000000
      * Repulsion:
        kExp                           1.500000    1.000000
        rExp                           1.000000
      * Coulomb:
        alpha                          2.000000
        third order                    shell-resolved
        anisotropic                    true
        a3                             3.000000
        a5                             4.000000
        cn-shift                       1.200000
        cn-exp                         4.000000
        max-rad                        5.000000


          ...................................................
          :                      SETUP                      :
          :.................................................:
          :  # basis functions                  94          :
          :  # atomic orbitals                  93          :
          :  # shells                           51          :
          :  # electrons                       102          :
          :  max. iterations                   250          :
          :  Hamiltonian                  GFN2-xTB          :
          :  restarted?                      false          :
          :  GBSA solvation                  false          :
          :  PC potential                    false          :
          :  electronic temp.          300.0000000     K    :
          :  accuracy                    1.0000000          :
          :  -> integral cutoff          0.2500000E+02      :
          :  -> integral neglect         0.1000000E-07      :
          :  -> SCF convergence          0.1000000E-05 Eh   :
          :  -> wf. convergence          0.1000000E-03 e    :
          :  Broyden damping             0.4000000          :
          :  net charge                          0          :
          :  unpaired electrons                  0          :
          ...................................................

 iter      E             dE          RMSdq      gap      omega  full diag
   1    -59.3769541 -0.593770E+02  0.423E+00    2.96       0.0  T
   2    -59.4941205 -0.117166E+00  0.253E+00    3.31       1.0  T
   3    -59.5072858 -0.131652E-01  0.124E+00    3.17       1.0  T
   4    -59.5123673 -0.508157E-02  0.261E-01    3.09       1.0  T
   5    -59.5134549 -0.108759E-02  0.107E-01    3.07       1.0  T
   6    -59.5135603 -0.105335E-03  0.566E-02    3.06       1.0  T
   7    -59.5135862 -0.259076E-04  0.346E-02    3.06       1.0  T
   8    -59.5135942 -0.801669E-05  0.205E-02    3.07       1.0  T
   9    -59.5135976 -0.344437E-05  0.151E-02    3.07       1.2  T
  10    -59.5136004 -0.278906E-05  0.895E-03    3.07       2.0  T
  11    -59.5136016 -0.118372E-05  0.342E-03    3.07       5.3  T
  12    -59.5136017 -0.106028E-06  0.191E-03    3.07       9.4  T
  13    -59.5136017 -0.476836E-07  0.786E-04    3.07      22.8  T
  14    -59.5136018 -0.578743E-08  0.458E-04    3.07      39.2  T

   *** convergence criteria satisfied after 14 iterations ***

         #    Occupation            Energy/Eh            Energy/eV
      -------------------------------------------------------------
         1        2.0000           -1.0551771             -28.7128
       ...           ...                  ...                  ...
        45        2.0000           -0.4255403             -11.5795
        46        2.0000           -0.4248707             -11.5613
        47        2.0000           -0.4207673             -11.4497
        48        2.0000           -0.4197231             -11.4212
        49        2.0000           -0.4048101             -11.0154
        50        2.0000           -0.3931979             -10.6995
        51        2.0000           -0.3827145             -10.4142 (HOMO)
        52                         -0.2700712              -7.3490 (LUMO)
        53                         -0.2432845              -6.6201
        54                         -0.2108704              -5.7381
        55                         -0.1416090              -3.8534
        56                         -0.1170447              -3.1849
       ...                                ...                  ...
        93                          0.6253104              17.0156
      -------------------------------------------------------------
                  HL-Gap            0.1126433 Eh            3.0652 eV
             Fermi-level           -0.3263928 Eh           -8.8816 eV

 SCC (total)                   0 d,  0 h,  0 min,  0.045 sec
 SCC setup                      ...        0 min,  0.000 sec (  0.591%)
 Dispersion                     ...        0 min,  0.000 sec (  0.595%)
 classical contributions        ...        0 min,  0.000 sec (  0.190%)
 integral evaluation            ...        0 min,  0.006 sec ( 13.475%)
 iterations                     ...        0 min,  0.022 sec ( 48.311%)
 molecular gradient             ...        0 min,  0.016 sec ( 36.536%)
 printout                       ...        0 min,  0.000 sec (  0.290%)

         :::::::::::::::::::::::::::::::::::::::::::::::::::::
         ::                     SUMMARY                     ::
         :::::::::::::::::::::::::::::::::::::::::::::::::::::
         :: total energy             -58.948388616761 Eh    ::
         :: gradient norm              0.089100564585 Eh/a0 ::
         :: HOMO-LUMO gap              3.065179622526 eV    ::
         ::.................................................::
         :: SCC energy               -59.513018526680 Eh    ::
         :: -> isotropic ES            0.115635500222 Eh    ::
         :: -> anisotropic ES         -0.000110702313 Eh    ::
         :: -> anisotropic XC          0.019383541419 Eh    ::
         :: -> dispersion             -0.034536256544 Eh    ::
         :: repulsion energy           0.564629909920 Eh    ::
         :: add. restraining           0.000000000000 Eh    ::
         :: total charge              -0.000000000000 e     ::
         :::::::::::::::::::::::::::::::::::::::::::::::::::::

      ----------------------------------------------------------- 
     |                   =====================                   |
     |                        A N C O P T                        |
     |                   =====================                   |
     |               Approximate Normal Coordinate               |
     |                Rational Function Optimizer                |
      ----------------------------------------------------------- 
      ----------------------------------------------------------- 
     |                   =====================                   |
     |                        A N C O P T                        |
     |                   =====================                   |
     |               Approximate Normal Coordinate               |
     |                Rational Function Optimizer                |
      ----------------------------------------------------------- 

          ...................................................
          :                      SETUP                      :
          :.................................................:
          :   optimization level            normal          :
          :   max. optcycles                   200          :
          :   ANC micro-cycles                  20          :
          :   degrees of freedom                87          :
          :.................................................:
          :   RF solver                   davidson          :
          :   write xtbopt.log                true          :
          :   linear?                        false          :
          :   energy convergence         0.5000000E-05 Eh   :
          :   grad. convergence          0.1000000E-02 Eh/α :
          :   maxmium RF displ.          1.0000000          :
          :   Hlow (freq-cutoff)         0.1000000E-01      :
          :   Hmax (freq-cutoff)         5.0000000          :
          :   S6 in model hess.         20.0000000          :
          ...................................................

generating ANC from exact Hessian ...
Using Lindh-Hessian (1995)
 Shifting diagonal of input Hessian by    9.3159854192416958E-003
 Lowest  eigenvalues of input Hessian
    0.000000    0.000000    0.000000    0.000000    0.000000    0.000000
    0.010000    0.010241    0.011054    0.012435    0.014620    0.017046
    0.018764    0.019306    0.022162    0.023067    0.026158    0.030324
 Highest eigenvalues
    1.780731    1.911971    2.059453    2.085549    2.172234    2.284280


........................................................................
.............................. CYCLE    1 ..............................
........................................................................

 iter      E             dE          RMSdq      gap      omega  full diag
   1    -59.5136018 -0.595136E+02  0.321E-04    3.07       0.0  T
   2    -59.5136018 -0.409095E-09  0.265E-04    3.07      67.7  T
   3    -59.5136018 -0.315680E-09  0.178E-04    3.07     100.9  T
     SCC iter.                  ...        0 min,  0.005 sec
     gradient                   ...        0 min,  0.028 sec
 * total energy  :   -58.9483886 Eh     change       -0.2105224E-08 Eh
   gradient norm :     0.0891011 Eh/α   predicted     0.0000000E+00 (-100.00%)
   displ. norm   :     0.3096879 α      lambda       -0.1366462E-01
   maximum displ.:     0.1523039 α      in ANC's #16, #5, #14, ...

........................................................................
.............................. CYCLE    2 ..............................
........................................................................

 iter      E             dE          RMSdq      gap      omega  full diag
   1    -59.5447833 -0.595448E+02  0.249E-01    3.18       0.0  T
   2    -59.5449243 -0.140955E-03  0.150E-01    3.15       1.0  T
   3    -59.5449030  0.212602E-04  0.801E-02    3.17       1.0  T
   4    -59.5449852 -0.821773E-04  0.174E-02    3.16       1.0  T
   5    -59.5449897 -0.447031E-05  0.108E-02    3.16       1.7  T
   6    -59.5449903 -0.677469E-06  0.813E-03    3.16       2.2  T
   7    -59.5449910 -0.640701E-06  0.570E-03    3.16       3.2  T
   8    -59.5449914 -0.454983E-06  0.289E-03    3.16       6.2  T
   9    -59.5449915 -0.105037E-06  0.137E-03    3.16      13.1  T
  10    -59.5449916 -0.280007E-07  0.506E-04    3.16      35.5  T
  11    -59.5449916 -0.292527E-08  0.230E-04    3.16      78.0  T
     SCC iter.                  ...        0 min,  0.016 sec
     gradient                   ...        0 min,  0.016 sec
 * total energy  :   -58.9578938 Eh     change       -0.9505188E-02 Eh
   gradient norm :     0.0418357 Eh/α   predicted    -0.7490826E-02 ( -21.19%)
   displ. norm   :     0.3032620 α      lambda       -0.5077491E-02
   maximum displ.:     0.1424103 α      in ANC's #16, #5, #6, ...

........................................................................
.............................. CYCLE    3 ..............................
........................................................................

 iter      E             dE          RMSdq      gap      omega  full diag
   1    -59.5616896 -0.595617E+02  0.171E-01    3.25       0.0  T
   2    -59.5618271 -0.137558E-03  0.102E-01    3.21       1.0  T
   3    -59.5618456 -0.184849E-04  0.567E-02    3.23       1.0  T
   4    -59.5618698 -0.241653E-04  0.145E-02    3.23       1.2  T
   5    -59.5618736 -0.381767E-05  0.689E-03    3.22       2.6  T
   6    -59.5618739 -0.297660E-06  0.485E-03    3.23       3.7  T
   7    -59.5618741 -0.192497E-06  0.359E-03    3.22       5.0  T
   8    -59.5618743 -0.158842E-06  0.212E-03    3.22       8.5  T
   9    -59.5618743 -0.565491E-07  0.107E-03    3.22      16.8  T
  10    -59.5618743 -0.193339E-07  0.381E-04    3.22      47.2  T
  11    -59.5618743 -0.149518E-08  0.166E-04    3.22     108.5  T
     SCC iter.                  ...        0 min,  0.016 sec
     gradient                   ...        0 min,  0.016 sec
 * total energy  :   -58.9609476 Eh     change       -0.3053814E-02 Eh
   gradient norm :     0.0141588 Eh/α   predicted    -0.2775220E-02 (  -9.12%)
   displ. norm   :     0.2158975 α      lambda       -0.1030196E-02
   maximum displ.:     0.1121314 α      in ANC's #5, #4, #6, ...

........................................................................
.............................. CYCLE    4 ..............................
........................................................................

 iter      E             dE          RMSdq      gap      omega  full diag
   1    -59.5621106 -0.595621E+02  0.738E-02    3.24       0.0  T
   2    -59.5621279 -0.172625E-04  0.425E-02    3.23       1.0  T
   3    -59.5621259  0.196952E-05  0.207E-02    3.24       1.0  T
   4    -59.5621316 -0.566460E-05  0.511E-03    3.23       3.5  T
   5    -59.5621322 -0.593750E-06  0.233E-03    3.24       7.7  T
   6    -59.5621322 -0.395160E-07  0.115E-03    3.24      15.6  T
   7    -59.5621322 -0.112032E-07  0.706E-04    3.24      25.4  T
   8    -59.5621322 -0.365470E-08  0.489E-04    3.24      36.8  T
     SCC iter.                  ...        0 min,  0.012 sec
     gradient                   ...        0 min,  0.016 sec
 * total energy  :   -58.9617132 Eh     change       -0.7656259E-03 Eh
   gradient norm :     0.0120876 Eh/α   predicted    -0.5391349E-03 ( -29.58%)
   displ. norm   :     0.2787696 α      lambda       -0.8359745E-03
   maximum displ.:     0.1431876 α      in ANC's #5, #4, #1, ...

........................................................................
.............................. CYCLE    5 ..............................
........................................................................

 iter      E             dE          RMSdq      gap      omega  full diag
   1    -59.5606963 -0.595607E+02  0.876E-02    3.24       0.0  T
   2    -59.5607097 -0.133853E-04  0.510E-02    3.24       1.0  T
   3    -59.5607043  0.543410E-05  0.200E-02    3.24       1.0  T
   4    -59.5607131 -0.876587E-05  0.525E-03    3.24       3.4  T
   5    -59.5607135 -0.460338E-06  0.293E-03    3.24       6.1  T
   6    -59.5607136 -0.527546E-07  0.168E-03    3.24      10.7  T
   7    -59.5607136 -0.234007E-07  0.126E-03    3.24      14.2  T
   8    -59.5607136 -0.159667E-07  0.829E-04    3.24      21.7  T
   9    -59.5607136 -0.937432E-08  0.408E-04    3.24      44.0  T
     SCC iter.                  ...        0 min,  0.013 sec
     gradient                   ...        0 min,  0.016 sec
 * total energy  :   -58.9622718 Eh     change       -0.5585197E-03 Eh
   gradient norm :     0.0090801 Eh/α   predicted    -0.4504747E-03 ( -19.34%)
   displ. norm   :     0.2143664 α      lambda       -0.3574062E-03
   maximum displ.:     0.1241151 α      in ANC's #1, #4, #5, ...

........................................................................
.............................. CYCLE    6 ..............................
........................................................................

 iter      E             dE          RMSdq      gap      omega  full diag
   1    -59.5611702 -0.595612E+02  0.604E-02    3.25       0.0  T
   2    -59.5611737 -0.352796E-05  0.353E-02    3.24       1.0  T
   3    -59.5611717  0.205392E-05  0.102E-02    3.25       1.8  T
   4    -59.5611747 -0.299342E-05  0.292E-03    3.24       6.2  T
   5    -59.5611748 -0.122769E-06  0.153E-03    3.24      11.7  T
   6    -59.5611748 -0.103660E-07  0.632E-04    3.24      28.4  T
   7    -59.5611748 -0.401851E-08  0.449E-04    3.24      40.0  T
     SCC iter.                  ...        0 min,  0.010 sec
     gradient                   ...        0 min,  0.031 sec
 * total energy  :   -58.9625412 Eh     change       -0.2694087E-03 Eh
   gradient norm :     0.0069916 Eh/α   predicted    -0.1869419E-03 ( -30.61%)
   displ. norm   :     0.2607750 α      lambda       -0.3312293E-03
   maximum displ.:     0.1719196 α      in ANC's #1, #4, #5, ...

........................................................................
.............................. CYCLE    7 ..............................
........................................................................

 iter      E             dE          RMSdq      gap      omega  full diag
   1    -59.5626914 -0.595627E+02  0.673E-02    3.26       0.0  T
   2    -59.5626947 -0.332559E-05  0.395E-02    3.25       1.0  T
   3    -59.5626940  0.723982E-06  0.809E-03    3.26       2.2  T
   4    -59.5626955 -0.150468E-05  0.292E-03    3.25       6.2  T
   5    -59.5626956 -0.107476E-06  0.155E-03    3.25      11.6  T
   6    -59.5626956 -0.180967E-07  0.447E-04    3.25      40.2  T
   7    -59.5626956 -0.218652E-08  0.238E-04    3.25      75.6  T
     SCC iter.                  ...        0 min,  0.010 sec
     gradient                   ...        0 min,  0.017 sec
 * total energy  :   -58.9627937 Eh     change       -0.2525007E-03 Eh
   gradient norm :     0.0056650 Eh/α   predicted    -0.1768781E-03 ( -29.95%)
   displ. norm   :     0.2817765 α      lambda       -0.2789134E-03
   maximum displ.:     0.1992354 α      in ANC's #1, #4, #5, ...

........................................................................
.............................. CYCLE    8 ..............................
........................................................................

 iter      E             dE          RMSdq      gap      omega  full diag
   1    -59.5640619 -0.595641E+02  0.676E-02    3.27       0.0  T
   2    -59.5640654 -0.346469E-05  0.398E-02    3.26       1.0  T
   3    -59.5640655 -0.627960E-07  0.754E-03    3.27       2.4  T
   4    -59.5640662 -0.726732E-06  0.280E-03    3.27       6.4  T
   5    -59.5640662 -0.376587E-07  0.153E-03    3.27      11.8  T
   6    -59.5640662 -0.177722E-07  0.625E-04    3.27      28.7  T
   7    -59.5640662 -0.238683E-08  0.454E-04    3.27      39.6  T
     SCC iter.                  ...        0 min,  0.010 sec
     gradient                   ...        0 min,  0.016 sec
 * total energy  :   -58.9630116 Eh     change       -0.2178935E-03 Eh
   gradient norm :     0.0055771 Eh/α   predicted    -0.1505299E-03 ( -30.92%)
   displ. norm   :     0.2886360 α      lambda       -0.2464820E-03
   maximum displ.:     0.2147323 α      in ANC's #1, #4, #2, ...

........................................................................
.............................. CYCLE    9 ..............................
........................................................................

 iter      E             dE          RMSdq      gap      omega  full diag
   1    -59.5651711 -0.595652E+02  0.648E-02    3.28       0.0  T
   2    -59.5651743 -0.324837E-05  0.382E-02    3.27       1.0  T
   3    -59.5651736  0.732515E-06  0.894E-03    3.28       2.0  T
   4    -59.5651751 -0.151020E-05  0.321E-03    3.28       5.6  T
   5    -59.5651752 -0.112979E-06  0.178E-03    3.27      10.1  T
   6    -59.5651752 -0.190376E-07  0.763E-04    3.28      23.5  T
   7    -59.5651752 -0.440929E-08  0.563E-04    3.28      31.9  T
     SCC iter.                  ...        0 min,  0.021 sec
     gradient                   ...        0 min,  0.016 sec
 * total energy  :   -58.9632069 Eh     change       -0.1953642E-03 Eh
   gradient norm :     0.0052654 Eh/α   predicted    -0.1335101E-03 ( -31.66%)
   displ. norm   :     0.2980371 α      lambda       -0.2182854E-03
   maximum displ.:     0.2253956 α      in ANC's #1, #4, #3, ...

........................................................................
.............................. CYCLE   10 ..............................
........................................................................

 iter      E             dE          RMSdq      gap      omega  full diag
   1    -59.5652332 -0.595652E+02  0.651E-02    3.28       0.0  T
   2    -59.5652364 -0.320714E-05  0.385E-02    3.28       1.0  T
   3    -59.5652345  0.191263E-05  0.105E-02    3.28       1.7  T
   4    -59.5652374 -0.288239E-05  0.333E-03    3.28       5.4  T
   5    -59.5652375 -0.116231E-06  0.186E-03    3.28       9.7  T
   6    -59.5652375 -0.161594E-07  0.793E-04    3.28      22.6  T
   7    -59.5652375 -0.418554E-08  0.587E-04    3.28      30.6  T
     SCC iter.                  ...        0 min,  0.010 sec
     gradient                   ...        0 min,  0.016 sec
 * total energy  :   -58.9633756 Eh     change       -0.1686672E-03 Eh
   gradient norm :     0.0047366 Eh/α   predicted    -0.1188378E-03 ( -29.54%)
   displ. norm   :     0.2708924 α      lambda       -0.1792808E-03
   maximum displ.:     0.2142598 α      in ANC's #1, #3, #4, ...

........................................................................
.............................. CYCLE   11 ..............................
........................................................................

 iter      E             dE          RMSdq      gap      omega  full diag
   1    -59.5657003 -0.595657E+02  0.573E-02    3.28       0.0  T
   2    -59.5657031 -0.279909E-05  0.339E-02    3.28       1.0  T
   3    -59.5656992  0.390540E-05  0.128E-02    3.28       1.4  T
   4    -59.5657044 -0.517921E-05  0.281E-03    3.28       6.4  T
   5    -59.5657044 -0.513373E-07  0.160E-03    3.28      11.2  T
   6    -59.5657045 -0.912023E-08  0.704E-04    3.28      25.5  T
   7    -59.5657045 -0.337005E-08  0.511E-04    3.28      35.1  T
     SCC iter.                  ...        0 min,  0.010 sec
     gradient                   ...        0 min,  0.017 sec
 * total energy  :   -58.9634912 Eh     change       -0.1156241E-03 Eh
   gradient norm :     0.0059638 Eh/α   predicted    -0.9622496E-04 ( -16.78%)
   displ. norm   :     0.2507967 α      lambda       -0.1466428E-03
   maximum displ.:     0.1940766 α      in ANC's #1, #3, #4, ...

........................................................................
.............................. CYCLE   12 ..............................
........................................................................

 iter      E             dE          RMSdq      gap      omega  full diag
   1    -59.5642178 -0.595642E+02  0.572E-02    3.28       0.0  T
   2    -59.5642197 -0.189651E-05  0.341E-02    3.28       1.0  T
   3    -59.5642178  0.187295E-05  0.902E-03    3.28       2.0  T
   4    -59.5642205 -0.271789E-05  0.274E-03    3.28       6.6  T
   5    -59.5642205 -0.316854E-07  0.153E-03    3.28      11.8  T
   6    -59.5642205 -0.128973E-07  0.722E-04    3.28      24.9  T
   7    -59.5642205 -0.384156E-08  0.526E-04    3.28      34.2  T
     SCC iter.                  ...        0 min,  0.010 sec
     gradient                   ...        0 min,  0.016 sec
 * total energy  :   -58.9635652 Eh     change       -0.7399658E-04 Eh
   gradient norm :     0.0055564 Eh/α   predicted    -0.7793383E-04 (   5.32%)
   displ. norm   :     0.1118819 α      lambda       -0.7717273E-04
   maximum displ.:     0.0933051 α      in ANC's #1, #3, #2, ...

........................................................................
.............................. CYCLE   13 ..............................
........................................................................

 iter      E             dE          RMSdq      gap      omega  full diag
   1    -59.5646224 -0.595646E+02  0.267E-02    3.28       0.0  T
   2    -59.5646229 -0.475830E-06  0.159E-02    3.28       1.1  T
   3    -59.5646225  0.348190E-06  0.420E-03    3.28       4.3  T
   4    -59.5646231 -0.519359E-06  0.132E-03    3.28      13.6  T
   5    -59.5646231 -0.144185E-07  0.804E-04    3.28      22.3  T
   6    -59.5646231 -0.364307E-08  0.407E-04    3.28      44.1  T
     SCC iter.                  ...        0 min,  0.009 sec
     gradient                   ...        0 min,  0.016 sec
 * total energy  :   -58.9636266 Eh     change       -0.6136518E-04 Eh
   gradient norm :     0.0030156 Eh/α   predicted    -0.3907240E-04 ( -36.33%)
   displ. norm   :     0.1262549 α      lambda       -0.8657169E-04
   maximum displ.:     0.0934959 α      in ANC's #1, #3, #4, ...

........................................................................
.............................. CYCLE   14 ..............................
........................................................................

 iter      E             dE          RMSdq      gap      omega  full diag
   1    -59.5655795 -0.595656E+02  0.327E-02    3.27       0.0  T
   2    -59.5655805 -0.921789E-06  0.194E-02    3.27       1.0  T
   3    -59.5655802  0.282155E-06  0.486E-03    3.27       3.7  T
   4    -59.5655807 -0.484883E-06  0.149E-03    3.27      12.0  T
   5    -59.5655807 -0.215958E-07  0.877E-04    3.27      20.5  T
   6    -59.5655807 -0.298633E-08  0.416E-04    3.27      43.2  T
     SCC iter.                  ...        0 min,  0.036 sec
     gradient                   ...        0 min,  0.016 sec
 * total energy  :   -58.9636867 Eh     change       -0.6013319E-04 Eh
   gradient norm :     0.0032242 Eh/α   predicted    -0.4398079E-04 ( -26.86%)
   displ. norm   :     0.1346799 α      lambda       -0.5257121E-04
   maximum displ.:     0.1073610 α      in ANC's #1, #3, #6, ...

........................................................................
.............................. CYCLE   15 ..............................
........................................................................

 iter      E             dE          RMSdq      gap      omega  full diag
   1    -59.5649875 -0.595650E+02  0.354E-02    3.27       0.0  T
   2    -59.5649882 -0.710705E-06  0.210E-02    3.27       1.0  T
   3    -59.5649880  0.194539E-06  0.414E-03    3.27       4.3  T
   4    -59.5649884 -0.397880E-06  0.163E-03    3.27      11.0  T
   5    -59.5649885 -0.197456E-07  0.962E-04    3.27      18.7  T
   6    -59.5649885 -0.429157E-08  0.481E-04    3.27      37.4  T
     SCC iter.                  ...        0 min,  0.009 sec
     gradient                   ...        0 min,  0.016 sec
 * total energy  :   -58.9637214 Eh     change       -0.3468257E-04 Eh
   gradient norm :     0.0038147 Eh/α   predicted    -0.2676447E-04 ( -22.83%)
   displ. norm   :     0.1257443 α      lambda       -0.4029695E-04
   maximum displ.:     0.0966991 α      in ANC's #1, #3, #4, ...

........................................................................
.............................. CYCLE   16 ..............................
........................................................................

 iter      E             dE          RMSdq      gap      omega  full diag
   1    -59.5653108 -0.595653E+02  0.302E-02    3.27       0.0  T
   2    -59.5653115 -0.649105E-06  0.178E-02    3.27       1.0  T
   3    -59.5653111  0.354046E-06  0.445E-03    3.27       4.0  T
   4    -59.5653116 -0.514216E-06  0.133E-03    3.27      13.5  T
   5    -59.5653116 -0.224909E-07  0.820E-04    3.27      21.9  T
   6    -59.5653116 -0.370095E-08  0.449E-04    3.27      40.0  T
     SCC iter.                  ...        0 min,  0.009 sec
     gradient                   ...        0 min,  0.037 sec
 * total energy  :   -58.9637477 Eh     change       -0.2634670E-04 Eh
   gradient norm :     0.0026886 Eh/α   predicted    -0.2046928E-04 ( -22.31%)
   displ. norm   :     0.1270721 α      lambda        0.9592397E-05
   maximum displ.:     0.0977681 α      in ANC's #1, #3, #4, ...

........................................................................
.............................. CYCLE   17 ..............................
........................................................................

 iter      E             dE          RMSdq      gap      omega  full diag
   1    -59.5654527 -0.595655E+02  0.306E-02    3.27       0.0  T
   2    -59.5654535 -0.817221E-06  0.180E-02    3.27       1.0  T
   3    -59.5654530  0.489694E-06  0.520E-03    3.27       3.5  T
   4    -59.5654537 -0.685578E-06  0.141E-03    3.27      12.7  T
   5    -59.5654537 -0.314001E-07  0.836E-04    3.27      21.5  T
   6    -59.5654537 -0.348292E-08  0.463E-04    3.27      38.8  T
     SCC iter.                  ...        0 min,  0.009 sec
     gradient                   ...        0 min,  0.017 sec
 * total energy  :   -58.9637458 Eh     change        0.1997831E-05 Eh
   gradient norm :     0.0047965 Eh/α   predicted     0.4872183E-05 ( 143.87%)
   displ. norm   :     0.0293872 α      lambda       -0.3255258E-04
   maximum displ.:     0.0185155 α      in ANC's #4, #11, #5, ...

........................................................................
.............................. CYCLE   18 ..............................
........................................................................

 iter      E             dE          RMSdq      gap      omega  full diag
   1    -59.5652029 -0.595652E+02  0.111E-02    3.27       0.0  T
   2    -59.5652033 -0.333912E-06  0.641E-03    3.27       2.8  T
   3    -59.5652032  0.347347E-07  0.273E-03    3.27       6.6  T
   4    -59.5652033 -0.927757E-07  0.675E-04    3.27      26.6  T
   5    -59.5652033 -0.795338E-08  0.291E-04    3.27      61.6  T
     SCC iter.                  ...        0 min,  0.007 sec
     gradient                   ...        0 min,  0.016 sec
 * total energy  :   -58.9637673 Eh     change       -0.2151040E-04 Eh
   gradient norm :     0.0014257 Eh/α   predicted    -0.1629532E-04 ( -24.24%)
   displ. norm   :     0.0608718 α      lambda       -0.1288163E-04
   maximum displ.:     0.0499382 α      in ANC's #1, #4, #6, ...

........................................................................
.............................. CYCLE   19 ..............................
........................................................................

 iter      E             dE          RMSdq      gap      omega  full diag
   1    -59.5651119 -0.595651E+02  0.164E-02    3.27       0.0  T
   2    -59.5651122 -0.248700E-06  0.968E-03    3.27       1.9  T
   3    -59.5651120  0.197251E-06  0.322E-03    3.27       5.6  T
   4    -59.5651122 -0.265204E-06  0.761E-04    3.27      23.6  T
   5    -59.5651123 -0.969969E-08  0.383E-04    3.27      46.9  T
     SCC iter.                  ...        0 min,  0.007 sec
     gradient                   ...        0 min,  0.016 sec
 * total energy  :   -58.9637779 Eh     change       -0.1061212E-04 Eh
   gradient norm :     0.0018702 Eh/α   predicted    -0.6454458E-05 ( -39.18%)
   displ. norm   :     0.0341739 α      lambda       -0.5212286E-05
   maximum displ.:     0.0303518 α      in ANC's #1, #6, #11, ...

........................................................................
.............................. CYCLE   20 ..............................
........................................................................

 iter      E             dE          RMSdq      gap      omega  full diag
   1    -59.5653588 -0.595654E+02  0.790E-03    3.27       0.0  T
   2    -59.5653589 -0.582683E-07  0.459E-03    3.27       3.9  T
   3    -59.5653588  0.709357E-07  0.180E-03    3.27      10.0  T
   4    -59.5653589 -0.943439E-07  0.302E-04    3.27      59.5  T
   5    -59.5653589 -0.147516E-08  0.154E-04    3.27     116.4  T
     SCC iter.                  ...        0 min,  0.007 sec
     gradient                   ...        0 min,  0.016 sec
 * total energy  :   -58.9637844 Eh     change       -0.6480138E-05 Eh
   gradient norm :     0.0012570 Eh/α   predicted    -0.2612296E-05 ( -59.69%)
   displ. norm   :     0.0595355 α      lambda       -0.9550479E-05
   maximum displ.:     0.0482505 α      in ANC's #1, #2, #4, ...
 * RMSD in coord.:     0.5176495 α      energy gain  -0.1539574E-01 Eh

generating ANC from exact Hessian ...
Using Lindh-Hessian (1995)
 Shifting diagonal of input Hessian by    9.0890978910078152E-003
 Lowest  eigenvalues of input Hessian
    0.000000    0.000000    0.000000    0.000000    0.000000    0.000000
    0.010000    0.010117    0.010862    0.012969    0.014248    0.016851
    0.018587    0.020205    0.021892    0.025541    0.026432    0.031401
 Highest eigenvalues
    1.937371    2.017559    2.144672    2.195629    2.321423    2.343798


........................................................................
.............................. CYCLE   21 ..............................
........................................................................

 iter      E             dE          RMSdq      gap      omega  full diag
   1    -59.5655005 -0.595655E+02  0.143E-02    3.27       0.0  T
   2    -59.5655007 -0.164439E-06  0.834E-03    3.27       2.2  T
   3    -59.5655005  0.192220E-06  0.283E-03    3.27       6.3  T
   4    -59.5655007 -0.261449E-06  0.573E-04    3.27      31.4  T
   5    -59.5655007 -0.226389E-08  0.339E-04    3.27      53.0  T
     SCC iter.                  ...        0 min,  0.007 sec
     gradient                   ...        0 min,  0.016 sec
 * total energy  :   -58.9637951 Eh     change       -0.1073825E-04 Eh
   gradient norm :     0.0012799 Eh/α   predicted     0.0000000E+00 (-100.00%)
   displ. norm   :     0.0267253 α      lambda       -0.6632039E-05
   maximum displ.:     0.0219394 α      in ANC's #1, #2, #13, ...

........................................................................
.............................. CYCLE   22 ..............................
........................................................................

 iter      E             dE          RMSdq      gap      omega  full diag
   1    -59.5651908 -0.595652E+02  0.748E-03    3.27       0.0  T
   2    -59.5651908 -0.508793E-07  0.434E-03    3.27       4.1  T
   3    -59.5651908  0.686350E-07  0.176E-03    3.27      10.2  T
   4    -59.5651908 -0.962205E-07  0.395E-04    3.27      45.4  T
   5    -59.5651909 -0.702606E-09  0.259E-04    3.27      69.4  T
     SCC iter.                  ...        0 min,  0.007 sec
     gradient                   ...        0 min,  0.025 sec
 * total energy  :   -58.9638028 Eh     change       -0.7713314E-05 Eh
   gradient norm :     0.0005595 Eh/α   predicted    -0.3342555E-05 ( -56.67%)
   displ. norm   :     0.0523028 α      lambda       -0.8231156E-05
   maximum displ.:     0.0410954 α      in ANC's #1, #2, #3, ...

........................................................................
.............................. CYCLE   23 ..............................
........................................................................

 iter      E             dE          RMSdq      gap      omega  full diag
   1    -59.5650723 -0.595651E+02  0.150E-02    3.27       0.0  T
   2    -59.5650724 -0.172512E-06  0.874E-03    3.27       2.1  T
   3    -59.5650722  0.218001E-06  0.313E-03    3.27       5.7  T
   4    -59.5650725 -0.301109E-06  0.712E-04    3.27      25.2  T
   5    -59.5650725 -0.249186E-08  0.436E-04    3.27      41.2  T
     SCC iter.                  ...        0 min,  0.007 sec
     gradient                   ...        0 min,  0.016 sec
 * total energy  :   -58.9638125 Eh     change       -0.9691527E-05 Eh
   gradient norm :     0.0011125 Eh/α   predicted    -0.4122538E-05 ( -57.46%)
   displ. norm   :     0.0690401 α      lambda       -0.8341952E-05
   maximum displ.:     0.0532010 α      in ANC's #1, #2, #3, ...

........................................................................
.............................. CYCLE   24 ..............................
........................................................................

 iter      E             dE          RMSdq      gap      omega  full diag
   1    -59.5651599 -0.595652E+02  0.192E-02    3.27       0.0  T
   2    -59.5651602 -0.233269E-06  0.112E-02    3.27       1.6  T
   3    -59.5651599  0.231423E-06  0.350E-03    3.27       5.1  T
   4    -59.5651603 -0.343758E-06  0.968E-04    3.27      18.6  T
   5    -59.5651603 -0.343766E-08  0.606E-04    3.27      29.6  T
     SCC iter.                  ...        0 min,  0.007 sec
     gradient                   ...        0 min,  0.016 sec
 * total energy  :   -58.9638228 Eh     change       -0.1034965E-04 Eh
   gradient norm :     0.0012839 Eh/α   predicted    -0.4191409E-05 ( -59.50%)
   displ. norm   :     0.0949601 α      lambda       -0.1030582E-04
   maximum displ.:     0.0712660 α      in ANC's #1, #2, #3, ...

........................................................................
.............................. CYCLE   25 ..............................
........................................................................

 iter      E             dE          RMSdq      gap      omega  full diag
   1    -59.5652777 -0.595653E+02  0.262E-02    3.28       0.0  T
   2    -59.5652781 -0.330246E-06  0.153E-02    3.28       1.2  T
   3    -59.5652778  0.260112E-06  0.403E-03    3.28       4.5  T
   4    -59.5652782 -0.420132E-06  0.122E-03    3.28      14.7  T
   5    -59.5652782 -0.356940E-08  0.698E-04    3.28      25.7  T
   6    -59.5652782 -0.391263E-08  0.397E-04    3.28      45.2  T
     SCC iter.                  ...        0 min,  0.033 sec
     gradient                   ...        0 min,  0.016 sec
 * total energy  :   -58.9638363 Eh     change       -0.1342843E-04 Eh
   gradient norm :     0.0012195 Eh/α   predicted    -0.5199899E-05 ( -61.28%)
   displ. norm   :     0.1545241 α      lambda       -0.1543161E-04
   maximum displ.:     0.1131414 α      in ANC's #1, #2, #3, ...

........................................................................
.............................. CYCLE   26 ..............................
........................................................................

 iter      E             dE          RMSdq      gap      omega  full diag
   1    -59.5654040 -0.595654E+02  0.407E-02    3.28       0.0  T
   2    -59.5654047 -0.720432E-06  0.236E-02    3.28       1.0  T
   3    -59.5654043  0.394675E-06  0.554E-03    3.28       3.2  T
   4    -59.5654051 -0.746401E-06  0.191E-03    3.28       9.4  T
   5    -59.5654051 -0.761020E-08  0.102E-03    3.28      17.6  T
   6    -59.5654051 -0.900926E-08  0.626E-04    3.28      28.7  T
   7    -59.5654051 -0.259927E-08  0.453E-04    3.28      39.6  T
     SCC iter.                  ...        0 min,  0.010 sec
     gradient                   ...        0 min,  0.016 sec
 * total energy  :   -58.9638558 Eh     change       -0.1953506E-04 Eh
   gradient norm :     0.0010503 Eh/α   predicted    -0.7798184E-05 ( -60.08%)
   displ. norm   :     0.2176253 α      lambda       -0.1779516E-04
   maximum displ.:     0.1566598 α      in ANC's #1, #2, #3, ...

........................................................................
.............................. CYCLE   27 ..............................
........................................................................

 iter      E             dE          RMSdq      gap      omega  full diag
   1    -59.5653259 -0.595653E+02  0.553E-02    3.28       0.0  T
   2    -59.5653272 -0.128792E-05  0.321E-02    3.28       1.0  T
   3    -59.5653266  0.598861E-06  0.687E-03    3.28       2.6  T
   4    -59.5653278 -0.120403E-05  0.244E-03    3.28       7.4  T
   5    -59.5653278 -0.128893E-07  0.118E-03    3.28      15.2  T
   6    -59.5653278 -0.107879E-07  0.751E-04    3.28      23.9  T
   7    -59.5653278 -0.331082E-08  0.538E-04    3.28      33.4  T
     SCC iter.                  ...        0 min,  0.010 sec
     gradient                   ...        0 min,  0.040 sec
 * total energy  :   -58.9638771 Eh     change       -0.2126810E-04 Eh
   gradient norm :     0.0011542 Eh/α   predicted    -0.9085292E-05 ( -57.28%)
   displ. norm   :     0.2148070 α      lambda       -0.1384719E-04
   maximum displ.:     0.1522624 α      in ANC's #1, #2, #3, ...

........................................................................
.............................. CYCLE   28 ..............................
........................................................................

 iter      E             dE          RMSdq      gap      omega  full diag
   1    -59.5653577 -0.595654E+02  0.524E-02    3.27       0.0  T
   2    -59.5653591 -0.134433E-05  0.304E-02    3.28       1.0  T
   3    -59.5653582  0.932011E-06  0.725E-03    3.27       2.5  T
   4    -59.5653597 -0.153875E-05  0.231E-03    3.28       7.8  T
   5    -59.5653597 -0.135111E-07  0.129E-03    3.28      13.9  T
   6    -59.5653597 -0.123030E-07  0.748E-04    3.28      24.0  T
   7    -59.5653597 -0.353175E-08  0.558E-04    3.28      32.2  T
     SCC iter.                  ...        0 min,  0.010 sec
     gradient                   ...        0 min,  0.016 sec
 * total energy  :   -58.9638927 Eh     change       -0.1565129E-04 Eh
   gradient norm :     0.0009194 Eh/α   predicted    -0.7065980E-05 ( -54.85%)
   displ. norm   :     0.1547230 α      lambda       -0.8196443E-05
   maximum displ.:     0.1070518 α      in ANC's #1, #2, #3, ...

........................................................................
.............................. CYCLE   29 ..............................
........................................................................

 iter      E             dE          RMSdq      gap      omega  full diag
   1    -59.5656359 -0.595656E+02  0.365E-02    3.27       0.0  T
   2    -59.5656367 -0.755484E-06  0.211E-02    3.27       1.0  T
   3    -59.5656359  0.722623E-06  0.581E-03    3.27       3.1  T
   4    -59.5656370 -0.105747E-05  0.160E-03    3.27      11.2  T
   5    -59.5656370 -0.869561E-08  0.101E-03    3.27      17.8  T
   6    -59.5656370 -0.711368E-08  0.567E-04    3.27      31.7  T
   7    -59.5656370 -0.255751E-08  0.423E-04    3.27      42.4  T
     SCC iter.                  ...        0 min,  0.010 sec
     gradient                   ...        0 min,  0.038 sec
 * total energy  :   -58.9639022 Eh     change       -0.9509490E-05 Eh
   gradient norm :     0.0006985 Eh/α   predicted    -0.4142979E-05 ( -56.43%)
   displ. norm   :     0.1268165 α      lambda       -0.6440477E-05
   maximum displ.:     0.0843514 α      in ANC's #1, #2, #3, ...

........................................................................
.............................. CYCLE   30 ..............................
........................................................................

 iter      E             dE          RMSdq      gap      omega  full diag
   1    -59.5657852 -0.595658E+02  0.298E-02    3.27       0.0  T
   2    -59.5657856 -0.438957E-06  0.173E-02    3.27       1.0  T
   3    -59.5657851  0.471403E-06  0.466E-03    3.27       3.9  T
   4    -59.5657858 -0.674391E-06  0.120E-03    3.27      15.0  T
   5    -59.5657858 -0.397112E-08  0.739E-04    3.27      24.3  T
   6    -59.5657858 -0.397803E-08  0.425E-04    3.27      42.2  T
     SCC iter.                  ...        0 min,  0.009 sec
     gradient                   ...        0 min,  0.017 sec
 * total energy  :   -58.9639103 Eh     change       -0.8055502E-05 Eh
   gradient norm :     0.0007867 Eh/α   predicted    -0.3248006E-05 ( -59.68%)
   displ. norm   :     0.1343944 α      lambda       -0.8196597E-05
   maximum displ.:     0.0831580 α      in ANC's #1, #2, #3, ...

........................................................................
.............................. CYCLE   31 ..............................
........................................................................

 iter      E             dE          RMSdq      gap      omega  full diag
   1    -59.5659703 -0.595660E+02  0.317E-02    3.27       0.0  T
   2    -59.5659707 -0.415237E-06  0.184E-02    3.27       1.0  T
   3    -59.5659703  0.440790E-06  0.462E-03    3.27       3.9  T
   4    -59.5659709 -0.642751E-06  0.129E-03    3.27      14.0  T
   5    -59.5659709 -0.482772E-08  0.767E-04    3.27      23.4  T
   6    -59.5659709 -0.460747E-08  0.481E-04    3.27      37.4  T
     SCC iter.                  ...        0 min,  0.009 sec
     gradient                   ...        0 min,  0.017 sec
 * total energy  :   -58.9639204 Eh     change       -0.1011092E-04 Eh
   gradient norm :     0.0013129 Eh/α   predicted    -0.4135637E-05 ( -59.10%)
   displ. norm   :     0.1693689 α      lambda       -0.9972799E-05
   maximum displ.:     0.1058669 α      in ANC's #2, #1, #3, ...

........................................................................
.............................. CYCLE   32 ..............................
........................................................................

 iter      E             dE          RMSdq      gap      omega  full diag
   1    -59.5656722 -0.595657E+02  0.415E-02    3.27       0.0  T
   2    -59.5656728 -0.600245E-06  0.242E-02    3.27       1.0  T
   3    -59.5656723  0.523824E-06  0.538E-03    3.27       3.3  T
   4    -59.5656731 -0.802410E-06  0.147E-03    3.27      12.2  T
   5    -59.5656731 -0.481664E-08  0.784E-04    3.27      22.9  T
   6    -59.5656731 -0.455272E-08  0.472E-04    3.27      38.1  T
     SCC iter.                  ...        0 min,  0.009 sec
     gradient                   ...        0 min,  0.031 sec
 * total energy  :   -58.9639319 Eh     change       -0.1151341E-04 Eh
   gradient norm :     0.0008987 Eh/α   predicted    -0.5050536E-05 ( -56.13%)
   displ. norm   :     0.1358787 α      lambda       -0.8574413E-05
   maximum displ.:     0.0920555 α      in ANC's #2, #1, #3, ...

........................................................................
.............................. CYCLE   33 ..............................
........................................................................

 iter      E             dE          RMSdq      gap      omega  full diag
   1    -59.5659382 -0.595659E+02  0.354E-02    3.27       0.0  T
   2    -59.5659386 -0.483628E-06  0.207E-02    3.27       1.0  T
   3    -59.5659382  0.403776E-06  0.489E-03    3.27       3.7  T
   4    -59.5659389 -0.632084E-06  0.133E-03    3.27      13.5  T
   5    -59.5659389 -0.187564E-08  0.624E-04    3.27      28.8  T
   6    -59.5659389 -0.388894E-08  0.358E-04    3.27      50.2  T
     SCC iter.                  ...        0 min,  0.009 sec
     gradient                   ...        0 min,  0.016 sec
 * total energy  :   -58.9639408 Eh     change       -0.8848144E-05 Eh
   gradient norm :     0.0019236 Eh/α   predicted    -0.4322843E-05 ( -51.14%)
   displ. norm   :     0.0982881 α      lambda       -0.6040680E-05
   maximum displ.:     0.0696753 α      in ANC's #2, #1, #3, ...

........................................................................
.............................. CYCLE   34 ..............................
........................................................................

 iter      E             dE          RMSdq      gap      omega  full diag
   1    -59.5658207 -0.595658E+02  0.256E-02    3.27       0.0  T
   2    -59.5658210 -0.246819E-06  0.149E-02    3.27       1.2  T
   3    -59.5658208  0.146460E-06  0.317E-03    3.27       5.7  T
   4    -59.5658211 -0.255654E-06  0.942E-04    3.27      19.1  T
   5    -59.5658211 -0.130809E-08  0.453E-04    3.27      39.7  T
     SCC iter.                  ...        0 min,  0.007 sec
     gradient                   ...        0 min,  0.017 sec
 * total energy  :   -58.9639478 Eh     change       -0.6997677E-05 Eh
   gradient norm :     0.0011117 Eh/α   predicted    -0.3034425E-05 ( -56.64%)
   displ. norm   :     0.0624966 α      lambda       -0.5629781E-05
   maximum displ.:     0.0509617 α      in ANC's #2, #3, #1, ...

........................................................................
.............................. CYCLE   35 ..............................
........................................................................

 iter      E             dE          RMSdq      gap      omega  full diag
   1    -59.5660515 -0.595661E+02  0.179E-02    3.27       0.0  T
   2    -59.5660517 -0.200116E-06  0.104E-02    3.27       1.7  T
   3    -59.5660516  0.697338E-07  0.247E-03    3.27       7.3  T
   4    -59.5660518 -0.149735E-06  0.795E-04    3.27      22.6  T
   5    -59.5660518 -0.609887E-09  0.343E-04    3.27      52.3  T
     SCC iter.                  ...        0 min,  0.007 sec
     gradient                   ...        0 min,  0.017 sec
 * total energy  :   -58.9639546 Eh     change       -0.6854022E-05 Eh
   gradient norm :     0.0006193 Eh/α   predicted    -0.2820386E-05 ( -58.85%)
   displ. norm   :     0.0782540 α      lambda       -0.6698676E-05
   maximum displ.:     0.0653584 α      in ANC's #2, #3, #8, ...

........................................................................
.............................. CYCLE   36 ..............................
........................................................................

 iter      E             dE          RMSdq      gap      omega  full diag
   1    -59.5659466 -0.595659E+02  0.226E-02    3.27       0.0  T
   2    -59.5659470 -0.319675E-06  0.129E-02    3.27       1.4  T
   3    -59.5659469  0.393627E-07  0.282E-03    3.27       6.4  T
   4    -59.5659471 -0.177579E-06  0.104E-03    3.27      17.3  T
   5    -59.5659471 -0.465505E-09  0.332E-04    3.27      54.0  T
   6    -59.5659471 -0.123699E-08  0.103E-04    3.27     174.7  T
     SCC iter.                  ...        0 min,  0.009 sec
     gradient                   ...        0 min,  0.016 sec
 * total energy  :   -58.9639621 Eh     change       -0.7492338E-05 Eh
   gradient norm :     0.0007275 Eh/α   predicted    -0.3361444E-05 ( -55.13%)
   displ. norm   :     0.0601643 α      lambda       -0.4389317E-05
   maximum displ.:     0.0492336 α      in ANC's #2, #3, #8, ...

........................................................................
.............................. CYCLE   37 ..............................
........................................................................

 iter      E             dE          RMSdq      gap      omega  full diag
   1    -59.5658680 -0.595659E+02  0.182E-02    3.27       0.0  T
   2    -59.5658682 -0.211846E-06  0.103E-02    3.27       1.7  T
   3    -59.5658682  0.501174E-09  0.194E-03    3.27       9.3  T
   4    -59.5658683 -0.911727E-07  0.822E-04    3.27      21.9  T
   5    -59.5658683 -0.105920E-08  0.235E-04    3.27      76.4  T
     SCC iter.                  ...        0 min,  0.007 sec
     gradient                   ...        0 min,  0.036 sec
 * total energy  :   -58.9639668 Eh     change       -0.4706891E-05 Eh
   gradient norm :     0.0010213 Eh/α   predicted    -0.2201630E-05 ( -53.23%)
   displ. norm   :     0.0434159 α      lambda       -0.3135838E-05
   maximum displ.:     0.0336057 α      in ANC's #2, #5, #8, ...

........................................................................
.............................. CYCLE   38 ..............................
........................................................................

 iter      E             dE          RMSdq      gap      omega  full diag
   1    -59.5657937 -0.595658E+02  0.133E-02    3.27       0.0  T
   2    -59.5657938 -0.126986E-06  0.752E-03    3.27       2.4  T
   3    -59.5657938  0.612120E-07  0.187E-03    3.27       9.6  T
   4    -59.5657939 -0.115248E-06  0.562E-04    3.27      31.9  T
   5    -59.5657939 -0.532914E-09  0.278E-04    3.27      64.7  T
     SCC iter.                  ...        0 min,  0.007 sec
     gradient                   ...        0 min,  0.016 sec
 * total energy  :   -58.9639702 Eh     change       -0.3402712E-05 Eh
   gradient norm :     0.0008243 Eh/α   predicted    -0.1570356E-05 ( -53.85%)
   displ. norm   :     0.0336008 α      lambda       -0.2216311E-05
   maximum displ.:     0.0259345 α      in ANC's #2, #5, #8, ...

   *** GEOMETRY OPTIMIZATION CONVERGED AFTER 38 ITERATIONS ***

------------------------------------------------------------------------
 total energy gain   :        -0.0155816 Eh       -9.7776 kcal/mol
 total RMSD          :         0.6649194 a0        0.3519 Å
 total power (kW/mol):        -1.0765656 (step)  -27.5439 (real)
------------------------------------------------------------------------

 ANCopt (total)                0 d,  0 h,  0 min,  1.485 sec
 optimizer setup                ...        0 min,  0.000 sec (  0.005%)
 model hessian                  ...        0 min,  0.025 sec (  1.701%)
 ANC generation                 ...        0 min,  0.002 sec (  0.113%)
 coordinate transformation      ...        0 min,  0.000 sec (  0.012%)
 single point calculation       ...        0 min,  1.448 sec ( 97.510%)
 optimization log               ...        0 min,  0.005 sec (  0.322%)
 hessian update                 ...        0 min,  0.000 sec (  0.022%)
 rational function              ...        0 min,  0.002 sec (  0.143%)

================
 final structure:
================
31
 xtb: 6.7.1 (edcfbbe)
N            4.05137594773755       -1.15435464993520        1.49023594420968
C            3.10530450059679       -0.90448496522533        0.57388398325503
N            3.06597145805066       -1.66220849107360       -0.52624370646310
C            2.13378908145176       -1.41591767582021       -1.42462928044045
Cl           2.16399072264140       -2.43086550932600       -2.79821611358215
N            1.18717822913306       -0.50471211767563       -1.42224432177522
C            1.20329838974745        0.25052551619636       -0.31892337346970
C            2.14528486643857        0.11135539328828        0.71722986304059
N            1.89753655171965        1.04044186502285        1.69470331325094
C            0.86791508052687        1.69905662443255        1.26641820936407
N            0.39912734062853        1.28786183072323        0.04557128614608
C           -0.81566463131454        1.81187701870943       -0.55867584498926
C           -1.19903937540043        1.06701389095236       -1.82940880279413
C           -1.96399400802180       -0.14121404623194       -1.26370263570404
C           -2.51913842648884        0.38977847068344        0.07357200476554
O           -1.89830723472770        1.64753147072147        0.31562152292386
C           -2.29942691926390       -0.57709874980543        1.24034718736523
O           -0.94439229412070       -0.96918568602446        1.28973781753569
O           -3.03400487826237       -0.56840135919103       -2.06629989724529
H            4.72769157904818       -1.87580240183605        1.31428880402264
H            4.10859795423242       -0.57189040855274        2.30540855440764
H            0.39626953856584        2.50050480828367        1.80006093043286
H           -0.67787783703080        2.89223428656540       -0.69877454002131
H           -0.33796778535679        0.77722185384867       -2.42363558305823
H           -1.88406626045665        1.68214076214351       -2.41443660905829
H           -1.26464687572895       -0.96409456844034       -1.07202156494886
H           -3.59608309314553        0.56818320884631       -0.02813567866598
H           -2.58913207931362       -0.06645194405378        2.16725095377436
H           -2.94947607635979       -1.44956155438185        1.08915737940351
H           -0.80577720975123       -1.51466049190473        2.07073024236890
H           -2.67443625577922       -0.95492238094000       -2.87227004404699

 Bond Distances (Angstroems)
 ---------------------------
N1-C2=1.3406         N1-H20=1.0044        N1-H21=1.0035        C2-N1=1.3406         C2-N3=1.3364         C2-C8=1.4050         
N3-C2=1.3364         N3-C4=1.3178         C4-N3=1.3178         C4-Cl5=1.7081        C4-N6=1.3139         Cl5-C4=1.7081        
N6-C4=1.3139         N6-C7=1.3371         C7-N6=1.3371         C7-C8=1.4072         C7-N11=1.3622        C8-C2=1.4050         
C8-C7=1.4072         C8-N9=1.3711         N9-C8=1.3711         N9-C10=1.2951        C10-N9=1.2951        C10-N11=1.3709       
C10-H22=1.0722       N11-C7=1.3622        N11-C10=1.3709       N11-C12=1.4545       C12-N11=1.4545       C12-C13=1.5220       
C12-O16=1.4013       C12-H23=1.0981       C13-C12=1.5220       C13-C14=1.5379       C13-H24=1.0856       C13-H25=1.0908       
C14-C13=1.5379       C14-C15=1.5422       C14-O19=1.4041       C14-H26=1.0968       C15-C14=1.5422       C15-O16=1.4234       
C15-C17=1.5312       C15-H27=1.0963       O16-C12=1.4013       O16-C15=1.4234       C17-C15=1.5312       C17-O18=1.4115       
C17-H28=1.0972       C17-H29=1.0985       O18-C17=1.4115       O18-H30=0.9627       O19-C14=1.4041       O19-H31=0.9635       
H20-N1=1.0044        H21-N1=1.0035        H22-C10=1.0722       H23-C12=1.0981       H24-C13=1.0856       H25-C13=1.0908       
H26-C14=1.0968       H27-C15=1.0963       H28-C17=1.0972       H29-C17=1.0985       H30-O18=0.9627       H31-O19=0.9635       
 C  H  Rav=1.0919 sigma=0.0085  Rmin=1.0722  Rmax=1.0985     8
 C  C  Rav=1.4909 sigma=0.0603  Rmin=1.4050  Rmax=1.5422     6
 N  H  Rav=1.0040 sigma=0.0004  Rmin=1.0035  Rmax=1.0044     2
 N  C  Rav=1.3500 sigma=0.0421  Rmin=1.2951  Rmax=1.4545    10
 O  H  Rav=0.9631 sigma=0.0004  Rmin=0.9627  Rmax=0.9635     2
 O  C  Rav=1.4101 sigma=0.0085  Rmin=1.4013  Rmax=1.4234     4
 Cl C  Rav=1.7081 sigma=0.0000  Rmin=1.7081  Rmax=1.7081     1

 selected bond angles (degree)
 --------------------
H20-N1-C2=119.30               H21-N1-C2=119.16               H21-N1-H20=121.39              N3-C2-N1=118.54                
C8-C2-N1=123.18                C8-C2-N3=118.28                C4-N3-C2=118.43                Cl5-C4-N3=115.13               
N6-C4-N3=129.64                N6-C4-Cl5=115.23               C7-N6-C4=112.61                C8-C7-N6=124.04                
N11-C7-N6=130.07               N11-C7-C8=105.87               C7-C8-C2=116.98                N9-C8-C2=133.32                
N9-C8-C7=109.69                C10-N9-C8=104.62               N11-C10-N9=114.45              H22-C10-N9=124.42              
H22-C10-N11=121.13             

 selected dihedral angles (degree)
 ---------------------------------
N3-C2-N1-H20=  2.43           N3-C2-N1-H21=177.99           C8-C2-N1-H20=182.00           C8-C2-N1-H21=357.56           
C4-N3-C2-N1=179.90            C4-N3-C2-C8=  0.31            Cl5-C4-N3-C2=179.83           N6-C4-N3-C2=  0.00            
C7-N6-C4-N3=359.21            C7-N6-C4-Cl5=179.37           C8-C7-N6-C4=  1.33            N11-C7-N6-C4=179.64           
C7-C8-C2-N1=180.64            C7-C8-C2-N3=  0.21            N9-C8-C2-N1=359.96            N9-C8-C2-N3=179.53            
C2-C8-C7-N6=358.89            C2-C8-C7-N11=180.23           N9-C8-C7-N6=179.41            N9-C8-C7-N11=  0.76           
C10-N9-C8-C2=180.53           C10-N9-C8-C7=359.89           N11-C10-N9-C8=359.39          H22-C10-N9-C8=179.13          
           -------------------------------------------------
          |                Final Singlepoint                |
           -------------------------------------------------

          ...................................................
          :                      SETUP                      :
          :.................................................:
          :  # basis functions                  94          :
          :  # atomic orbitals                  93          :
          :  # shells                           51          :
          :  # electrons                       102          :
          :  max. iterations                   250          :
          :  Hamiltonian                  GFN2-xTB          :
          :  restarted?                      false          :
          :  GBSA solvation                  false          :
          :  PC potential                    false          :
          :  electronic temp.          300.0000000     K    :
          :  accuracy                    1.0000000          :
          :  -> integral cutoff          0.2500000E+02      :
          :  -> integral neglect         0.1000000E-07      :
          :  -> SCF convergence          0.1000000E-05 Eh   :
          :  -> wf. convergence          0.1000000E-03 e    :
          :  Broyden damping             0.4000000          :
          :  net charge                          0          :
          :  unpaired electrons                  0          :
          ...................................................

 iter      E             dE          RMSdq      gap      omega  full diag
   1    -59.5657939 -0.595658E+02  0.662E-05    3.27       0.0  T
   2    -59.5657939 -0.595080E-10  0.456E-05    3.27     394.1  T
   3    -59.5657939 -0.426823E-10  0.274E-05    3.27     655.1  T

   *** convergence criteria satisfied after 3 iterations ***

         #    Occupation            Energy/Eh            Energy/eV
      -------------------------------------------------------------
         1        2.0000           -1.0509199             -28.5970
       ...           ...                  ...                  ...
        45        2.0000           -0.4247641             -11.5584
        46        2.0000           -0.4199740             -11.4281
        47        2.0000           -0.4168683             -11.3436
        48        2.0000           -0.4152256             -11.2989
        49        2.0000           -0.4000285             -10.8853
        50        2.0000           -0.3867840             -10.5249
        51        2.0000           -0.3759683             -10.2306 (HOMO)
        52                         -0.2556898              -6.9577 (LUMO)
        53                         -0.2330152              -6.3407
        54                         -0.1992016              -5.4206
        55                         -0.1343179              -3.6550
        56                         -0.1043576              -2.8397
       ...                                ...                  ...
        93                          0.6550163              17.8239
      -------------------------------------------------------------
                  HL-Gap            0.1202785 Eh            3.2729 eV
             Fermi-level           -0.3158290 Eh           -8.5941 eV

 SCC (total)                   0 d,  0 h,  0 min,  0.027 sec
 SCC setup                      ...        0 min,  0.000 sec (  0.750%)
 Dispersion                     ...        0 min,  0.000 sec (  0.616%)
 classical contributions        ...        0 min,  0.000 sec (  0.312%)
 integral evaluation            ...        0 min,  0.006 sec ( 21.706%)
 iterations                     ...        0 min,  0.004 sec ( 16.267%)
 molecular gradient             ...        0 min,  0.016 sec ( 59.925%)
 printout                       ...        0 min,  0.000 sec (  0.401%)

         :::::::::::::::::::::::::::::::::::::::::::::::::::::
         ::                     SUMMARY                     ::
         :::::::::::::::::::::::::::::::::::::::::::::::::::::
         :: total energy             -58.963970221179 Eh    ::
         :: gradient norm              0.000824608846 Eh/a0 ::
         :: HOMO-LUMO gap              3.272945039944 eV    ::
         ::.................................................::
         :: SCC energy               -59.565130077081 Eh    ::
         :: -> isotropic ES            0.115056773281 Eh    ::
         :: -> anisotropic ES         -0.002784726212 Eh    ::
         :: -> anisotropic XC          0.017087757630 Eh    ::
         :: -> dispersion             -0.036634534047 Eh    ::
         :: repulsion energy           0.601159855902 Eh    ::
         :: add. restraining           0.000000000000 Eh    ::
         :: total charge              -0.000000000000 e     ::
         :::::::::::::::::::::::::::::::::::::::::::::::::::::

           -------------------------------------------------
          |                Property Printout                |
           -------------------------------------------------

    * Orbital Energies and Occupations

         #    Occupation            Energy/Eh            Energy/eV
      -------------------------------------------------------------
         1        2.0000           -1.0509199             -28.5970
       ...           ...                  ...                  ...
        39        2.0000           -0.4711911             -12.8218
        40        2.0000           -0.4525102             -12.3134
        41        2.0000           -0.4467338             -12.1562
        42        2.0000           -0.4322830             -11.7630
        43        2.0000           -0.4283789             -11.6568
        44        2.0000           -0.4254198             -11.5763
        45        2.0000           -0.4247641             -11.5584
        46        2.0000           -0.4199740             -11.4281
        47        2.0000           -0.4168683             -11.3436
        48        2.0000           -0.4152256             -11.2989
        49        2.0000           -0.4000285             -10.8853
        50        2.0000           -0.3867840             -10.5249
        51        2.0000           -0.3759683             -10.2306 (HOMO)
        52                         -0.2556898              -6.9577 (LUMO)
        53                         -0.2330152              -6.3407
        54                         -0.1992016              -5.4206
        55                         -0.1343179              -3.6550
        56                         -0.1043576              -2.8397
        57                         -0.0144034              -0.3919
        58                         -0.0137817              -0.3750
        59                          0.0048638               0.1323
        60                          0.0186583               0.5077
        61                          0.0229980               0.6258
        62                          0.0231363               0.6296
       ...                                ...                  ...
        93                          0.6550163              17.8239
      -------------------------------------------------------------
                  HL-Gap            0.1202785 Eh            3.2729 eV
             Fermi-level           -0.3158290 Eh           -8.5941 eV

     #   Z          covCN         q      C6AA      α(0)
     1   7 N        2.647    -0.233    26.118     7.590
     2   6 C        2.885     0.173    24.282     8.079
     3   7 N        1.927    -0.307    28.793     7.956
     4   6 C        2.915     0.264    22.572     7.791
     5  17 Cl       1.053    -0.134   103.357    15.554
     6   7 N        1.910    -0.312    28.940     7.976
     7   6 C        3.164     0.145    24.542     8.097
     8   6 C        3.234     0.012    26.892     8.416
     9   7 N        1.880    -0.269    27.848     7.823
    10   6 C        3.200     0.109    25.084     8.162
    11   7 N        2.824    -0.061    22.426     7.033
    12   6 C        3.737     0.179    17.817     6.023
    13   6 C        3.817    -0.092    22.243     6.712
    14   6 C        3.747     0.112    18.810     6.186
    15   6 C        3.786     0.102    18.920     6.196
    16   8 O        1.703    -0.313    19.214     5.918
    17   6 C        3.673     0.077    19.518     6.331
    18   8 O        1.655    -0.444    21.730     6.293
    19   8 O        1.656    -0.441    21.662     6.283
    20   1 H        0.860     0.202     1.097     1.641
    21   1 H        0.861     0.202     1.098     1.641
    22   1 H        0.926     0.055     2.253     2.347
    23   1 H        0.923     0.051     2.302     2.373
    24   1 H        0.925     0.080     1.983     2.202
    25   1 H        0.924     0.063     2.159     2.298
    26   1 H        0.924     0.049     2.329     2.387
    27   1 H        0.924     0.063     2.168     2.303
    28   1 H        0.924     0.038     2.479     2.462
    29   1 H        0.923     0.033     2.543     2.494
    30   1 H        0.805     0.296     0.732     1.344
    31   1 H        0.805     0.303     0.712     1.326

 Mol. C6AA /au·bohr⁶  :      12598.198854
 Mol. C8AA /au·bohr⁸  :     307906.395624
 Mol. α(0) /au        :        169.235866


Wiberg/Mayer (AO) data.
largest (>0.10) Wiberg bond orders for each atom

 ---------------------------------------------------------------------------
     #   Z sym  total        # sym  WBO       # sym  WBO       # sym  WBO
 ---------------------------------------------------------------------------
     1   7 N    3.394 --     2 C    1.274    21 H    0.943    20 H    0.940
     2   6 C    3.971 --     3 N    1.316     1 N    1.274     8 C    1.227
     3   7 N    3.032 --     4 C    1.388     2 C    1.316
     4   6 C    3.937 --     6 N    1.422     3 N    1.388     5 Cl   0.987
     5  17 Cl   1.149 --     4 C    0.987
     6   7 N    3.032 --     4 C    1.422     7 C    1.277
     7   6 C    3.960 --     6 N    1.277     8 C    1.269    11 N    1.184
     8   6 C    3.972 --     7 C    1.269     2 C    1.227     9 N    1.207
     9   7 N    3.022 --    10 C    1.608     8 C    1.207    11 N    0.103
    10   6 C    3.952 --     9 N    1.608    11 N    1.198    22 H    0.962
    11   7 N    3.605 --    10 C    1.198     7 C    1.184    12 C    0.950
                             9 N    0.103
    12   6 C    3.943 --    16 O    0.990    13 C    0.990    23 H    0.951
                            11 N    0.950
    13   6 C    3.989 --    12 C    0.990    14 C    0.980    25 H    0.973
                            24 H    0.966
    14   6 C    3.956 --    19 O    1.000    13 C    0.980    15 C    0.970
                            26 H    0.958
    15   6 C    3.948 --    17 C    0.987    14 C    0.970    16 O    0.964
                            27 H    0.958
    16   8 O    2.095 --    12 C    0.990    15 C    0.964
    17   6 C    3.959 --    18 O    0.997    15 C    0.987    28 H    0.970
                            29 H    0.969
    18   8 O    1.952 --    17 C    0.997    30 H    0.898
    19   8 O    1.963 --    14 C    1.000    31 H    0.893
    20   1 H    0.959 --     1 N    0.940
    21   1 H    0.958 --     1 N    0.943
    22   1 H    0.996 --    10 C    0.962
    23   1 H    0.997 --    12 C    0.951
    24   1 H    0.994 --    13 C    0.966
    25   1 H    0.995 --    13 C    0.973
    26   1 H    0.998 --    14 C    0.958
    27   1 H    0.996 --    15 C    0.958
    28   1 H    0.999 --    17 C    0.970
    29   1 H    0.999 --    17 C    0.969
    30   1 H    0.912 --    18 O    0.898
    31   1 H    0.908 --    19 O    0.893
 ---------------------------------------------------------------------------

Topologies differ in total number of bonds
Writing topology from bond orders to xtbtopo.mol

molecular dipole:
                 x           y           z       tot (Debye)
 q only:        0.122       0.246       0.985
   full:        0.047       0.370       1.181       3.147
molecular quadrupole (traceless):
                xx          xy          yy          xz          yz          zz
 q only:        4.353       1.551      -5.033      11.769     -11.285       0.680
  q+dip:        2.129       2.211      -2.383      10.120     -15.579       0.254
   full:        2.175       4.223      -2.601       9.107     -15.851       0.426

           -------------------------------------------------
          |                Geometry Summary                 |
           -------------------------------------------------

      molecular mass/u    :      285.6873164
   center of mass at/Å    :        0.4602373      -0.2442678      -0.3699094
  moments of inertia/u·Å² :        0.9939944E+03   0.1669285E+04   0.2205693E+04
rotational constants/cm⁻¹ :        0.1695948E-01   0.1009871E-01   0.7642784E-02

 * 33 selected distances

     #   Z          #   Z                                           value/Å
     1   7 N        2   6 C                                       1.3405921
     2   6 C        3   7 N                                       1.3364031
     3   7 N        4   6 C                                       1.3178468
     4   6 C        5  17 Cl                                      1.7081489 (max)
     4   6 C        6   7 N                                       1.3139154
     6   7 N        7   6 C                                       1.3371467
     2   6 C        8   6 C                                       1.4050330
     7   6 C        8   6 C                                       1.4072387
     8   6 C        9   7 N                                       1.3711439
     9   7 N       10   6 C                                       1.2951148
     7   6 C       11   7 N                                       1.3622094
    10   6 C       11   7 N                                       1.3708795
    11   7 N       12   6 C                                       1.4544506
    12   6 C       13   6 C                                       1.5220250
    13   6 C       14   6 C                                       1.5378538
    14   6 C       15   6 C                                       1.5422199
    12   6 C       16   8 O                                       1.4012568
    15   6 C       16   8 O                                       1.4233630
    15   6 C       17   6 C                                       1.5311726
    17   6 C       18   8 O                                       1.4114853
    14   6 C       19   8 O                                       1.4041278
     1   7 N       20   1 H                                       1.0044139
     1   7 N       21   1 H                                       1.0035166
    10   6 C       22   1 H                                       1.0721677
    12   6 C       23   1 H                                       1.0980824
    13   6 C       24   1 H                                       1.0856009
    13   6 C       25   1 H                                       1.0908257
    14   6 C       26   1 H                                       1.0967956
    15   6 C       27   1 H                                       1.0963497
    17   6 C       28   1 H                                       1.0971965
    17   6 C       29   1 H                                       1.0984598
    18   8 O       30   1 H                                       0.9626558 (min)
    19   8 O       31   1 H                                       0.9634709

 * 7 distinct bonds (by element types)

   Z      Z             #   av. dist./Å        max./Å        min./Å
   1 H    6 C           8     1.0919348     1.0984598     1.0721677
   6 C    6 C           6     1.4909238     1.5422199     1.4050330
   1 H    7 N           2     1.0039652     1.0044139     1.0035166
   6 C    7 N          10     1.3499702     1.4544506     1.2951148
[...]
     |                    University of Bonn                     |     
      -----------------------------------------------------------      

   * xtb version 6.7.1 (edcfbbe) compiled by 'conda@3ef47c1a292c' on 2024-11-25

   xtb is free software: you can redistribute it and/or modify it under
   the terms of the GNU Lesser General Public License as published by
   the Free Software Foundation, either version 3 of the License, or
   (at your option) any later version.
   
   xtb is distributed in the hope that it will be useful,
   but WITHOUT ANY WARRANTY; without even the implied warranty of
   MERCHANTABILITY or FITNESS FOR A PARTICULAR PURPOSE.  See the
   GNU Lesser General Public License for more details.
   
   Cite this work as:
   * C. Bannwarth, E. Caldeweyher, S. Ehlert, A. Hansen, P. Pracht,
     J. Seibert, S. Spicher, S. Grimme, WIREs Comput. Mol. Sci., 2020, 11,
     e01493. DOI: 10.1002/wcms.1493
   
   for GFN2-xTB:
   * C. Bannwarth, S. Ehlert and S. Grimme., J. Chem. Theory Comput., 2019,
     15, 1652-1671. DOI: 10.1021/acs.jctc.8b01176
   for GFN1-xTB:
   * S. Grimme, C. Bannwarth, P. Shushkov, J. Chem. Theory Comput., 2017,
     13, 1989-2009. DOI: 10.1021/acs.jctc.7b00118
   for GFN0-xTB:
   * P. Pracht, E. Caldeweyher, S. Ehlert, S. Grimme, ChemRxiv, 2019, preprint.
     DOI: 10.26434/chemrxiv.8326202.v1
   for GFN-FF:
   * S. Spicher and S. Grimme, Angew. Chem. Int. Ed., 2020, 59, 15665-15673.
     DOI: 10.1002/anie.202004239
   
   for ALPB and GBSA implicit solvation:
   * S. Ehlert, M. Stahn, S. Spicher, S. Grimme, J. Chem. Theory Comput.,
     2021, 17, 4250-4261. DOI: 10.1021/acs.jctc.1c00471
   
   for ddCOSMO and CPCM-X implicit solvation:
   * M. Stahn, S. Ehlert, S. Grimme, J. Phys. Chem. A,
     2023, XX, XXXX-XXXX. DOI: 10.1021/acs.jpca.3c04382
   
   for DFT-D4:
   * E. Caldeweyher, C. Bannwarth and S. Grimme, J. Chem. Phys., 2017,
     147, 034112. DOI: 10.1063/1.4993215
   * E. Caldeweyher, S. Ehlert, A. Hansen, H. Neugebauer, S. Spicher,
     C. Bannwarth and S. Grimme, J. Chem. Phys., 2019, 150, 154122.
     DOI: 10.1063/1.5090222
   * E. Caldeweyher, J.-M. Mewes, S. Ehlert and S. Grimme, Phys. Chem. Chem. Phys.
     2020, 22, 8499-8512. DOI: 10.1039/D0CP00502A
   
   for sTDA-xTB:
   * S. Grimme and C. Bannwarth, J. Chem. Phys., 2016, 145, 054103.
     DOI: 10.1063/1.4959605
   
   in the mass-spec context:
   * V. Asgeirsson, C. Bauer and S. Grimme, Chem. Sci., 2017, 8, 4879.
     DOI: 10.1039/c7sc00601b
   * J. Koopman and S. Grimme, ACS Omega 2019, 4, 12, 15120-15133.
     DOI: 10.1021/acsomega.9b02011
   
   for metadynamics refer to:
   * S. Grimme, J. Chem. Theory Comput., 2019, 155, 2847-2862
     DOI: 10.1021/acs.jctc.9b00143
   
   for SPH calculations refer to:
   * S. Spicher and S. Grimme, J. Chem. Theory Comput., 2021, 17, 1701-1714
     DOI: 10.1021/acs.jctc.0c01306
   
   for ONIOM refer to:
   * C. Plett, A. Katbashev, S. Ehlert, S. Grimme, M. Bursch,
     Phys. Chem. Chem. Phys., 2023, 25, 17860-17868. DOI: 10.1039/D3CP02178E
   
   for DIPRO refer to:
   * J. Kohn, N. Gildemeister, S. Grimme, D. Fazzi, A. Hansen,
     J. Chem. Phys., 2023, just accepted.
   
   for PTB refer to:
   * S. Grimme, M. Mueller, A. Hansen, J. Chem. Phys., 2023, 158, 124111.
     DOI: 10.1063/5.0137838
   
   with help from (in alphabetical order)
   P. Atkinson, C. Bannwarth, F. Bohle, G. Brandenburg, E. Caldeweyher
   M. Checinski, S. Dohm, S. Ehlert, S. Ehrlich, I. Gerasimov, C. Hölzer
   A. Katbashev, J. Kohn, J. Koopman, C. Lavigne, S. Lehtola, F. März, M. Müller,
   F. Musil, H. Neugebauer, J. Pisarek, C. Plett, P. Pracht, F. Pultar,
   J. Seibert, P. Shushkov, S. Spicher, M. Stahn, M. Steiner, T. Strunk,
   J. Stückrath, T. Rose, and J. Unsleber
   
 * started run on 2025/05/15 at 16:26:39.953     
   ID    Z sym.   atoms
    1    7 N      1, 3, 6, 9, 11
    2    6 C      2, 4, 7, 8, 10, 12-15, 17
    3   17 Cl     5
    4    8 O      16, 18, 19
    5    1 H      20-31

           -------------------------------------------------
          |                Calculation Setup                |
           -------------------------------------------------

          program call               : xtb /rds/general/user/hgt20/home/callum/QDESCP/Cladribine_rdkit_conf_20/Cladribine_rdkit_conf_20.xyz --acc 1 --gfn 2 --chrg 0 --uhf 2 --etemp 300 --input /rds/general/user/hgt20/home/callum/QDESCP/Cladribine_rdkit_conf_20/Cladribine_rdkit_conf_20_xtb.inp -P 1
          hostname                   : login-c
          coordinate file            : /rds/general/user/hgt20/home/callum/QDESCP/Cladribine_rdkit_conf_20/Cladribine_rdkit_conf_20.xyz
          omp threads                :                     1


           -------------------------------------------------
          |                 G F N 2 - x T B                 |
           -------------------------------------------------

        Reference                      10.1021/acs.jctc.8b01176
      * Hamiltonian:
        H0-scaling (s, p, d)           1.850000    2.230000    2.230000
        zeta-weighting                 0.500000
      * Dispersion:
        s8                             2.700000
        a1                             0.520000
        a2                             5.000000
        s9                             5.000000
      * Repulsion:
        kExp                           1.500000    1.000000
        rExp                           1.000000
      * Coulomb:
        alpha                          2.000000
        third order                    shell-resolved
        anisotropic                    true
        a3                             3.000000
        a5                             4.000000
        cn-shift                       1.200000
        cn-exp                         4.000000
        max-rad                        5.000000


          ...................................................
          :                      SETUP                      :
          :.................................................:
          :  # basis functions                  94          :
          :  # atomic orbitals                  93          :
          :  # shells                           51          :
          :  # electrons                       102          :
          :  max. iterations                   250          :
          :  Hamiltonian                  GFN2-xTB          :
          :  restarted?                      false          :
          :  GBSA solvation                  false          :
          :  PC potential                    false          :
          :  electronic temp.          300.0000000     K    :
          :  accuracy                    1.0000000          :
          :  -> integral cutoff          0.2500000E+02      :
          :  -> integral neglect         0.1000000E-07      :
          :  -> SCF convergence          0.1000000E-05 Eh   :
          :  -> wf. convergence          0.1000000E-03 e    :
          :  Broyden damping             0.4000000          :
          :  net charge                          0          :
          :  unpaired electrons                  2          :
          ...................................................

 iter      E             dE          RMSdq      gap      omega  full diag
   1    -59.1781653 -0.591782E+02  0.443E+00    0.36       0.0  T
   2    -59.3316077 -0.153442E+00  0.292E+00    0.84       1.0  T
   3    -59.3626525 -0.310449E-01  0.200E+00    0.58       1.0  T
   4    -59.3027109  0.599416E-01  0.169E+00    0.77       1.0  T
   5    -59.3845569 -0.818459E-01  0.110E+00    0.34       1.0  T
   6    -59.4304978 -0.459409E-01  0.405E-01    0.39       1.0  T
   7    -59.4339228 -0.342505E-02  0.245E-01    0.39       1.0  T
   8    -59.4352053 -0.128246E-02  0.129E-01    0.40       1.0  T
   9    -59.4355539 -0.348651E-03  0.783E-02    0.39       1.0  T
  10    -59.4355879 -0.339945E-04  0.593E-02    0.39       1.0  T
  11    -59.4356654 -0.775042E-04  0.335E-02    0.39       1.0  T
  12    -59.4356568  0.859759E-05  0.358E-02    0.39       1.0  T
  13    -59.4356772 -0.204094E-04  0.235E-02    0.39       1.0  T
  14    -59.4356853 -0.806761E-05  0.124E-02    0.39       1.5  T
  15    -59.4356891 -0.374270E-05  0.325E-03    0.39       5.5  T
  16    -59.4356890  0.267037E-07  0.310E-03    0.39       5.8  T
  17    -59.4356893 -0.267185E-06  0.868E-04    0.39      20.7  T
  18    -59.4356893 -0.108480E-07  0.530E-04    0.39      33.9  T

   *** convergence criteria satisfied after 18 iterations ***

         #    Occupation            Energy/Eh            Energy/eV
      -------------------------------------------------------------
         1        2.0000           -1.0507666             -28.5928
       ...           ...                  ...                  ...
        46        2.0000           -0.4200901             -11.4312
        47        2.0000           -0.4178657             -11.3707
        48        2.0000           -0.4163442             -11.3293
        49        2.0000           -0.4073037             -11.0833
        50        1.5596           -0.3857790             -10.4976
        51        1.4404           -0.3853239             -10.4852
        52        0.9995           -0.2477496              -6.7416 (HOMO)
        53        0.0005           -0.2333811              -6.3506 (LUMO)
        54                         -0.1958389              -5.3290
        55                         -0.1325295              -3.6063
        56                         -0.1037447              -2.8230
        57                         -0.0149663              -0.4073
       ...                                ...                  ...
        93                          0.6540279              17.7970
      -------------------------------------------------------------
                  HL-Gap            0.0143684 Eh            0.3910 eV
             Fermi-level           -0.3130584 Eh           -8.5188 eV

 transition dipole moment (au) for excitation:          51          52
     X       Y       Z   
  -0.3495   0.3366  -0.0495  total (au/Debye):    0.488   1.240
 dE (eV)             :    3.744
 oscillator strength :  0.30853E-01

 SCC (total)                   0 d,  0 h,  0 min,  0.057 sec
 SCC setup                      ...        0 min,  0.000 sec (  0.445%)
 Dispersion                     ...        0 min,  0.000 sec (  0.498%)
 classical contributions        ...        0 min,  0.000 sec (  0.147%)
 integral evaluation            ...        0 min,  0.006 sec ( 10.792%)
 iterations                     ...        0 min,  0.027 sec ( 47.923%)
 molecular gradient             ...        0 min,  0.017 sec ( 29.139%)
 printout                       ...        0 min,  0.006 sec ( 11.045%)

         :::::::::::::::::::::::::::::::::::::::::::::::::::::
         ::                     SUMMARY                     ::
         :::::::::::::::::::::::::::::::::::::::::::::::::::::
         :: total energy             -58.833865660680 Eh    ::
         :: gradient norm              0.131057262360 Eh/a0 ::
         :: HOMO-LUMO gap              0.390984751858 eV    ::
         ::.................................................::
         :: SCC energy               -59.435025516582 Eh    ::
         :: -> isotropic ES            0.106509014831 Eh    ::
         :: -> anisotropic ES         -0.001818092677 Eh    ::
         :: -> anisotropic XC          0.009617481380 Eh    ::
         :: -> dispersion             -0.036600361478 Eh    ::
         :: repulsion energy           0.601159855902 Eh    ::
         :: add. restraining           0.000000000000 Eh    ::
         :: total charge               0.000000000115 e     ::
         :::::::::::::::::::::::::::::::::::::::::::::::::::::

           -------------------------------------------------
          |                Property Printout                |
           -------------------------------------------------

    * Orbital Energies and Occupations

         #    Occupation            Energy/Eh            Energy/eV
      -------------------------------------------------------------
         1        2.0000           -1.0507666             -28.5928
       ...           ...                  ...                  ...
        40        2.0000           -0.4531881             -12.3319
        41        2.0000           -0.4470456             -12.1647
        42        2.0000           -0.4359439             -11.8626
        43        2.0000           -0.4295448             -11.6885
        44        2.0000           -0.4281520             -11.6506
        45        2.0000           -0.4256579             -11.5827
        46        2.0000           -0.4200901             -11.4312
        47        2.0000           -0.4178657             -11.3707
        48        2.0000           -0.4163442             -11.3293
        49        2.0000           -0.4073037             -11.0833
        50        1.5596           -0.3857790             -10.4976
        51        1.4404           -0.3853239             -10.4852
        52        0.9995           -0.2477496              -6.7416 (HOMO)
        53        0.0005           -0.2333811              -6.3506 (LUMO)
        54                         -0.1958389              -5.3290
        55                         -0.1325295              -3.6063
        56                         -0.1037447              -2.8230
        57                         -0.0149663              -0.4073
        58                         -0.0135215              -0.3679
        59                          0.0065640               0.1786
        60                          0.0181982               0.4952
        61                          0.0229301               0.6240
        62                          0.0230707               0.6278
        63                          0.0241022               0.6559
       ...                                ...                  ...
        93                          0.6540279              17.7970
      -------------------------------------------------------------
                  HL-Gap            0.0143684 Eh            0.3910 eV
             Fermi-level           -0.3130584 Eh           -8.5188 eV

     #   Z          covCN         q      C6AA      α(0)
     1   7 N        2.647    -0.230    26.034     7.578
     2   6 C        2.885     0.120    25.367     8.257
     3   7 N        1.927    -0.261    27.628     7.794
     4   6 C        2.915     0.227    23.253     7.907
     5  17 Cl       1.053    -0.132   103.300    15.549
     6   7 N        1.910    -0.283    28.176     7.870
     7   6 C        3.164     0.151    24.419     8.076
     8   6 C        3.234     0.035    26.386     8.336
     9   7 N        1.880    -0.247    27.299     7.745
    10   6 C        3.200     0.081    25.674     8.257
    11   7 N        2.824    -0.065    22.492     7.044
    12   6 C        3.737     0.178    17.827     6.025
    13   6 C        3.817    -0.090    22.204     6.706
    14   6 C        3.747     0.112    18.809     6.186
    15   6 C        3.786     0.101    18.926     6.196
    16   8 O        1.703    -0.310    19.172     5.912
    17   6 C        3.673     0.077    19.522     6.332
    18   8 O        1.655    -0.444    21.714     6.290
    19   8 O        1.656    -0.440    21.650     6.281
    20   1 H        0.860     0.198     1.114     1.653
    21   1 H        0.861     0.196     1.125     1.661
    22   1 H        0.926     0.049     2.331     2.387
    23   1 H        0.923     0.054     2.273     2.358
    24   1 H        0.925     0.075     2.032     2.229
    25   1 H        0.924     0.064     2.147     2.292
    26   1 H        0.924     0.049     2.338     2.391
    27   1 H        0.924     0.063     2.160     2.298
    28   1 H        0.924     0.039     2.465     2.455
    29   1 H        0.923     0.033     2.542     2.494
    30   1 H        0.805     0.297     0.731     1.343
    31   1 H        0.805     0.303     0.712     1.326

 Mol. C6AA /au·bohr⁶  :      12592.414689
 Mol. C8AA /au·bohr⁸  :     307840.496594
 Mol. α(0) /au        :        169.230993


Wiberg/Mayer (AO) data.
largest (>0.10) Wiberg bond orders for each atom

 ---------------------------------------------------------------------------
     #   Z sym  total        # sym  WBO       # sym  WBO       # sym  WBO
 ---------------------------------------------------------------------------
     1   7 N    3.266 --     2 C    1.217    21 H    0.945    20 H    0.942
     2   6 C    3.863 --     3 N    1.281     1 N    1.217     8 C    1.094
     3   7 N    3.043 --     4 C    1.403     2 C    1.281
     4   6 C    3.839 --     3 N    1.403     6 N    1.204     5 Cl   0.982
     5  17 Cl   1.136 --     4 C    0.982
     6   7 N    2.887 --     7 C    1.287     4 C    1.204
     7   6 C    3.902 --     6 N    1.287     8 C    1.211    11 N    1.193
     8   6 C    3.825 --     9 N    1.307     7 C    1.211     2 C    1.094
     9   7 N    3.012 --    10 C    1.398     8 C    1.307
    10   6 C    3.801 --     9 N    1.398    11 N    1.158    22 H    0.964
    11   7 N    3.581 --     7 C    1.193    10 C    1.158    12 C    0.952
    12   6 C    3.944 --    16 O    0.990    13 C    0.989    11 N    0.952
                            23 H    0.950
    13   6 C    3.986 --    12 C    0.989    14 C    0.980    25 H    0.973
                            24 H    0.964
    14   6 C    3.956 --    19 O    1.001    13 C    0.980    15 C    0.970
                            26 H    0.958
    15   6 C    3.948 --    17 C    0.987    14 C    0.970    16 O    0.964
                            27 H    0.958
    16   8 O    2.095 --    12 C    0.990    15 C    0.964
    17   6 C    3.959 --    18 O    0.998    15 C    0.987    28 H    0.970
                            29 H    0.968
    18   8 O    1.952 --    17 C    0.998    30 H    0.898
    19   8 O    1.963 --    14 C    1.001    31 H    0.893
    20   1 H    0.959 --     1 N    0.942
    21   1 H    0.961 --     1 N    0.945
    22   1 H    0.997 --    10 C    0.964
    23   1 H    0.995 --    12 C    0.950
    24   1 H    0.994 --    13 C    0.964
    25   1 H    0.995 --    13 C    0.973
    26   1 H    0.998 --    14 C    0.958
    27   1 H    0.996 --    15 C    0.958
    28   1 H    0.998 --    17 C    0.970
    29   1 H    0.999 --    17 C    0.968
    30   1 H    0.912 --    18 O    0.898
    31   1 H    0.908 --    19 O    0.893
 ---------------------------------------------------------------------------

Topologies differ in total number of bonds
Writing topology from bond orders to xtbtopo.mol

molecular dipole:
                 x           y           z       tot (Debye)
 q only:        0.061       0.205       0.896
   full:        0.022       0.300       1.096       2.889
molecular quadrupole (traceless):
                xx          xy          yy          xz          yz          zz
 q only:        4.132       1.613      -5.001      11.247     -11.383       0.869
  q+dip:        2.068       2.372      -2.829      10.079     -15.761       0.761
   full:        2.265       3.888      -3.158       9.423     -15.940       0.894


           -------------------------------------------------
          | TOTAL ENERGY              -58.833865660680 Eh   |
          | GRADIENT NORM               0.131057262360 Eh/α |
          | HOMO-LUMO GAP               0.390984751858 eV   |
           -------------------------------------------------

------------------------------------------------------------------------
 * finished run on 2025/05/15 at 16:26:40.022     
------------------------------------------------------------------------
 total:
 * wall-time:     0 d,  0 h,  0 min,  0.069 sec
 *  cpu-time:     0 d,  0 h,  0 min,  0.067 sec
 * ratio c/w:     0.975 speedup
 SCF:
 * wall-time:     0 d,  0 h,  0 min,  0.057 sec
 *  cpu-time:     0 d,  0 h,  0 min,  0.057 sec
 * ratio c/w:     0.995 speedup


