31
 energy: -58.963970221179 gnorm: 0.000824608846 xtb: 6.7.1 (edcfbbe)
N            4.05137594773755       -1.15435464993520        1.49023594420968
C            3.10530450059679       -0.90448496522533        0.57388398325503
N            3.06597145805066       -1.66220849107360       -0.52624370646310
C            2.13378908145176       -1.41591767582021       -1.42462928044045
Cl           2.16399072264140       -2.43086550932600       -2.79821611358215
N            1.18717822913306       -0.50471211767563       -1.42224432177522
C            1.20329838974745        0.25052551619636       -0.31892337346970
C            2.14528486643857        0.11135539328828        0.71722986304059
N            1.89753655171965        1.04044186502285        1.69470331325094
C            0.86791508052687        1.69905662443255        1.26641820936407
N            0.39912734062853        1.28786183072323        0.04557128614608
C           -0.81566463131454        1.81187701870943       -0.55867584498926
C           -1.19903937540043        1.06701389095236       -1.82940880279413
C           -1.96399400802180       -0.14121404623194       -1.26370263570404
C           -2.51913842648884        0.38977847068344        0.07357200476554
O           -1.89830723472770        1.64753147072147        0.31562152292386
C           -2.29942691926390       -0.57709874980543        1.24034718736523
O           -0.94439229412070       -0.96918568602446        1.28973781753569
O           -3.03400487826237       -0.56840135919103       -2.06629989724529
H            4.72769157904818       -1.87580240183605        1.31428880402264
H            4.10859795423242       -0.57189040855274        2.30540855440764
H            0.39626953856584        2.50050480828367        1.80006093043286
H           -0.67787783703080        2.89223428656540       -0.69877454002131
H           -0.33796778535679        0.77722185384867       -2.42363558305823
H           -1.88406626045665        1.68214076214351       -2.41443660905829
H           -1.26464687572895       -0.96409456844034       -1.07202156494886
H           -3.59608309314553        0.56818320884631       -0.02813567866598
H           -2.58913207931362       -0.06645194405378        2.16725095377436
H           -2.94947607635979       -1.44956155438185        1.08915737940351
H           -0.80577720975123       -1.51466049190473        2.07073024236890
H           -2.67443625577922       -0.95492238094000       -2.87227004404699
