24
 energy: -42.153937218649 gnorm: 0.000423648059 xtb: 6.7.1 (edcfbbe)
O           -3.05186727394289        0.73700655100492       -0.16764831082684
C           -1.87650260594711        0.45068035433572       -0.10316002525471
N           -1.46143964952642       -0.87534788217263       -0.11947293321786
C           -0.15433554205319       -1.36692245212921       -0.05328243970358
O            0.09325180178794       -2.55753355016862       -0.07576685995670
C           -2.53772153169906       -1.84809717388994       -0.21793556263033
N           -0.89595601449108        1.41651974332477       -0.01091974792497
C            0.40810136075247        1.04011522034656        0.05875441725489
C            0.78833941577379       -0.29401765436066        0.04000386678727
N            2.16140447279238       -0.28138810798686        0.12641344432618
C            2.51391255627740        1.01411631799835        0.18983014865030
N            1.49131713764299        1.84216741811593        0.15219765881683
C            3.00799046119818       -1.43925414392597        0.14249692036620
C           -1.25296016858756        2.81794801509520        0.01143029311662
H           -3.10228410496535       -1.68274140514188       -1.13506922161983
H           -2.08668225486790       -2.83761583190969       -0.22126025428308
H           -3.21286775695478       -1.73908085188720        0.63029903514952
H            3.53246718325712        1.33948824418305        0.26401307959839
H            2.75143780912704       -2.07646293956271        0.99004602677142
H            2.86166344907306       -2.02030794555890       -0.76918251314321
H            4.04745330971604       -1.12563237384494        0.21763535330689
H           -2.33683723115872        2.88572531986613       -0.05429033132846
H           -0.78856104229388        3.32847829262779       -0.83183801317143
H           -0.89932378091048        3.27205683564081        0.93670596891649
