----- Optimization -----
      -----------------------------------------------------------      
     |                   =====================                   |     
     |                           x T B                           |     
     |                   =====================                   |     
     |                         S. Grimme                         |     
     |          Mulliken Center for Theoretical Chemistry        |     
     |                    University of Bonn                     |     
      -----------------------------------------------------------      

   * xtb version 6.7.1 (edcfbbe) compiled by 'conda@3ef47c1a292c' on 2024-11-25

   xtb is free software: you can redistribute it and/or modify it under
   the terms of the GNU Lesser General Public License as published by
   the Free Software Foundation, either version 3 of the License, or
   (at your option) any later version.
   
   xtb is distributed in the hope that it will be useful,
   but WITHOUT ANY WARRANTY; without even the implied warranty of
   MERCHANTABILITY or FITNESS FOR A PARTICULAR PURPOSE.  See the
   GNU Lesser General Public License for more details.
   
   Cite this work as:
   * C. Bannwarth, E. Caldeweyher, S. Ehlert, A. Hansen, P. Pracht,
     J. Seibert, S. Spicher, S. Grimme, WIREs Comput. Mol. Sci., 2020, 11,
     e01493. DOI: 10.1002/wcms.1493
   
   for GFN2-xTB:
   * C. Bannwarth, S. Ehlert and S. Grimme., J. Chem. Theory Comput., 2019,
     15, 1652-1671. DOI: 10.1021/acs.jctc.8b01176
   for GFN1-xTB:
   * S. Grimme, C. Bannwarth, P. Shushkov, J. Chem. Theory Comput., 2017,
     13, 1989-2009. DOI: 10.1021/acs.jctc.7b00118
   for GFN0-xTB:
   * P. Pracht, E. Caldeweyher, S. Ehlert, S. Grimme, ChemRxiv, 2019, preprint.
     DOI: 10.26434/chemrxiv.8326202.v1
   for GFN-FF:
   * S. Spicher and S. Grimme, Angew. Chem. Int. Ed., 2020, 59, 15665-15673.
     DOI: 10.1002/anie.202004239
   
   for ALPB and GBSA implicit solvation:
   * S. Ehlert, M. Stahn, S. Spicher, S. Grimme, J. Chem. Theory Comput.,
     2021, 17, 4250-4261. DOI: 10.1021/acs.jctc.1c00471
   
   for ddCOSMO and CPCM-X implicit solvation:
   * M. Stahn, S. Ehlert, S. Grimme, J. Phys. Chem. A,
     2023, XX, XXXX-XXXX. DOI: 10.1021/acs.jpca.3c04382
   
   for DFT-D4:
   * E. Caldeweyher, C. Bannwarth and S. Grimme, J. Chem. Phys., 2017,
     147, 034112. DOI: 10.1063/1.4993215
   * E. Caldeweyher, S. Ehlert, A. Hansen, H. Neugebauer, S. Spicher,
     C. Bannwarth and S. Grimme, J. Chem. Phys., 2019, 150, 154122.
     DOI: 10.1063/1.5090222
   * E. Caldeweyher, J.-M. Mewes, S. Ehlert and S. Grimme, Phys. Chem. Chem. Phys.
     2020, 22, 8499-8512. DOI: 10.1039/D0CP00502A
   
   for sTDA-xTB:
   * S. Grimme and C. Bannwarth, J. Chem. Phys., 2016, 145, 054103.
     DOI: 10.1063/1.4959605
   
   in the mass-spec context:
   * V. Asgeirsson, C. Bauer and S. Grimme, Chem. Sci., 2017, 8, 4879.
     DOI: 10.1039/c7sc00601b
   * J. Koopman and S. Grimme, ACS Omega 2019, 4, 12, 15120-15133.
     DOI: 10.1021/acsomega.9b02011
   
   for metadynamics refer to:
   * S. Grimme, J. Chem. Theory Comput., 2019, 155, 2847-2862
     DOI: 10.1021/acs.jctc.9b00143
   
   for SPH calculations refer to:
   * S. Spicher and S. Grimme, J. Chem. Theory Comput., 2021, 17, 1701-1714
     DOI: 10.1021/acs.jctc.0c01306
   
   for ONIOM refer to:
   * C. Plett, A. Katbashev, S. Ehlert, S. Grimme, M. Bursch,
     Phys. Chem. Chem. Phys., 2023, 25, 17860-17868. DOI: 10.1039/D3CP02178E
   
   for DIPRO refer to:
   * J. Kohn, N. Gildemeister, S. Grimme, D. Fazzi, A. Hansen,
     J. Chem. Phys., 2023, just accepted.
   
   for PTB refer to:
   * S. Grimme, M. Mueller, A. Hansen, J. Chem. Phys., 2023, 158, 124111.
     DOI: 10.1063/5.0137838
   
   with help from (in alphabetical order)
   P. Atkinson, C. Bannwarth, F. Bohle, G. Brandenburg, E. Caldeweyher
   M. Checinski, S. Dohm, S. Ehlert, S. Ehrlich, I. Gerasimov, C. Hölzer
   A. Katbashev, J. Kohn, J. Koopman, C. Lavigne, S. Lehtola, F. März, M. Müller,
   F. Musil, H. Neugebauer, J. Pisarek, C. Plett, P. Pracht, F. Pultar,
   J. Seibert, P. Shushkov, S. Spicher, M. Stahn, M. Steiner, T. Strunk,
   J. Stückrath, T. Rose, and J. Unsleber
   
 * started run on 2025/05/15 at 16:04:42.667     
   ID    Z sym.   atoms
    1    8 O      1, 5
    2    6 C      2, 4, 6, 8, 9, 11, 13, 14
    3    7 N      3, 7, 10, 12
    4    1 H      15-24

           -------------------------------------------------
          |                Calculation Setup                |
           -------------------------------------------------

          program call               : xtb /rds/general/user/hgt20/home/callum/QDESCP/Caffeine_rdkit_conf_1/Caffeine_rdkit_conf_1.xyz --opt normal --acc 1 --gfn 2 --chrg 0 --uhf 0 -P 1
          hostname                   : login-c
          coordinate file            : /rds/general/user/hgt20/home/callum/QDESCP/Caffeine_rdkit_conf_1/Caffeine_rdkit_conf_1.xyz
          omp threads                :                     1


           -------------------------------------------------
          |                 G F N 2 - x T B                 |
           -------------------------------------------------

        Reference                      10.1021/acs.jctc.8b01176
      * Hamiltonian:
        H0-scaling (s, p, d)           1.850000    2.230000    2.230000
        zeta-weighting                 0.500000
      * Dispersion:
        s8                             2.700000
        a1                             0.520000
        a2                             5.000000
        s9                             5.000000
      * Repulsion:
        kExp                           1.500000    1.000000
        rExp                           1.000000
      * Coulomb:
        alpha                          2.000000
        third order                    shell-resolved
        anisotropic                    true
        a3                             3.000000
        a5                             4.000000
        cn-shift                       1.200000
        cn-exp                         4.000000
        max-rad                        5.000000


          ...................................................
          :                      SETUP                      :
          :.................................................:
          :  # basis functions                  66          :
          :  # atomic orbitals                  66          :
          :  # shells                           38          :
          :  # electrons                        74          :
          :  max. iterations                   250          :
          :  Hamiltonian                  GFN2-xTB          :
          :  restarted?                      false          :
          :  GBSA solvation                  false          :
          :  PC potential                    false          :
          :  electronic temp.          300.0000000     K    :
          :  accuracy                    1.0000000          :
          :  -> integral cutoff          0.2500000E+02      :
          :  -> integral neglect         0.1000000E-07      :
          :  -> SCF convergence          0.1000000E-05 Eh   :
          :  -> wf. convergence          0.1000000E-03 e    :
          :  Broyden damping             0.4000000          :
          :  net charge                          0          :
          :  unpaired electrons                  0          :
          ...................................................

 iter      E             dE          RMSdq      gap      omega  full diag
   1    -42.4882292 -0.424882E+02  0.433E+00    3.35       0.0  T
   2    -42.6309925 -0.142763E+00  0.256E+00    3.37       1.0  T
   3    -42.6385038 -0.751133E-02  0.142E+00    3.40       1.0  T
   4    -42.6379787  0.525082E-03  0.297E-01    3.33       1.0  T
   5    -42.6396832 -0.170451E-02  0.880E-02    3.35       1.0  T
   6    -42.6397093 -0.260109E-04  0.492E-02    3.36       1.0  T
   7    -42.6397229 -0.136201E-04  0.216E-02    3.36       1.0  T
   8    -42.6397246 -0.170262E-05  0.616E-03    3.36       3.3  T
   9    -42.6397247 -0.147061E-06  0.304E-03    3.36       6.7  T
  10    -42.6397248 -0.497597E-07  0.107E-03    3.36      19.1  T
  11    -42.6397248 -0.113282E-07  0.465E-04    3.36      43.9  T
  12    -42.6397248 -0.848409E-09  0.166E-04    3.36     122.9  T

   *** convergence criteria satisfied after 12 iterations ***

         #    Occupation            Energy/Eh            Energy/eV
      -------------------------------------------------------------
         1        2.0000           -0.7201397             -19.5960
       ...           ...                  ...                  ...
        31        2.0000           -0.4564315             -12.4201
        32        2.0000           -0.4379647             -11.9176
        33        2.0000           -0.4264853             -11.6053
        34        2.0000           -0.4193318             -11.4106
        35        2.0000           -0.4148268             -11.2880
        36        2.0000           -0.4035549             -10.9813
        37        2.0000           -0.3892647             -10.5924 (HOMO)
        38                         -0.2657150              -7.2305 (LUMO)
        39                         -0.2266176              -6.1666
        40                         -0.2097758              -5.7083
        41                         -0.1226084              -3.3363
        42                         -0.0560835              -1.5261
       ...                                ...                  ...
        66                          0.6586875              17.9238
      -------------------------------------------------------------
                  HL-Gap            0.1235497 Eh            3.3620 eV
             Fermi-level           -0.3274899 Eh           -8.9115 eV

 SCC (total)                   0 d,  0 h,  0 min,  0.024 sec
 SCC setup                      ...        0 min,  0.000 sec (  1.052%)
 Dispersion                     ...        0 min,  0.000 sec (  0.860%)
 classical contributions        ...        0 min,  0.000 sec (  0.284%)
 integral evaluation            ...        0 min,  0.004 sec ( 14.792%)
 iterations                     ...        0 min,  0.011 sec ( 46.485%)
 molecular gradient             ...        0 min,  0.009 sec ( 36.055%)
 printout                       ...        0 min,  0.000 sec (  0.444%)

         :::::::::::::::::::::::::::::::::::::::::::::::::::::
         ::                     SUMMARY                     ::
         :::::::::::::::::::::::::::::::::::::::::::::::::::::
         :: total energy             -42.147435640639 Eh    ::
         :: gradient norm              0.075307169197 Eh/a0 ::
         :: HOMO-LUMO gap              3.361958244630 eV    ::
         ::.................................................::
         :: SCC energy               -42.639628342809 Eh    ::
         :: -> isotropic ES            0.084221532775 Eh    ::
         :: -> anisotropic ES          0.003858514231 Eh    ::
         :: -> anisotropic XC          0.014369604190 Eh    ::
         :: -> dispersion             -0.023256830518 Eh    ::
         :: repulsion energy           0.492192702169 Eh    ::
         :: add. restraining           0.000000000000 Eh    ::
         :: total charge               0.000000000000 e     ::
         :::::::::::::::::::::::::::::::::::::::::::::::::::::

      ----------------------------------------------------------- 
     |                   =====================                   |
     |                        A N C O P T                        |
     |                   =====================                   |
     |               Approximate Normal Coordinate               |
     |                Rational Function Optimizer                |
      ----------------------------------------------------------- 
      ----------------------------------------------------------- 
     |                   =====================                   |
     |                        A N C O P T                        |
     |                   =====================                   |
     |               Approximate Normal Coordinate               |
     |                Rational Function Optimizer                |
      ----------------------------------------------------------- 

          ...................................................
          :                      SETUP                      :
          :.................................................:
          :   optimization level            normal          :
          :   max. optcycles                   200          :
          :   ANC micro-cycles                  20          :
          :   degrees of freedom                66          :
          :.................................................:
          :   RF solver                   davidson          :
          :   write xtbopt.log                true          :
          :   linear?                        false          :
          :   energy convergence         0.5000000E-05 Eh   :
          :   grad. convergence          0.1000000E-02 Eh/α :
          :   maxmium RF displ.          1.0000000          :
          :   Hlow (freq-cutoff)         0.1000000E-01      :
          :   Hmax (freq-cutoff)         5.0000000          :
          :   S6 in model hess.         20.0000000          :
          ...................................................

generating ANC from exact Hessian ...
Using Lindh-Hessian (1995)
 Shifting diagonal of input Hessian by    6.8626922517338830E-003
 Lowest  eigenvalues of input Hessian
    0.000000    0.000000    0.000000    0.000000    0.000000    0.000000
    0.010000    0.010904    0.012226    0.016107    0.016198    0.018277
    0.018983    0.020022    0.026599    0.030823    0.041810    0.050336
 Highest eigenvalues
    1.987937    2.070349    2.110061    2.158244    2.362513    2.439674


........................................................................
.............................. CYCLE    1 ..............................
........................................................................

 iter      E             dE          RMSdq      gap      omega  full diag
   1    -42.6397248 -0.426397E+02  0.420E-05    3.36       0.0  T
   2    -42.6397248 -0.424905E-11  0.233E-05    3.36     874.3  T
   3    -42.6397248  0.234479E-12  0.125E-05    3.36    1636.6  T
     SCC iter.                  ...        0 min,  0.003 sec
     gradient                   ...        0 min,  0.009 sec
 * total energy  :   -42.1474356 Eh     change       -0.2156000E-09 Eh
   gradient norm :     0.0753063 Eh/α   predicted     0.0000000E+00 (-100.00%)
   displ. norm   :     0.2271786 α      lambda       -0.8482914E-02
   maximum displ.:     0.1220230 α      in ANC's #13, #32, #20, ...

........................................................................
.............................. CYCLE    2 ..............................
........................................................................

 iter      E             dE          RMSdq      gap      omega  full diag
   1    -42.6597864 -0.426598E+02  0.232E-01    3.40       0.0  T
   2    -42.6599343 -0.147966E-03  0.142E-01    3.41       1.0  T
   3    -42.6599318  0.251407E-05  0.693E-02    3.41       1.0  T
   4    -42.6599706 -0.387419E-04  0.184E-02    3.41       1.1  T
   5    -42.6599762 -0.562011E-05  0.541E-03    3.41       3.8  T
   6    -42.6599763 -0.745541E-07  0.251E-03    3.41       8.1  T
   7    -42.6599763 -0.108928E-07  0.624E-04    3.41      32.7  T
   8    -42.6599763 -0.145899E-08  0.318E-04    3.41      64.2  T
     SCC iter.                  ...        0 min,  0.007 sec
     gradient                   ...        0 min,  0.009 sec
 * total energy  :   -42.1529871 Eh     change       -0.5551443E-02 Eh
   gradient norm :     0.0265354 Eh/α   predicted    -0.4461335E-02 ( -19.64%)
   displ. norm   :     0.1338056 α      lambda       -0.1497576E-02
   maximum displ.:     0.0815561 α      in ANC's #13, #7, #17, ...

........................................................................
.............................. CYCLE    3 ..............................
........................................................................

 iter      E             dE          RMSdq      gap      omega  full diag
   1    -42.6668568 -0.426669E+02  0.111E-01    3.44       0.0  T
   2    -42.6668908 -0.339673E-04  0.657E-02    3.43       1.0  T
   3    -42.6668924 -0.159629E-05  0.360E-02    3.43       1.0  T
   4    -42.6669012 -0.878971E-05  0.913E-03    3.43       2.2  T
   5    -42.6669026 -0.143508E-05  0.228E-03    3.43       9.0  T
   6    -42.6669026 -0.725107E-08  0.103E-03    3.43      19.8  T
   7    -42.6669026 -0.394358E-08  0.227E-04    3.43      90.1  T
   8    -42.6669026 -0.268948E-09  0.124E-04    3.43     164.0  T
     SCC iter.                  ...        0 min,  0.007 sec
     gradient                   ...        0 min,  0.009 sec
 * total energy  :   -42.1538222 Eh     change       -0.8351370E-03 Eh
   gradient norm :     0.0095858 Eh/α   predicted    -0.7622428E-03 (  -8.73%)
   displ. norm   :     0.0410394 α      lambda       -0.1111226E-03
   maximum displ.:     0.0324700 α      in ANC's #7, #17, #13, ...

........................................................................
.............................. CYCLE    4 ..............................
........................................................................

 iter      E             dE          RMSdq      gap      omega  full diag
   1    -42.6670189 -0.426670E+02  0.264E-02    3.44       0.0  T
   2    -42.6670219 -0.294579E-05  0.140E-02    3.43       1.5  T
   3    -42.6670219 -0.367028E-07  0.834E-03    3.43       2.4  T
   4    -42.6670222 -0.301707E-06  0.232E-03    3.43       8.8  T
   5    -42.6670223 -0.981954E-07  0.446E-04    3.43      45.8  T
   6    -42.6670223 -0.143634E-08  0.239E-04    3.43      85.6  T
     SCC iter.                  ...        0 min,  0.005 sec
     gradient                   ...        0 min,  0.009 sec
 * total energy  :   -42.1539029 Eh     change       -0.8063361E-04 Eh
   gradient norm :     0.0052209 Eh/α   predicted    -0.5756364E-04 ( -28.61%)
   displ. norm   :     0.0364330 α      lambda       -0.5177966E-04
   maximum displ.:     0.0306341 α      in ANC's #7, #17, #21, ...

........................................................................
.............................. CYCLE    5 ..............................
........................................................................

 iter      E             dE          RMSdq      gap      omega  full diag
   1    -42.6666404 -0.426666E+02  0.224E-02    3.43       0.0  T
   2    -42.6666422 -0.179826E-05  0.119E-02    3.43       1.7  T
   3    -42.6666421  0.884918E-08  0.614E-03    3.43       3.3  T
   4    -42.6666423 -0.121309E-06  0.158E-03    3.43      12.9  T
   5    -42.6666423 -0.521235E-07  0.432E-04    3.43      47.3  T
   6    -42.6666423 -0.218242E-08  0.189E-04    3.43     108.0  T
     SCC iter.                  ...        0 min,  0.005 sec
     gradient                   ...        0 min,  0.009 sec
 * total energy  :   -42.1539328 Eh     change       -0.2995444E-04 Eh
   gradient norm :     0.0021722 Eh/α   predicted    -0.2593592E-04 ( -13.42%)
   displ. norm   :     0.0098268 α      lambda       -0.5132838E-05
   maximum displ.:     0.0069704 α      in ANC's #7, #4, #10, ...

........................................................................
.............................. CYCLE    6 ..............................
........................................................................

 iter      E             dE          RMSdq      gap      omega  full diag
   1    -42.6665364 -0.426665E+02  0.558E-03    3.43       0.0  T
   2    -42.6665365 -0.108675E-06  0.319E-03    3.43       6.4  T
   3    -42.6665365 -0.365016E-08  0.141E-03    3.43      14.5  T
   4    -42.6665365 -0.412602E-08  0.245E-04    3.43      83.2  T
   5    -42.6665365 -0.907612E-09  0.862E-05    3.43     236.8  T
     SCC iter.                  ...        0 min,  0.004 sec
     gradient                   ...        0 min,  0.009 sec
 * total energy  :   -42.1539362 Eh     change       -0.3435419E-05 Eh
   gradient norm :     0.0010512 Eh/α   predicted    -0.2568029E-05 ( -25.25%)
   displ. norm   :     0.0091331 α      lambda       -0.1631146E-05
   maximum displ.:     0.0072819 α      in ANC's #4, #7, #10, ...

........................................................................
.............................. CYCLE    7 ..............................
........................................................................

 iter      E             dE          RMSdq      gap      omega  full diag
   1    -42.6665429 -0.426665E+02  0.458E-03    3.42       0.0  T
   2    -42.6665429 -0.644903E-07  0.271E-03    3.42       7.5  T
   3    -42.6665429 -0.157396E-08  0.108E-03    3.42      18.9  T
   4    -42.6665429 -0.274333E-08  0.215E-04    3.42      94.8  T
   5    -42.6665429 -0.558003E-09  0.758E-05    3.42     269.2  T
     SCC iter.                  ...        0 min,  0.004 sec
     gradient                   ...        0 min,  0.060 sec
 * total energy  :   -42.1539372 Eh     change       -0.9743274E-06 Eh
   gradient norm :     0.0004237 Eh/α   predicted    -0.8298775E-06 ( -14.83%)
   displ. norm   :     0.0023435 α      lambda       -0.1736953E-06
   maximum displ.:     0.0015882 α      in ANC's #7, #4, #10, ...

   *** GEOMETRY OPTIMIZATION CONVERGED AFTER 7 ITERATIONS ***

------------------------------------------------------------------------
 total energy gain   :        -0.0065016 Eh       -4.0798 kcal/mol
 total RMSD          :         0.0816230 a0        0.0432 Å
 total power (kW/mol):        -2.4385558 (step)  -78.9992 (real)
------------------------------------------------------------------------

 ANCopt (total)                0 d,  0 h,  0 min,  0.216 sec
 optimizer setup                ...        0 min,  0.000 sec (  0.042%)
 model hessian                  ...        0 min,  0.004 sec (  1.792%)
 ANC generation                 ...        0 min,  0.001 sec (  0.261%)
 coordinate transformation      ...        0 min,  0.000 sec (  0.016%)
 single point calculation       ...        0 min,  0.208 sec ( 96.380%)
 optimization log               ...        0 min,  0.002 sec (  1.068%)
 hessian update                 ...        0 min,  0.000 sec (  0.025%)
 rational function              ...        0 min,  0.000 sec (  0.175%)

================
 final structure:
================
24
 xtb: 6.7.1 (edcfbbe)
O           -3.05186727394289        0.73700655100492       -0.16764831082684
C           -1.87650260594711        0.45068035433572       -0.10316002525471
N           -1.46143964952642       -0.87534788217263       -0.11947293321786
C           -0.15433554205319       -1.36692245212921       -0.05328243970358
O            0.09325180178794       -2.55753355016862       -0.07576685995670
C           -2.53772153169906       -1.84809717388994       -0.21793556263033
N           -0.89595601449108        1.41651974332477       -0.01091974792497
C            0.40810136075247        1.04011522034656        0.05875441725489
C            0.78833941577379       -0.29401765436066        0.04000386678727
N            2.16140447279238       -0.28138810798686        0.12641344432618
C            2.51391255627740        1.01411631799835        0.18983014865030
N            1.49131713764299        1.84216741811593        0.15219765881683
C            3.00799046119818       -1.43925414392597        0.14249692036620
C           -1.25296016858756        2.81794801509520        0.01143029311662
H           -3.10228410496535       -1.68274140514188       -1.13506922161983
H           -2.08668225486790       -2.83761583190969       -0.22126025428308
H           -3.21286775695478       -1.73908085188720        0.63029903514952
H            3.53246718325712        1.33948824418305        0.26401307959839
H            2.75143780912704       -2.07646293956271        0.99004602677142
H            2.86166344907306       -2.02030794555890       -0.76918251314321
H            4.04745330971604       -1.12563237384494        0.21763535330689
H           -2.33683723115872        2.88572531986613       -0.05429033132846
H           -0.78856104229388        3.32847829262779       -0.83183801317143
H           -0.89932378091048        3.27205683564081        0.93670596891649

 Bond Distances (Angstroems)
 ---------------------------
O1-C2=1.2115         C2-O1=1.2115         C2-N3=1.3896         C2-N7=1.3794         N3-C2=1.3896         N3-C4=1.3981         
N3-C6=1.4541         C4-N3=1.3981         C4-O5=1.2163         C4-C9=1.4312         O5-C4=1.2163         C6-N3=1.4541         
C6-H15=1.0896        C6-H16=1.0875        C6-H17=1.0896        N7-C2=1.3794         N7-C8=1.3591         N7-C14=1.4464        
C8-N7=1.3591         C8-C9=1.3874         C8-N12=1.3511        C9-C4=1.4312         C9-C8=1.3874         C9-N10=1.3758        
N10-C9=1.3758        N10-C11=1.3441       N10-C13=1.4344       C11-N10=1.3441       C11-N12=1.3164       C11-H18=1.0718       
N12-C8=1.3511        N12-C11=1.3164       C13-N10=1.4344       C13-H19=1.0910       C13-H20=1.0910       C13-H21=1.0883       
C14-N7=1.4464        C14-H22=1.0880       C14-H23=1.0897       C14-H24=1.0897       H15-C6=1.0896        H16-C6=1.0875        
H17-C6=1.0896        H18-C11=1.0718       H19-C13=1.0910       H20-C13=1.0910       H21-C13=1.0883       H22-C14=1.0880       
H23-C14=1.0897       H24-C14=1.0897       
 C  H  Rav=1.0876 sigma=0.0054  Rmin=1.0718  Rmax=1.0910    10
 C  C  Rav=1.4093 sigma=0.0219  Rmin=1.3874  Rmax=1.4312     2
 N  C  Rav=1.3862 sigma=0.0421  Rmin=1.3164  Rmax=1.4541    11
 O  C  Rav=1.2139 sigma=0.0024  Rmin=1.2115  Rmax=1.2163     2

 selected bond angles (degree)
 --------------------
N3-C2-O1=120.98                N7-C2-O1=121.85                N7-C2-N3=117.17                C4-N3-C2=127.90                
C6-N3-C2=114.71                C6-N3-C4=117.39                O5-C4-N3=122.25                C9-C4-N3=110.81                
C9-C4-O5=126.94                H15-C6-N3=109.82               H16-C6-N3=107.57               H16-C6-H15=110.51              
H17-C6-N3=109.82               H17-C6-H15=108.60              H17-C6-H16=110.51              C8-N7-C2=119.44                
C14-N7-C2=120.27               C14-N7-C8=120.29               C9-C8-N7=121.91                N12-C8-N7=127.48               
N12-C8-C9=110.61               C8-C9-C4=122.77                N10-C9-C4=131.93               N10-C9-C8=105.30               
C11-N10-C9=105.88              C13-N10-C9=125.61              C13-N10-C11=128.51             

 selected dihedral angles (degree)
 ---------------------------------
C4-N3-C2-O1=180.00            C4-N3-C2-N7=  0.00            C6-N3-C2-O1=  0.00            C6-N3-C2-N7=180.00            
O5-C4-N3-C2=180.00            O5-C4-N3-C6=  0.00            C9-C4-N3-C2=  0.00            C9-C4-N3-C6=180.00            
H15-C6-N3-C2= 59.68           H15-C6-N3-C4=239.68           H16-C6-N3-C2=180.00           H16-C6-N3-C4=  0.00           
H17-C6-N3-C2=300.32           H17-C6-N3-C4=120.32           C8-N7-C2-O1=180.00            C8-N7-C2-N3=  0.00            
C14-N7-C2-O1=  0.00           C14-N7-C2-N3=180.00           C9-C8-N7-C2=  0.00            C9-C8-N7-C14=180.00           
N12-C8-N7-C2=180.00           N12-C8-N7-C14=  0.00          C8-C9-C4-N3=  0.00            C8-C9-C4-O5=180.00            
N10-C9-C4-N3=180.00           N10-C9-C4-O5=  0.00           C4-C9-C8-N7=  0.00            C4-C9-C8-N12=180.00           
N10-C9-C8-N7=180.00           N10-C9-C8-N12=  0.00          C11-N10-C9-C4=180.00          C11-N10-C9-C8=  0.00          
C13-N10-C9-C4=  0.00          C13-N10-C9-C8=180.00          
           -------------------------------------------------
          |                Final Singlepoint                |
           -------------------------------------------------

          ...................................................
          :                      SETUP                      :
          :.................................................:
          :  # basis functions                  66          :
          :  # atomic orbitals                  66          :
          :  # shells                           38          :
          :  # electrons                        74          :
          :  max. iterations                   250          :
          :  Hamiltonian                  GFN2-xTB          :
          :  restarted?                      false          :
          :  GBSA solvation                  false          :
          :  PC potential                    false          :
          :  electronic temp.          300.0000000     K    :
          :  accuracy                    1.0000000          :
          :  -> integral cutoff          0.2500000E+02      :
          :  -> integral neglect         0.1000000E-07      :
          :  -> SCF convergence          0.1000000E-05 Eh   :
          :  -> wf. convergence          0.1000000E-03 e    :
          :  Broyden damping             0.4000000          :
          :  net charge                          0          :
          :  unpaired electrons                  0          :
          ...................................................

 iter      E             dE          RMSdq      gap      omega  full diag
   1    -42.6665429 -0.426665E+02  0.400E-05    3.42       0.0  T
   2    -42.6665429 -0.860467E-11  0.226E-05    3.42     903.7  T
   3    -42.6665429 -0.687805E-11  0.144E-05    3.42    1419.4  T

   *** convergence criteria satisfied after 3 iterations ***

         #    Occupation            Energy/Eh            Energy/eV
      -------------------------------------------------------------
         1        2.0000           -0.7200626             -19.5939
       ...           ...                  ...                  ...
        31        2.0000           -0.4590811             -12.4922
        32        2.0000           -0.4361716             -11.8688
        33        2.0000           -0.4282082             -11.6521
        34        2.0000           -0.4187025             -11.3935
        35        2.0000           -0.4142751             -11.2730
        36        2.0000           -0.4036884             -10.9849
        37        2.0000           -0.3888607             -10.5814 (HOMO)
        38                         -0.2630234              -7.1572 (LUMO)
        39                         -0.2188410              -5.9550
        40                         -0.2047692              -5.5721
        41                         -0.1218599              -3.3160
        42                         -0.0438571              -1.1934
       ...                                ...                  ...
        66                          0.6952460              18.9186
      -------------------------------------------------------------
                  HL-Gap            0.1258374 Eh            3.4242 eV
             Fermi-level           -0.3259420 Eh           -8.8693 eV

 SCC (total)                   0 d,  0 h,  0 min,  0.015 sec
 SCC setup                      ...        0 min,  0.000 sec (  0.888%)
 Dispersion                     ...        0 min,  0.000 sec (  0.682%)
 classical contributions        ...        0 min,  0.000 sec (  0.318%)
 integral evaluation            ...        0 min,  0.003 sec ( 22.104%)
 iterations                     ...        0 min,  0.003 sec ( 18.325%)
 molecular gradient             ...        0 min,  0.009 sec ( 57.144%)
 printout                       ...        0 min,  0.000 sec (  0.495%)

         :::::::::::::::::::::::::::::::::::::::::::::::::::::
         ::                     SUMMARY                     ::
         :::::::::::::::::::::::::::::::::::::::::::::::::::::
         :: total energy             -42.153937218649 Eh    ::
         :: gradient norm              0.000423648059 Eh/a0 ::
         :: HOMO-LUMO gap              3.424208823708 eV    ::
         ::.................................................::
         :: SCC energy               -42.666443135032 Eh    ::
         :: -> isotropic ES            0.083547176404 Eh    ::
         :: -> anisotropic ES          0.002975275713 Eh    ::
         :: -> anisotropic XC          0.013405975875 Eh    ::
         :: -> dispersion             -0.023331009395 Eh    ::
         :: repulsion energy           0.512505916382 Eh    ::
         :: add. restraining           0.000000000000 Eh    ::
         :: total charge              -0.000000000000 e     ::
         :::::::::::::::::::::::::::::::::::::::::::::::::::::

           -------------------------------------------------
          |                Property Printout                |
           -------------------------------------------------

    * Orbital Energies and Occupations

         #    Occupation            Energy/Eh            Energy/eV
      -------------------------------------------------------------
         1        2.0000           -0.7200626             -19.5939
       ...           ...                  ...                  ...
        25        2.0000           -0.5059153             -13.7667
        26        2.0000           -0.5042524             -13.7214
        27        2.0000           -0.5037174             -13.7068
        28        2.0000           -0.4953592             -13.4794
        29        2.0000           -0.4798505             -13.0574
        30        2.0000           -0.4742884             -12.9060
        31        2.0000           -0.4590811             -12.4922
        32        2.0000           -0.4361716             -11.8688
        33        2.0000           -0.4282082             -11.6521
        34        2.0000           -0.4187025             -11.3935
        35        2.0000           -0.4142751             -11.2730
        36        2.0000           -0.4036884             -10.9849
        37        2.0000           -0.3888607             -10.5814 (HOMO)
        38                         -0.2630234              -7.1572 (LUMO)
        39                         -0.2188410              -5.9550
        40                         -0.2047692              -5.5721
        41                         -0.1218599              -3.3160
        42                         -0.0438571              -1.1934
        43                          0.0013454               0.0366
        44                          0.0235532               0.6409
        45                          0.0862218               2.3462
        46                          0.0949866               2.5847
        47                          0.1178831               3.2078
        48                          0.1289028               3.5076
       ...                                ...                  ...
        66                          0.6952460              18.9186
      -------------------------------------------------------------
                  HL-Gap            0.1258374 Eh            3.4242 eV
             Fermi-level           -0.3259420 Eh           -8.8693 eV

     #   Z          covCN         q      C6AA      α(0)
     1   8 O        0.860    -0.441    22.509     6.361
     2   6 C        2.730     0.314    21.668     7.621
     3   7 N        2.750    -0.117    23.549     7.207
     4   6 C        2.764     0.264    22.553     7.777
     5   8 O        0.858    -0.436    22.409     6.347
     6   6 C        3.709    -0.042    21.460     6.621
     7   7 N        2.741    -0.076    22.719     7.079
     8   6 C        3.196     0.123    24.827     8.123
     9   6 C        3.121    -0.040    28.819     8.792
    10   7 N        2.837     0.002    21.217     6.841
    11   6 C        3.204     0.088    25.488     8.224
    12   7 N        1.896    -0.283    28.193     7.872
    13   6 C        3.689    -0.055    21.754     6.675
    14   6 C        3.700    -0.051    21.652     6.654
    15   1 H        0.925     0.069     2.094     2.263
    16   1 H        0.925     0.090     1.878     2.143
    17   1 H        0.925     0.069     2.094     2.263
    18   1 H        0.926     0.055     2.261     2.351
    19   1 H        0.924     0.082     1.959     2.189
    20   1 H        0.924     0.082     1.959     2.189
    21   1 H        0.925     0.066     2.132     2.283
    22   1 H        0.925     0.094     1.844     2.123
    23   1 H        0.925     0.072     2.069     2.249
    24   1 H        0.925     0.072     2.069     2.249

 Mol. C6AA /au·bohr⁶  :       6699.925346
 Mol. C8AA /au·bohr⁸  :     153302.172192
 Mol. α(0) /au        :        124.498084


Wiberg/Mayer (AO) data.
largest (>0.10) Wiberg bond orders for each atom

 ---------------------------------------------------------------------------
     #   Z sym  total        # sym  WBO       # sym  WBO       # sym  WBO
 ---------------------------------------------------------------------------
     1   8 O    1.990 --     2 C    1.632     7 N    0.140     3 N    0.130
     2   6 C    3.961 --     1 O    1.632     7 N    1.124     3 N    1.108
     3   7 N    3.545 --     2 C    1.108     4 C    1.096     6 C    0.981
                             5 O    0.147     1 O    0.130
     4   6 C    3.960 --     5 O    1.646     9 C    1.110     3 N    1.096
     5   8 O    2.004 --     4 C    1.646     3 N    0.147
     6   6 C    3.948 --     3 N    0.981    15 H    0.975    17 H    0.975
                            16 H    0.973
     7   7 N    3.563 --     8 C    1.142     2 C    1.124    14 C    0.982
                             1 O    0.140
     8   6 C    3.967 --     9 C    1.347    12 N    1.286     7 N    1.142
     9   6 C    3.936 --     8 C    1.347    10 N    1.149     4 C    1.110
    10   7 N    3.652 --    11 C    1.305     9 C    1.149    13 C    1.000
                            12 N    0.108
    11   6 C    3.955 --    12 N    1.477    10 N    1.305    18 H    0.962
    12   7 N    3.008 --    11 C    1.477     8 C    1.286    10 N    0.108
    13   6 C    3.959 --    10 N    1.000    21 H    0.981    19 H    0.970
                            20 H    0.970
    14   6 C    3.947 --     7 N    0.982    24 H    0.975    23 H    0.975
                            22 H    0.974
    15   1 H    0.994 --     6 C    0.975
    16   1 H    0.991 --     6 C    0.973
    17   1 H    0.994 --     6 C    0.975
    18   1 H    0.996 --    11 C    0.962
    19   1 H    0.993 --    13 C    0.970
    20   1 H    0.993 --    13 C    0.970
    21   1 H    0.995 --    13 C    0.981
    22   1 H    0.991 --    14 C    0.974
    23   1 H    0.993 --    14 C    0.975
    24   1 H    0.993 --    14 C    0.975
 ---------------------------------------------------------------------------

Topologies differ in total number of bonds
Writing topology from bond orders to xtbtopo.mol

molecular dipole:
                 x           y           z       tot (Debye)
 q only:        1.316       0.373       0.094
   full:        1.588       0.151       0.104       4.063
molecular quadrupole (traceless):
                xx          xy          yy          xz          yz          zz
 q only:        3.452      -0.911      -2.232       0.265      -0.089      -1.220
  q+dip:        3.886      -0.717      -7.283       0.007      -0.386       3.397
   full:        3.152      -0.926      -7.940      -0.133      -0.465       4.788

           -------------------------------------------------
          |                Geometry Summary                 |
           -------------------------------------------------

      molecular mass/u    :      194.1909174
   center of mass at/Å    :       -0.0908836       0.0213790      -0.0050094
  moments of inertia/u·Å² :        0.4709515E+03   0.7053016E+03   0.1166793E+04
rotational constants/cm⁻¹ :        0.3579484E-01   0.2390131E-01   0.1444783E-01

 * 25 selected distances

     #   Z          #   Z                                           value/Å
     1   8 O        2   6 C                                       1.2114552
     2   6 C        3   7 N                                       1.3895663
     3   7 N        4   6 C                                       1.3980516
     4   6 C        5   8 O                                       1.2162895
     3   7 N        6   6 C                                       1.4540699 (max)
     2   6 C        7   7 N                                       1.3794296
     7   7 N        8   6 C                                       1.3590809
     4   6 C        9   6 C                                       1.4312454
     8   6 C        9   6 C                                       1.3873873
     9   6 C       10   7 N                                       1.3758394
    10   7 N       11   6 C                                       1.3441040
     8   6 C       12   7 N                                       1.3510648
    11   6 C       12   7 N                                       1.3163535
    10   7 N       13   6 C                                       1.4344409
     7   7 N       14   6 C                                       1.4463586
     6   6 C       15   1 H                                       1.0895907
     6   6 C       16   1 H                                       1.0874718
     6   6 C       17   1 H                                       1.0895913
    11   6 C       18   1 H                                       1.0718320 (min)
    13   6 C       19   1 H                                       1.0909601
    13   6 C       20   1 H                                       1.0909605
    13   6 C       21   1 H                                       1.0883417
    14   6 C       22   1 H                                       1.0879810
    14   6 C       23   1 H                                       1.0896832
    14   6 C       24   1 H                                       1.0896829

 * 4 distinct bonds (by element types)

   Z      Z             #   av. dist./Å        max./Å        min./Å
   1 H    6 C          10     1.0876095     1.0909605     1.0718320
   6 C    6 C           2     1.4093164     1.4312454     1.3873873
   6 C    7 N          11     1.3862145     1.4540699     1.3163535
   6 C    8 O           2     1.2138724     1.2162895     1.2114552


optimized geometry written to: xtbopt.xyz


           -------------------------------------------------
          | TOTAL ENERGY              -42.153937218649 Eh   |
          | GRADIENT NORM               0.000423648059 Eh/α |
          | HOMO-LUMO GAP               3.424208823708 eV   |
           -------------------------------------------------

------------------------------------------------------------------------
 * finished run on 2025/05/15 at 16:04:43.006     
------------------------------------------------------------------------
 total:
 * wall-time:     0 d,  0 h,  0 min,  0.339 sec
 *  cpu-time:     0 d,  0 h,  0 min,  0.177 sec
 * ratio c/w:     0.521 speedup
 SCF:
 * wall-time:     0 d,  0 h,  0 min,  0.024 sec
 *  cpu-time:     0 d,  0 h,  0 min,  0.024 sec
 * ratio c/w:     0.995 speedup
 ANC optimizer:
 * wall-time:     0 d,  0 h,  0 min,  0.236 sec
 *  cpu-time:     0 d,  0 h,  0 min,  0.144 sec
 * ratio c/w:     0.610 speedup



----- Single-point -----
      -----------------------------------------------------------      
     |                   =====================                   |     
     |                           x T B                           |     
     |                   =====================                   |     
     |                         S. Grimme                         |     
     |          Mulliken Center for Theoretical Chemistry        |     
     |                    University of Bonn                     |     
      -----------------------------------------------------------      

   * xtb version 6.7.1 (edcfbbe) compiled by 'conda@3ef47c1a292c' on 2024-11-25

   xtb is free software: you can redistribute it and/or modify it under
   the terms of the GNU Lesser General Public License as published by
   the Free Software Foundation, either version 3 of the License, or
   (at your option) any later version.
   
   xtb is distributed in the hope that it will be useful,
   but WITHOUT ANY WARRANTY; without even the implied warranty of
   MERCHANTABILITY or FITNESS FOR A PARTICULAR PURPOSE.  See the
   GNU Lesser General Public License for more details.
   
   Cite this work as:
   * C. Bannwarth, E. Caldeweyher, S. Ehlert, A. Hansen, P. Pracht,
     J. Seibert, S. Spicher, S. Grimme, WIREs Comput. Mol. Sci., 2020, 11,
     e01493. DOI: 10.1002/wcms.1493
   
   for GFN2-xTB:
   * C. Bannwarth, S. Ehlert and S. Grimme., J. Chem. Theory Comput., 2019,
     15, 1652-1671. DOI: 10.1021/acs.jctc.8b01176
   for GFN1-xTB:
   * S. Grimme, C. Bannwarth, P. Shushkov, J. Chem. Theory Comput., 2017,
     13, 1989-2009. DOI: 10.1021/acs.jctc.7b00118
   for GFN0-xTB:
   * P. Pracht, E. Caldeweyher, S. Ehlert, S. Grimme, ChemRxiv, 2019, preprint.
     DOI: 10.26434/chemrxiv.8326202.v1
   for GFN-FF:
   * S. Spicher and S. Grimme, Angew. Chem. Int. Ed., 2020, 59, 15665-15673.
     DOI: 10.1002/anie.202004239
   
   for ALPB and GBSA implicit solvation:
   * S. Ehlert, M. Stahn, S. Spicher, S. Grimme, J. Chem. Theory Comput.,
     2021, 17, 4250-4261. DOI: 10.1021/acs.jctc.1c00471
   
   for ddCOSMO and CPCM-X implicit solvation:
   * M. Stahn, S. Ehlert, S. Grimme, J. Phys. Chem. A,
     2023, XX, XXXX-XXXX. DOI: 10.1021/acs.jpca.3c04382
   
   for DFT-D4:
   * E. Caldeweyher, C. Bannwarth and S. Grimme, J. Chem. Phys., 2017,
     147, 034112. DOI: 10.1063/1.4993215
   * E. Caldeweyher, S. Ehlert, A. Hansen, H. Neugebauer, S. Spicher,
     C. Bannwarth and S. Grimme, J. Chem. Phys., 2019, 150, 154122.
     DOI: 10.1063/1.5090222
   * E. Caldeweyher, J.-M. Mewes, S. Ehlert and S. Grimme, Phys. Chem. Chem. Phys.
     2020, 22, 8499-8512. DOI: 10.1039/D0CP00502A
   
   for sTDA-xTB:
   * S. Grimme and C. Bannwarth, J. Chem. Phys., 2016, 145, 054103.
     DOI: 10.1063/1.4959605
   
   in the mass-spec context:
   * V. Asgeirsson, C. Bauer and S. Grimme, Chem. Sci., 2017, 8, 4879.
     DOI: 10.1039/c7sc00601b
   * J. Koopman and S. Grimme, ACS Omega 2019, 4, 12, 15120-15133.
     DOI: 10.1021/acsomega.9b02011
   
   for metadynamics refer to:
   * S. Grimme, J. Chem. Theory Comput., 2019, 155, 2847-2862
     DOI: 10.1021/acs.jctc.9b00143
   
   for SPH calculations refer to:
   * S. Spicher and S. Grimme, J. Chem. Theory Comput., 2021, 17, 1701-1714
     DOI: 10.1021/acs.jctc.0c01306
   
   for ONIOM refer to:
   * C. Plett, A. Katbashev, S. Ehlert, S. Grimme, M. Bursch,
     Phys. Chem. Chem. Phys., 2023, 25, 17860-17868. DOI: 10.1039/D3CP02178E
   
   for DIPRO refer to:
   * J. Kohn, N. Gildemeister, S. Grimme, D. Fazzi, A. Hansen,
     J. Chem. Phys., 2023, just accepted.
   
   for PTB refer to:
   * S. Grimme, M. Mueller, A. Hansen, J. Chem. Phys., 2023, 158, 124111.
     DOI: 10.1063/5.0137838
   
   with help from (in alphabetical order)
   P. Atkinson, C. Bannwarth, F. Bohle, G. Brandenburg, E. Caldeweyher
   M. Checinski, S. Dohm, S. Ehlert, S. Ehrlich, I. Gerasimov, C. Hölzer
   A. Katbashev, J. Kohn, J. Koopman, C. Lavigne, S. Lehtola, F. März, M. Müller,
   F. Musil, H. Neugebauer, J. Pisarek, C. Plett, P. Pracht, F. Pultar,
   J. Seibert, P. Shushkov, S. Spicher, M. Stahn, M. Steiner, T. Strunk,
   J. Stückrath, T. Rose, and J. Unsleber
   
 * started run on 2025/05/15 at 16:04:43.018     
   ID    Z sym.   atoms
    1    8 O      1, 5
    2    6 C      2, 4, 6, 8, 9, 11, 13, 14
    3    7 N      3, 7, 10, 12
    4    1 H      15-24

           -------------------------------------------------
          |                Calculation Setup                |
           -------------------------------------------------

          program call               : xtb /rds/general/user/hgt20/home/callum/QDESCP/Caffeine_rdkit_conf_1/Caffeine_rdkit_conf_1.xyz --acc 1 --gfn 2 --chrg 0 --uhf 0 --etemp 300 --input /rds/general/user/hgt20/home/callum/QDESCP/Caffeine_rdkit_conf_1/Caffeine_rdkit_conf_1_xtb.inp -P 1
          hostname                   : login-c
          coordinate file            : /rds/general/user/hgt20/home/callum/QDESCP/Caffeine_rdkit_conf_1/Caffeine_rdkit_conf_1.xyz
          omp threads                :                     1


           -------------------------------------------------
          |                 G F N 2 - x T B                 |
           -------------------------------------------------

        Reference                      10.1021/acs.jctc.8b01176
      * Hamiltonian:
        H0-scaling (s, p, d)           1.850000    2.230000    2.230000
        zeta-weighting                 0.500000
      * Dispersion:
        s8                             2.700000
        a1                             0.520000
        a2                             5.000000
        s9                             5.000000
      * Repulsion:
        kExp                           1.500000    1.000000
        rExp                           1.000000
      * Coulomb:
        alpha                          2.000000
        third order                    shell-resolved
        anisotropic                    true
        a3                             3.000000
        a5                             4.000000
        cn-shift                       1.200000
        cn-exp                         4.000000
        max-rad                        5.000000

q/qsh data taken from xtbrestart
CAMM data taken from xtbrestart

          ...................................................
          :                      SETUP                      :
          :.................................................:
          :  # basis functions                  66          :
          :  # atomic orbitals                  66          :
          :  # shells                           38          :
          :  # electrons                        74          :
          :  max. iterations                   250          :
          :  Hamiltonian                  GFN2-xTB          :
          :  restarted?                       true          :
          :  GBSA solvation                  false          :
          :  PC potential                    false          :
          :  electronic temp.          300.0000000     K    :
          :  accuracy                    1.0000000          :
          :  -> integral cutoff          0.2500000E+02      :
          :  -> integral neglect         0.1000000E-07      :
          :  -> SCF convergence          0.1000000E-05 Eh   :
          :  -> wf. convergence          0.1000000E-03 e    :
          :  Broyden damping             0.4000000          :
          :  net charge                          0          :
          :  unpaired electrons                  0          :
          ...................................................

 iter      E             dE          RMSdq      gap      omega  full diag
   1    -42.6665429 -0.426665E+02  0.272E-06    3.42       0.0  T
   2    -42.6665429 -0.923706E-13  0.176E-06    3.42   11624.8  T
   3    -42.6665429  0.000000E+00  0.972E-07    3.42   20996.0  T

   *** convergence criteria satisfied after 3 iterations ***

         #    Occupation            Energy/Eh            Energy/eV
      -------------------------------------------------------------
         1        2.0000           -0.7200625             -19.5939
       ...           ...                  ...                  ...
        31        2.0000           -0.4590811             -12.4922
        32        2.0000           -0.4361716             -11.8688
        33        2.0000           -0.4282082             -11.6521
        34        2.0000           -0.4187024             -11.3935
        35        2.0000           -0.4142751             -11.2730
        36        2.0000           -0.4036883             -10.9849
        37        2.0000           -0.3888607             -10.5814 (HOMO)
        38                         -0.2630233              -7.1572 (LUMO)
        39                         -0.2188410              -5.9550
        40                         -0.2047692              -5.5721
        41                         -0.1218599              -3.3160
        42                         -0.0438571              -1.1934
       ...                                ...                  ...
        66                          0.6952460              18.9186
      -------------------------------------------------------------
                  HL-Gap            0.1258374 Eh            3.4242 eV
             Fermi-level           -0.3259420 Eh           -8.8693 eV

 SCC (total)                   0 d,  0 h,  0 min,  0.066 sec
 SCC setup                      ...        0 min,  0.000 sec (  0.314%)
 Dispersion                     ...        0 min,  0.000 sec (  0.276%)
 classical contributions        ...        0 min,  0.000 sec (  0.088%)
 integral evaluation            ...        0 min,  0.004 sec (  5.358%)
 iterations                     ...        0 min,  0.053 sec ( 80.511%)
 molecular gradient             ...        0 min,  0.009 sec ( 13.255%)
 printout                       ...        0 min,  0.000 sec (  0.188%)

         :::::::::::::::::::::::::::::::::::::::::::::::::::::
         ::                     SUMMARY                     ::
         :::::::::::::::::::::::::::::::::::::::::::::::::::::
         :: total energy             -42.153937218650 Eh    ::
         :: gradient norm              0.000423520931 Eh/a0 ::
         :: HOMO-LUMO gap              3.424209650129 eV    ::
         ::.................................................::
         :: SCC energy               -42.666443135033 Eh    ::
         :: -> isotropic ES            0.083547142812 Eh    ::
         :: -> anisotropic ES          0.002975277919 Eh    ::
         :: -> anisotropic XC          0.013405976036 Eh    ::
         :: -> dispersion             -0.023331009047 Eh    ::
         :: repulsion energy           0.512505916382 Eh    ::
         :: add. restraining           0.000000000000 Eh    ::
         :: total charge              -0.000000000000 e     ::
         :::::::::::::::::::::::::::::::::::::::::::::::::::::

           -------------------------------------------------
          |                Property Printout                |
           -------------------------------------------------

    * Orbital Energies and Occupations

         #    Occupation            Energy/Eh            Energy/eV
      -------------------------------------------------------------
         1        2.0000           -0.7200625             -19.5939
       ...           ...                  ...                  ...
        25        2.0000           -0.5059153             -13.7667
        26        2.0000           -0.5042524             -13.7214
        27        2.0000           -0.5037173             -13.7068
        28        2.0000           -0.4953592             -13.4794
        29        2.0000           -0.4798506             -13.0574
        30        2.0000           -0.4742883             -12.9060
        31        2.0000           -0.4590811             -12.4922
        32        2.0000           -0.4361716             -11.8688
        33        2.0000           -0.4282082             -11.6521
        34        2.0000           -0.4187024             -11.3935
        35        2.0000           -0.4142751             -11.2730
        36        2.0000           -0.4036883             -10.9849
        37        2.0000           -0.3888607             -10.5814 (HOMO)
        38                         -0.2630233              -7.1572 (LUMO)
        39                         -0.2188410              -5.9550
        40                         -0.2047692              -5.5721
        41                         -0.1218599              -3.3160
        42                         -0.0438571              -1.1934
        43                          0.0013454               0.0366
        44                          0.0235532               0.6409
        45                          0.0862218               2.3462
        46                          0.0949867               2.5847
        47                          0.1178832               3.2078
        48                          0.1289029               3.5076
       ...                                ...                  ...
        66                          0.6952460              18.9186
      -------------------------------------------------------------
                  HL-Gap            0.1258374 Eh            3.4242 eV
             Fermi-level           -0.3259420 Eh           -8.8693 eV

     #   Z          covCN         q      C6AA      α(0)
     1   8 O        0.860    -0.441    22.509     6.361
     2   6 C        2.730     0.314    21.668     7.621
     3   7 N        2.750    -0.117    23.549     7.207
     4   6 C        2.764     0.264    22.553     7.777
     5   8 O        0.858    -0.436    22.409     6.347
     6   6 C        3.709    -0.042    21.460     6.621
     7   7 N        2.741    -0.076    22.719     7.079
     8   6 C        3.196     0.123    24.827     8.123
     9   6 C        3.121    -0.040    28.819     8.792
    10   7 N        2.837     0.002    21.217     6.841
    11   6 C        3.204     0.088    25.488     8.224
    12   7 N        1.896    -0.283    28.193     7.872
    13   6 C        3.689    -0.055    21.754     6.675
    14   6 C        3.700    -0.051    21.652     6.654
    15   1 H        0.925     0.069     2.094     2.263
    16   1 H        0.925     0.090     1.878     2.143
    17   1 H        0.925     0.069     2.094     2.263
    18   1 H        0.926     0.055     2.261     2.351
    19   1 H        0.924     0.082     1.959     2.189
    20   1 H        0.924     0.082     1.959     2.189
    21   1 H        0.925     0.066     2.132     2.283
    22   1 H        0.925     0.094     1.844     2.123
    23   1 H        0.925     0.072     2.069     2.249
    24   1 H        0.925     0.072     2.069     2.249

 Mol. C6AA /au·bohr⁶  :       6699.925345
 Mol. C8AA /au·bohr⁸  :     153302.172229
 Mol. α(0) /au        :        124.498085


Wiberg/Mayer (AO) data.
largest (>0.10) Wiberg bond orders for each atom

 ---------------------------------------------------------------------------
     #   Z sym  total        # sym  WBO       # sym  WBO       # sym  WBO
 ---------------------------------------------------------------------------
     1   8 O    1.990 --     2 C    1.632     7 N    0.140     3 N    0.130
     2   6 C    3.961 --     1 O    1.632     7 N    1.124     3 N    1.108
     3   7 N    3.545 --     2 C    1.108     4 C    1.096     6 C    0.981
                             5 O    0.147     1 O    0.130
     4   6 C    3.960 --     5 O    1.646     9 C    1.110     3 N    1.096
     5   8 O    2.004 --     4 C    1.646     3 N    0.147
     6   6 C    3.948 --     3 N    0.981    15 H    0.975    17 H    0.975
                            16 H    0.973
     7   7 N    3.563 --     8 C    1.142     2 C    1.124    14 C    0.982
                             1 O    0.140
     8   6 C    3.967 --     9 C    1.347    12 N    1.286     7 N    1.142
     9   6 C    3.936 --     8 C    1.347    10 N    1.149     4 C    1.110
    10   7 N    3.652 --    11 C    1.305     9 C    1.149    13 C    1.000
                            12 N    0.108
    11   6 C    3.955 --    12 N    1.477    10 N    1.305    18 H    0.962
    12   7 N    3.008 --    11 C    1.477     8 C    1.286    10 N    0.108
    13   6 C    3.959 --    10 N    1.000    21 H    0.981    19 H    0.970
                            20 H    0.970
    14   6 C    3.947 --     7 N    0.982    24 H    0.975    23 H    0.975
                            22 H    0.974
    15   1 H    0.994 --     6 C    0.975
    16   1 H    0.991 --     6 C    0.973
    17   1 H    0.994 --     6 C    0.975
    18   1 H    0.996 --    11 C    0.962
    19   1 H    0.993 --    13 C    0.970
    20   1 H    0.993 --    13 C    0.970
    21   1 H    0.995 --    13 C    0.981
    22   1 H    0.991 --    14 C    0.974
    23   1 H    0.993 --    14 C    0.975
    24   1 H    0.993 --    14 C    0.975
 ---------------------------------------------------------------------------

Topologies differ in total number of bonds
Writing topology from bond orders to xtbtopo.mol

molecular dipole:
                 x           y           z       tot (Debye)
 q only:        1.316       0.373       0.094
   full:        1.588       0.151       0.104       4.063
molecular quadrupole (traceless):
                xx          xy          yy          xz          yz          zz
 q only:        3.452      -0.911      -2.232       0.265      -0.089      -1.220
  q+dip:        3.886      -0.717      -7.283       0.007      -0.386       3.397
   full:        3.152      -0.926      -7.940      -0.133      -0.465       4.788


           -------------------------------------------------
          | TOTAL ENERGY              -42.153937218650 Eh   |
          | GRADIENT NORM               0.000423520931 Eh/α |
          | HOMO-LUMO GAP               3.424209650129 eV   |
           -------------------------------------------------

------------------------------------------------------------------------
 * finished run on 2025/05/15 at 16:04:43.094     
------------------------------------------------------------------------
 total:
 * wall-time:     0 d,  0 h,  0 min,  0.076 sec
 *  cpu-time:     0 d,  0 h,  0 min,  0.025 sec
 * ratio c/w:     0.327 speedup
 SCF:
 * wall-time:     0 d,  0 h,  0 min,  0.066 sec
 *  cpu-time:     0 d,  0 h,  0 min,  0.017 sec
 * ratio c/w:     0.252 speedup



----- FOD -----
      -----------------------------------------------------------      
     |                   =====================                   |     
     |                           x T B                           |     
     |                   =====================                   |     
     |                         S. Grimme                         |     
     |          Mulliken Center for Theoretical Chemistry        |     
     |                    University of Bonn                     |     
      -----------------------------------------------------------      

   * xtb version 6.7.1 (edcfbbe) compiled by 'conda@3ef47c1a292c' on 2024-11-25

   xtb is free software: you can redistribute it and/or modify it under
   the terms of the GNU Lesser General Public License as published by
   the Free Software Foundation, either version 3 of the License, or
   (at your option) any later version.
   
   xtb is distributed in the hope that it will be useful,
   but WITHOUT ANY WARRANTY; without even the implied warranty of
   MERCHANTABILITY or FITNESS FOR A PARTICULAR PURPOSE.  See the
   GNU Lesser General Public License for more details.
   
   Cite this work as:
   * C. Bannwarth, E. Caldeweyher, S. Ehlert, A. Hansen, P. Pracht,
     J. Seibert, S. Spicher, S. Grimme, WIREs Comput. Mol. Sci., 2020, 11,
     e01493. DOI: 10.1002/wcms.1493
   
   for GFN2-xTB:
   * C. Bannwarth, S. Ehlert and S. Grimme., J. Chem. Theory Comput., 2019,
     15, 1652-1671. DOI: 10.1021/acs.jctc.8b01176
   for GFN1-xTB:
   * S. Grimme, C. Bannwarth, P. Shushkov, J. Chem. Theory Comput., 2017,
     13, 1989-2009. DOI: 10.1021/acs.jctc.7b00118
   for GFN0-xTB:
   * P. Pracht, E. Caldeweyher, S. Ehlert, S. Grimme, ChemRxiv, 2019, preprint.
     DOI: 10.26434/chemrxiv.8326202.v1
   for GFN-FF:
   * S. Spicher and S. Grimme, Angew. Chem. Int. Ed., 2020, 59, 15665-15673.
     DOI: 10.1002/anie.202004239
   
   for ALPB and GBSA implicit solvation:
   * S. Ehlert, M. Stahn, S. Spicher, S. Grimme, J. Chem. Theory Comput.,
     2021, 17, 4250-4261. DOI: 10.1021/acs.jctc.1c00471
   
   for ddCOSMO and CPCM-X implicit solvation:
   * M. Stahn, S. Ehlert, S. Grimme, J. Phys. Chem. A,
     2023, XX, XXXX-XXXX. DOI: 10.1021/acs.jpca.3c04382
   
   for DFT-D4:
   * E. Caldeweyher, C. Bannwarth and S. Grimme, J. Chem. Phys., 2017,
     147, 034112. DOI: 10.1063/1.4993215
   * E. Caldeweyher, S. Ehlert, A. Hansen, H. Neugebauer, S. Spicher,
     C. Bannwarth and S. Grimme, J. Chem. Phys., 2019, 150, 154122.
     DOI: 10.1063/1.5090222
   * E. Caldeweyher, J.-M. Mewes, S. Ehlert and S. Grimme, Phys. Chem. Chem. Phys.
     2020, 22, 8499-8512. DOI: 10.1039/D0CP00502A
   
   for sTDA-xTB:
   * S. Grimme and C. Bannwarth, J. Chem. Phys., 2016, 145, 054103.
     DOI: 10.1063/1.4959605
   
   in the mass-spec context:
   * V. Asgeirsson, C. Bauer and S. Grimme, Chem. Sci., 2017, 8, 4879.
     DOI: 10.1039/c7sc00601b
   * J. Koopman and S. Grimme, ACS Omega 2019, 4, 12, 15120-15133.
     DOI: 10.1021/acsomega.9b02011
   
   for metadynamics refer to:
   * S. Grimme, J. Chem. Theory Comput., 2019, 155, 2847-2862
     DOI: 10.1021/acs.jctc.9b00143
   
   for SPH calculations refer to:
   * S. Spicher and S. Grimme, J. Chem. Theory Comput., 2021, 17, 1701-1714
     DOI: 10.1021/acs.jctc.0c01306
   
   for ONIOM refer to:
   * C. Plett, A. Katbashev, S. Ehlert, S. Grimme, M. Bursch,
     Phys. Chem. Chem. Phys., 2023, 25, 17860-17868. DOI: 10.1039/D3CP02178E
   
   for DIPRO refer to:
   * J. Kohn, N. Gildemeister, S. Grimme, D. Fazzi, A. Hansen,
     J. Chem. Phys., 2023, just accepted.
   
   for PTB refer to:
   * S. Grimme, M. Mueller, A. Hansen, J. Chem. Phys., 2023, 158, 124111.
     DOI: 10.1063/5.0137838
   
   with help from (in alphabetical order)
   P. Atkinson, C. Bannwarth, F. Bohle, G. Brandenburg, E. Caldeweyher
   M. Checinski, S. Dohm, S. Ehlert, S. Ehrlich, I. Gerasimov, C. Hölzer
   A. Katbashev, J. Kohn, J. Koopman, C. Lavigne, S. Lehtola, F. März, M. Müller,
   F. Musil, H. Neugebauer, J. Pisarek, C. Plett, P. Pracht, F. Pultar,
   J. Seibert, P. Shushkov, S. Spicher, M. Stahn, M. Steiner, T. Strunk,
   J. Stückrath, T. Rose, and J. Unsleber
   
 * started run on 2025/05/15 at 16:04:43.582     
   ID    Z sym.   atoms
    1    8 O      1, 5
    2    6 C      2, 4, 6, 8, 9, 11, 13, 14
    3    7 N      3, 7, 10, 12
    4    1 H      15-24

           -------------------------------------------------
          |                Calculation Setup                |
           -------------------------------------------------

          program call               : xtb /rds/general/user/hgt20/home/callum/QDESCP/Caffeine_rdkit_conf_1/Caffeine_rdkit_conf_1.xyz --fod --gfn 2 --chrg 0 --acc 1 --uhf 0 --etemp 300 -P 1
          hostname                   : login-c
          coordinate file            : /rds/general/user/hgt20/home/callum/QDESCP/Caffeine_rdkit_conf_1/Caffeine_rdkit_conf_1.xyz
          omp threads                :                     1


           -------------------------------------------------
          |                 G F N 2 - x T B                 |
           -------------------------------------------------

        Reference                      10.1021/acs.jctc.8b01176
      * Hamiltonian:
        H0-scaling (s, p, d)           1.850000    2.230000    2.230000
        zeta-weighting                 0.500000
      * Dispersion:
        s8                             2.700000
        a1                             0.520000
        a2                             5.000000
        s9                             5.000000
      * Repulsion:
        kExp                           1.500000    1.000000
        rExp                           1.000000
      * Coulomb:
        alpha                          2.000000
        third order                    shell-resolved
        anisotropic                    true
        a3                             3.000000
        a5                             4.000000
        cn-shift                       1.200000
        cn-exp                         4.000000
        max-rad                        5.000000


          ...................................................
          :                      SETUP                      :
          :.................................................:
          :  # basis functions                  66          :
          :  # atomic orbitals                  66          :
          :  # shells                           38          :
          :  # electrons                        74          :
          :  max. iterations                   250          :
          :  Hamiltonian                  GFN2-xTB          :
          :  restarted?                      false          :
          :  GBSA solvation                  false          :
          :  PC potential                    false          :
          :  electronic temp.         5000.0000000     K    :
          :  accuracy                    1.0000000          :
          :  -> integral cutoff          0.2500000E+02      :
          :  -> integral neglect         0.1000000E-07      :
          :  -> SCF convergence          0.1000000E-05 Eh   :
          :  -> wf. convergence          0.1000000E-03 e    :
          :  Broyden damping             0.4000000          :
          :  net charge                          0          :
          :  unpaired electrons                  0          :
          ...................................................

 iter      E             dE          RMSdq      gap      omega  full diag
   1    -42.5174705 -0.425175E+02  0.430E+00    3.44       0.0  T
   2    -42.6598399 -0.142369E+00  0.256E+00    3.43       1.0  T
   3    -42.6671553 -0.731543E-02  0.141E+00    3.48       1.0  T
   4    -42.6672416 -0.863211E-04  0.237E-01    3.41       1.0  T
   5    -42.6681823 -0.940649E-03  0.857E-02    3.44       1.0  T
   6    -42.6682071 -0.247989E-04  0.474E-02    3.45       1.0  T
   7    -42.6682202 -0.131128E-04  0.207E-02    3.44       1.0  T
   8    -42.6682227 -0.255235E-05  0.612E-03    3.44       3.3  T
   9    -42.6682228 -0.102765E-06  0.279E-03    3.45       7.3  T
  10    -42.6682229 -0.523225E-07  0.102E-03    3.44      20.1  T
  11    -42.6682229 -0.100751E-07  0.442E-04    3.45      46.2  T
  12    -42.6682229 -0.552859E-09  0.108E-04    3.45     189.0  T

   *** convergence criteria satisfied after 12 iterations ***

         #    Occupation            Energy/Eh            Energy/eV
      -------------------------------------------------------------
         1        2.0000           -0.7203572             -19.6019
       ...           ...                  ...                  ...
        31        1.9997           -0.4590824             -12.4923
        32        1.9986           -0.4359720             -11.8634
        33        1.9978           -0.4286528             -11.6642
        34        1.9958           -0.4186501             -11.3920
        35        1.9945           -0.4144412             -11.2775
        36        1.9892           -0.4037176             -10.9857
        37        1.9727           -0.3889118             -10.5828 (HOMO)
        38        0.0476           -0.2623097              -7.1378 (LUMO)
        39        0.0032           -0.2191774              -5.9641
        40        0.0013           -0.2043032              -5.5594
        41        0.0000           -0.1215634              -3.3079
        42                         -0.0438164              -1.1923
       ...                                ...                  ...
        66                          0.6956552              18.9297
      -------------------------------------------------------------
                  HL-Gap            0.1266021 Eh            3.4450 eV
             Fermi-level           -0.3211108 Eh           -8.7379 eV

 SCC (total)                   0 d,  0 h,  0 min,  0.024 sec
 SCC setup                      ...        0 min,  0.000 sec (  0.718%)
 Dispersion                     ...        0 min,  0.000 sec (  0.679%)
 classical contributions        ...        0 min,  0.000 sec (  0.220%)
 integral evaluation            ...        0 min,  0.003 sec ( 14.517%)
 iterations                     ...        0 min,  0.011 sec ( 45.433%)
 molecular gradient             ...        0 min,  0.009 sec ( 38.017%)
 printout                       ...        0 min,  0.000 sec (  0.392%)

         :::::::::::::::::::::::::::::::::::::::::::::::::::::
         ::                     SUMMARY                     ::
         :::::::::::::::::::::::::::::::::::::::::::::::::::::
         :: total energy             -42.155617172540 Eh    ::
         :: gradient norm              0.006263101392 Eh/a0 ::
         :: HOMO-LUMO gap              3.445019206242 eV    ::
         ::.................................................::
         :: SCC energy               -42.668123088922 Eh    ::
         :: -> isotropic ES            0.083066268876 Eh    ::
         :: -> anisotropic ES          0.002922308431 Eh    ::
         :: -> anisotropic XC          0.013173170866 Eh    ::
         :: -> dispersion             -0.023329972487 Eh    ::
         :: repulsion energy           0.512505916382 Eh    ::
         :: add. restraining           0.000000000000 Eh    ::
         :: total charge               0.000000000000 e     ::
         :::::::::::::::::::::::::::::::::::::::::::::::::::::

           -------------------------------------------------
          |                Property Printout                |
           -------------------------------------------------

    * Orbital Energies and Occupations

         #    Occupation            Energy/Eh            Energy/eV
      -------------------------------------------------------------
         1        2.0000           -0.7203572             -19.6019
       ...           ...                  ...                  ...
        25        2.0000           -0.5058446             -13.7647
        26        2.0000           -0.5040854             -13.7169
        27        2.0000           -0.5032791             -13.6949
        28        2.0000           -0.4955614             -13.4849
        29        1.9999           -0.4803725             -13.0716
        30        1.9999           -0.4742965             -12.9063
        31        1.9997           -0.4590824             -12.4923
        32        1.9986           -0.4359720             -11.8634
        33        1.9978           -0.4286528             -11.6642
        34        1.9958           -0.4186501             -11.3920
        35        1.9945           -0.4144412             -11.2775
        36        1.9892           -0.4037176             -10.9857
        37        1.9727           -0.3889118             -10.5828 (HOMO)
        38        0.0476           -0.2623097              -7.1378 (LUMO)
        39        0.0032           -0.2191774              -5.9641
        40        0.0013           -0.2043032              -5.5594
        41        0.0000           -0.1215634              -3.3079
        42                         -0.0438164              -1.1923
        43                          0.0016452               0.0448
        44                          0.0235937               0.6420
        45                          0.0861621               2.3446
        46                          0.0952652               2.5923
        47                          0.1180969               3.2136
        48                          0.1293053               3.5186
       ...                                ...                  ...
        66                          0.6956552              18.9297
      -------------------------------------------------------------
                  HL-Gap            0.1266021 Eh            3.4450 eV
             Fermi-level           -0.3211108 Eh           -8.7379 eV

     #   Z          covCN         q      C6AA      α(0)
     1   8 O        0.860    -0.439    22.469     6.355
     2   6 C        2.730     0.314    21.673     7.622
     3   7 N        2.750    -0.117    23.551     7.208
     4   6 C        2.764     0.261    22.598     7.785
     5   8 O        0.858    -0.436    22.415     6.348
     6   6 C        3.709    -0.041    21.458     6.621
     7   7 N        2.741    -0.075    22.695     7.075
     8   6 C        3.196     0.121    24.851     8.127
     9   6 C        3.121    -0.039    28.787     8.787
    10   7 N        2.837     0.001    21.235     6.844
    11   6 C        3.204     0.087    25.521     8.229
    12   7 N        1.896    -0.281    28.147     7.865
    13   6 C        3.689    -0.055    21.751     6.675
    14   6 C        3.700    -0.051    21.655     6.655
    15   1 H        0.925     0.069     2.094     2.263
    16   1 H        0.925     0.090     1.876     2.142
    17   1 H        0.925     0.069     2.094     2.263
    18   1 H        0.926     0.054     2.268     2.355
    19   1 H        0.924     0.082     1.961     2.190
    20   1 H        0.924     0.082     1.961     2.190
    21   1 H        0.925     0.066     2.133     2.284
    22   1 H        0.925     0.094     1.842     2.123
    23   1 H        0.925     0.072     2.062     2.246
    24   1 H        0.925     0.072     2.062     2.246

 Mol. C6AA /au·bohr⁶  :       6699.554013
 Mol. C8AA /au·bohr⁸  :     153300.157687
 Mol. α(0) /au        :        124.496240


NFOD :     0.1041

 Loewdin FODpop      n(s)   n(p)   n(d)
     1O     0.0072   0.000  0.007  0.000
     2C     0.0019   0.000  0.002  0.000
     3N     0.0054   0.000  0.005  0.000
     4C     0.0111   0.000  0.011  0.000
     5O     0.0156   0.000  0.016  0.000
     6C     0.0006   0.000  0.001  0.000
     7N     0.0093   0.000  0.009  0.000
     8C     0.0089   0.000  0.009  0.000
     9C     0.0099   0.000  0.010  0.000
    10N     0.0079   0.000  0.008  0.000
    11C     0.0133   0.000  0.013  0.000
    12N     0.0091   0.002  0.008  0.000
    13C     0.0002   0.000  0.000  0.000
    14C     0.0006   0.000  0.001  0.000
    15H     0.0004   0.000  0.000  0.000
    16H     0.0000   0.000  0.000  0.000
    17H     0.0004   0.000  0.000  0.000
    18H     0.0000   0.000  0.000  0.000
    19H     0.0005   0.000  0.000  0.000
    20H     0.0005   0.000  0.000  0.000
    21H     0.0000   0.000  0.000  0.000
    22H     0.0000   0.000  0.000  0.000
    23H     0.0007   0.001  0.000  0.000
    24H     0.0007   0.001  0.000  0.000

Wiberg/Mayer (AO) data.
largest (>0.10) Wiberg bond orders for each atom

 ---------------------------------------------------------------------------
     #   Z sym  total        # sym  WBO       # sym  WBO       # sym  WBO
 ---------------------------------------------------------------------------
     1   8 O    1.980 --     2 C    1.629     7 N    0.136     3 N    0.129
     2   6 C    3.957 --     1 O    1.629     7 N    1.122     3 N    1.110
     3   7 N    3.534 --     2 C    1.110     4 C    1.090     6 C    0.982
                             5 O    0.142     1 O    0.129
     4   6 C    3.939 --     5 O    1.636     9 C    1.112     3 N    1.090
     5   8 O    1.978 --     4 C    1.636     3 N    0.142
     6   6 C    3.947 --     3 N    0.982    15 H    0.975    17 H    0.975
                            16 H    0.973
     7   7 N    3.547 --     8 C    1.141     2 C    1.122    14 C    0.982
                             1 O    0.136
     8   6 C    3.949 --     9 C    1.338    12 N    1.286     7 N    1.141
     9   6 C    3.917 --     8 C    1.338    10 N    1.149     4 C    1.112
    10   7 N    3.635 --    11 C    1.296     9 C    1.149    13 C    1.000
                            12 N    0.105
    11   6 C    3.929 --    12 N    1.473    10 N    1.296    18 H    0.963
    12   7 N    3.000 --    11 C    1.473     8 C    1.286    10 N    0.105
    13   6 C    3.958 --    10 N    1.000    21 H    0.981    19 H    0.969
                            20 H    0.969
[...]
           -------------------------------------------------

------------------------------------------------------------------------
 * finished run on 2025/05/15 at 16:04:44.215     
------------------------------------------------------------------------
 total:
 * wall-time:     0 d,  0 h,  0 min,  0.033 sec
 *  cpu-time:     0 d,  0 h,  0 min,  0.031 sec
 * ratio c/w:     0.951 speedup
 SCF:
 * wall-time:     0 d,  0 h,  0 min,  0.023 sec
 *  cpu-time:     0 d,  0 h,  0 min,  0.023 sec
 * ratio c/w:     0.995 speedup



----- Triplet -----
      -----------------------------------------------------------      
     |                   =====================                   |     
     |                           x T B                           |     
     |                   =====================                   |     
     |                         S. Grimme                         |     
     |          Mulliken Center for Theoretical Chemistry        |     
     |                    University of Bonn                     |     
      -----------------------------------------------------------      

   * xtb version 6.7.1 (edcfbbe) compiled by 'conda@3ef47c1a292c' on 2024-11-25

   xtb is free software: you can redistribute it and/or modify it under
   the terms of the GNU Lesser General Public License as published by
   the Free Software Foundation, either version 3 of the License, or
   (at your option) any later version.
   
   xtb is distributed in the hope that it will be useful,
   but WITHOUT ANY WARRANTY; without even the implied warranty of
   MERCHANTABILITY or FITNESS FOR A PARTICULAR PURPOSE.  See the
   GNU Lesser General Public License for more details.
   
   Cite this work as:
   * C. Bannwarth, E. Caldeweyher, S. Ehlert, A. Hansen, P. Pracht,
     J. Seibert, S. Spicher, S. Grimme, WIREs Comput. Mol. Sci., 2020, 11,
     e01493. DOI: 10.1002/wcms.1493
   
   for GFN2-xTB:
   * C. Bannwarth, S. Ehlert and S. Grimme., J. Chem. Theory Comput., 2019,
     15, 1652-1671. DOI: 10.1021/acs.jctc.8b01176
   for GFN1-xTB:
   * S. Grimme, C. Bannwarth, P. Shushkov, J. Chem. Theory Comput., 2017,
     13, 1989-2009. DOI: 10.1021/acs.jctc.7b00118
   for GFN0-xTB:
   * P. Pracht, E. Caldeweyher, S. Ehlert, S. Grimme, ChemRxiv, 2019, preprint.
     DOI: 10.26434/chemrxiv.8326202.v1
   for GFN-FF:
   * S. Spicher and S. Grimme, Angew. Chem. Int. Ed., 2020, 59, 15665-15673.
     DOI: 10.1002/anie.202004239
   
   for ALPB and GBSA implicit solvation:
   * S. Ehlert, M. Stahn, S. Spicher, S. Grimme, J. Chem. Theory Comput.,
     2021, 17, 4250-4261. DOI: 10.1021/acs.jctc.1c00471
   
   for ddCOSMO and CPCM-X implicit solvation:
   * M. Stahn, S. Ehlert, S. Grimme, J. Phys. Chem. A,
     2023, XX, XXXX-XXXX. DOI: 10.1021/acs.jpca.3c04382
   
   for DFT-D4:
   * E. Caldeweyher, C. Bannwarth and S. Grimme, J. Chem. Phys., 2017,
     147, 034112. DOI: 10.1063/1.4993215
   * E. Caldeweyher, S. Ehlert, A. Hansen, H. Neugebauer, S. Spicher,
     C. Bannwarth and S. Grimme, J. Chem. Phys., 2019, 150, 154122.
     DOI: 10.1063/1.5090222
   * E. Caldeweyher, J.-M. Mewes, S. Ehlert and S. Grimme, Phys. Chem. Chem. Phys.
     2020, 22, 8499-8512. DOI: 10.1039/D0CP00502A
   
   for sTDA-xTB:
   * S. Grimme and C. Bannwarth, J. Chem. Phys., 2016, 145, 054103.
     DOI: 10.1063/1.4959605
   
   in the mass-spec context:
   * V. Asgeirsson, C. Bauer and S. Grimme, Chem. Sci., 2017, 8, 4879.
     DOI: 10.1039/c7sc00601b
   * J. Koopman and S. Grimme, ACS Omega 2019, 4, 12, 15120-15133.
     DOI: 10.1021/acsomega.9b02011
   
   for metadynamics refer to:
   * S. Grimme, J. Chem. Theory Comput., 2019, 155, 2847-2862
     DOI: 10.1021/acs.jctc.9b00143
   
   for SPH calculations refer to:
   * S. Spicher and S. Grimme, J. Chem. Theory Comput., 2021, 17, 1701-1714
     DOI: 10.1021/acs.jctc.0c01306
   
   for ONIOM refer to:
   * C. Plett, A. Katbashev, S. Ehlert, S. Grimme, M. Bursch,
     Phys. Chem. Chem. Phys., 2023, 25, 17860-17868. DOI: 10.1039/D3CP02178E
   
   for DIPRO refer to:
   * J. Kohn, N. Gildemeister, S. Grimme, D. Fazzi, A. Hansen,
     J. Chem. Phys., 2023, just accepted.
   
   for PTB refer to:
   * S. Grimme, M. Mueller, A. Hansen, J. Chem. Phys., 2023, 158, 124111.
     DOI: 10.1063/5.0137838
   
   with help from (in alphabetical order)
   P. Atkinson, C. Bannwarth, F. Bohle, G. Brandenburg, E. Caldeweyher
   M. Checinski, S. Dohm, S. Ehlert, S. Ehrlich, I. Gerasimov, C. Hölzer
   A. Katbashev, J. Kohn, J. Koopman, C. Lavigne, S. Lehtola, F. März, M. Müller,
   F. Musil, H. Neugebauer, J. Pisarek, C. Plett, P. Pracht, F. Pultar,
   J. Seibert, P. Shushkov, S. Spicher, M. Stahn, M. Steiner, T. Strunk,
   J. Stückrath, T. Rose, and J. Unsleber
   
 * started run on 2025/05/15 at 16:04:44.225     
   ID    Z sym.   atoms
    1    8 O      1, 5
    2    6 C      2, 4, 6, 8, 9, 11, 13, 14
    3    7 N      3, 7, 10, 12
    4    1 H      15-24

           -------------------------------------------------
          |                Calculation Setup                |
           -------------------------------------------------

          program call               : xtb /rds/general/user/hgt20/home/callum/QDESCP/Caffeine_rdkit_conf_1/Caffeine_rdkit_conf_1.xyz --acc 1 --gfn 2 --chrg 0 --uhf 2 --etemp 300 --input /rds/general/user/hgt20/home/callum/QDESCP/Caffeine_rdkit_conf_1/Caffeine_rdkit_conf_1_xtb.inp -P 1
          hostname                   : login-c
          coordinate file            : /rds/general/user/hgt20/home/callum/QDESCP/Caffeine_rdkit_conf_1/Caffeine_rdkit_conf_1.xyz
          omp threads                :                     1


           -------------------------------------------------
          |                 G F N 2 - x T B                 |
           -------------------------------------------------

        Reference                      10.1021/acs.jctc.8b01176
      * Hamiltonian:
        H0-scaling (s, p, d)           1.850000    2.230000    2.230000
        zeta-weighting                 0.500000
      * Dispersion:
        s8                             2.700000
        a1                             0.520000
        a2                             5.000000
        s9                             5.000000
      * Repulsion:
        kExp                           1.500000    1.000000
        rExp                           1.000000
      * Coulomb:
        alpha                          2.000000
        third order                    shell-resolved
        anisotropic                    true
        a3                             3.000000
        a5                             4.000000
        cn-shift                       1.200000
        cn-exp                         4.000000
        max-rad                        5.000000


          ...................................................
          :                      SETUP                      :
          :.................................................:
          :  # basis functions                  66          :
          :  # atomic orbitals                  66          :
          :  # shells                           38          :
          :  # electrons                        74          :
          :  max. iterations                   250          :
          :  Hamiltonian                  GFN2-xTB          :
          :  restarted?                      false          :
          :  GBSA solvation                  false          :
          :  PC potential                    false          :
          :  electronic temp.          300.0000000     K    :
          :  accuracy                    1.0000000          :
          :  -> integral cutoff          0.2500000E+02      :
          :  -> integral neglect         0.1000000E-07      :
          :  -> SCF convergence          0.1000000E-05 Eh   :
          :  -> wf. convergence          0.1000000E-03 e    :
          :  Broyden damping             0.4000000          :
          :  net charge                          0          :
          :  unpaired electrons                  2          :
          ...................................................

 iter      E             dE          RMSdq      gap      omega  full diag
   1    -42.3403730 -0.423404E+02  0.424E+00    1.01       0.0  T
   2    -42.4388174 -0.984445E-01  0.281E+00    0.40       1.0  T
   3    -42.4874096 -0.485922E-01  0.212E+00    1.11       1.0  T
   4    -42.5213130 -0.339034E-01  0.116E+00    0.86       1.0  T
   5    -42.5242349 -0.292189E-02  0.649E-01    0.60       1.0  T
   6    -42.5308738 -0.663884E-02  0.260E-01    0.81       1.0  T
   7    -42.5318958 -0.102207E-02  0.159E-01    0.74       1.0  T
   8    -42.5321754 -0.279516E-03  0.849E-02    0.75       1.0  T
   9    -42.5323065 -0.131173E-03  0.239E-02    0.75       1.0  T
  10    -42.5323136 -0.709418E-05  0.969E-03    0.75       2.1  T
  11    -42.5323144 -0.777108E-06  0.500E-03    0.75       4.1  T
  12    -42.5323145 -0.957482E-07  0.279E-03    0.75       7.3  T
  13    -42.5323146 -0.105989E-06  0.861E-04    0.75      23.7  T
  14    -42.5323146 -0.138236E-08  0.481E-04    0.75      42.4  T

   *** convergence criteria satisfied after 14 iterations ***

         #    Occupation            Energy/Eh            Energy/eV
      -------------------------------------------------------------
         1        2.0000           -0.7307119             -19.8837
       ...           ...                  ...                  ...
        32        2.0000           -0.4367767             -11.8853
        33        2.0000           -0.4342253             -11.8159
        34        2.0000           -0.4146987             -11.2845
        35        2.0000           -0.4123994             -11.2220
        36        1.9260           -0.3986606             -10.8481
        37        1.0740           -0.3938590             -10.7174
        38        1.0000           -0.2534305              -6.8962 (HOMO)
        39        0.0000           -0.2258691              -6.1462 (LUMO)
        40                         -0.1984614              -5.4004
        41                         -0.1188127              -3.2331
        42                         -0.0466312              -1.2689
        43                          0.0024871               0.0677
       ...                                ...                  ...
        66                          0.7029181              19.1274
      -------------------------------------------------------------
                  HL-Gap            0.0275614 Eh            0.7500 eV
             Fermi-level           -0.3179548 Eh           -8.6520 eV

 transition dipole moment (au) for excitation:          37          38
     X       Y       Z   
   0.1092   1.7385   0.0623  total (au/Debye):    1.743   4.431
 dE (eV)             :    3.821
 oscillator strength :  0.40226E+00

 SCC (total)                   0 d,  0 h,  0 min,  0.029 sec
 SCC setup                      ...        0 min,  0.000 sec (  0.635%)
 Dispersion                     ...        0 min,  0.000 sec (  0.637%)
 classical contributions        ...        0 min,  0.000 sec (  0.195%)
 integral evaluation            ...        0 min,  0.003 sec ( 12.207%)
 iterations                     ...        0 min,  0.012 sec ( 43.295%)
 molecular gradient             ...        0 min,  0.009 sec ( 30.532%)
 printout                       ...        0 min,  0.004 sec ( 12.475%)

         :::::::::::::::::::::::::::::::::::::::::::::::::::::
         ::                     SUMMARY                     ::
         :::::::::::::::::::::::::::::::::::::::::::::::::::::
         :: total energy             -42.019708885793 Eh    ::
         :: gradient norm              0.150725568516 Eh/a0 ::
         :: HOMO-LUMO gap              0.749984444191 eV    ::
         ::.................................................::
         :: SCC energy               -42.532214802175 Eh    ::
         :: -> isotropic ES            0.081250878230 Eh    ::
         :: -> anisotropic ES          0.002497745552 Eh    ::
         :: -> anisotropic XC          0.011543096320 Eh    ::
         :: -> dispersion             -0.023309017965 Eh    ::
         :: repulsion energy           0.512505916382 Eh    ::
         :: add. restraining           0.000000000000 Eh    ::
         :: total charge               0.000000000000 e     ::
         :::::::::::::::::::::::::::::::::::::::::::::::::::::

           -------------------------------------------------
          |                Property Printout                |
           -------------------------------------------------

    * Orbital Energies and Occupations

         #    Occupation            Energy/Eh            Energy/eV
      -------------------------------------------------------------
         1        2.0000           -0.7307119             -19.8837
       ...           ...                  ...                  ...
        26        2.0000           -0.5022852             -13.6679
        27        2.0000           -0.4974945             -13.5375
        28        2.0000           -0.4922382             -13.3945
        29        2.0000           -0.4904014             -13.3445
        30        2.0000           -0.4703827             -12.7998
        31        2.0000           -0.4641597             -12.6304
        32        2.0000           -0.4367767             -11.8853
        33        2.0000           -0.4342253             -11.8159
        34        2.0000           -0.4146987             -11.2845
        35        2.0000           -0.4123994             -11.2220
        36        1.9260           -0.3986606             -10.8481
        37        1.0740           -0.3938590             -10.7174
        38        1.0000           -0.2534305              -6.8962 (HOMO)
        39        0.0000           -0.2258691              -6.1462 (LUMO)
        40                         -0.1984614              -5.4004
        41                         -0.1188127              -3.2331
        42                         -0.0466312              -1.2689
        43                          0.0024871               0.0677
        44                          0.0234242               0.6374
        45                          0.0819785               2.2307
        46                          0.0958318               2.6077
        47                          0.1227212               3.3394
        48                          0.1336673               3.6373
        49                          0.1339561               3.6451
       ...                                ...                  ...
        66                          0.7029181              19.1274
      -------------------------------------------------------------
                  HL-Gap            0.0275614 Eh            0.7500 eV
             Fermi-level           -0.3179548 Eh           -8.6520 eV

     #   Z          covCN         q      C6AA      α(0)
     1   8 O        0.860    -0.418    22.047     6.295
     2   6 C        2.730     0.314    21.660     7.619
     3   7 N        2.750    -0.127    23.764     7.240
     4   6 C        2.764     0.213    23.494     7.938
     5   8 O        0.858    -0.443    22.555     6.367
     6   6 C        3.709    -0.039    21.414     6.614
     7   7 N        2.741    -0.042    22.050     6.974
     8   6 C        3.196     0.112    25.043     8.158
     9   6 C        3.121    -0.001    27.879     8.647
    10   7 N        2.837    -0.016    21.556     6.896
    11   6 C        3.204     0.073    25.808     8.275
    12   7 N        1.896    -0.284    28.219     7.875
    13   6 C        3.689    -0.053    21.723     6.670
    14   6 C        3.700    -0.057    21.760     6.671
    15   1 H        0.925     0.063     2.159     2.298
    16   1 H        0.925     0.092     1.861     2.133
    17   1 H        0.925     0.063     2.159     2.298
    18   1 H        0.926     0.046     2.366     2.406
    19   1 H        0.924     0.081     1.967     2.193
    20   1 H        0.924     0.081     1.967     2.193
    21   1 H        0.925     0.065     2.138     2.287
    22   1 H        0.925     0.100     1.782     2.088
    23   1 H        0.925     0.087     1.904     2.158
    24   1 H        0.925     0.087     1.904     2.158

 Mol. C6AA /au·bohr⁶  :       6693.847504
 Mol. C8AA /au·bohr⁸  :     153262.782356
 Mol. α(0) /au        :        124.451402


Wiberg/Mayer (AO) data.
largest (>0.10) Wiberg bond orders for each atom

 ---------------------------------------------------------------------------
     #   Z sym  total        # sym  WBO       # sym  WBO       # sym  WBO
 ---------------------------------------------------------------------------
     1   8 O    1.993 --     2 C    1.631     3 N    0.156
     2   6 C    3.959 --     1 O    1.631     3 N    1.167     7 N    1.062
     3   7 N    3.509 --     2 C    1.167     4 C    1.009     6 C    0.983
                             1 O    0.156
     4   6 C    3.909 --     5 O    1.512     9 C    1.179     3 N    1.009
     5   8 O    1.881 --     4 C    1.512     9 C    0.105
     6   6 C    3.949 --     3 N    0.983    15 H    0.976    17 H    0.976
                            16 H    0.972
     7   7 N    3.563 --     8 C    1.207     2 C    1.062    14 C    0.993
     8   6 C    3.875 --    12 N    1.291     7 N    1.207     9 C    1.109
                            11 C    0.112
     9   6 C    3.843 --    10 N    1.226     4 C    1.179     8 C    1.109
                             5 O    0.105
    10   7 N    3.563 --     9 C    1.226    11 C    1.084    13 C    1.007
    11   6 C    3.822 --    12 N    1.469    10 N    1.084    18 H    0.964
                             8 C    0.112
    12   7 N    2.994 --    11 C    1.469     8 C    1.291
    13   6 C    3.960 --    10 N    1.007    21 H    0.981    19 H    0.964
                            20 H    0.964
    14   6 C    3.940 --     7 N    0.993    22 H    0.972    24 H    0.960
                            23 H    0.960
    15   1 H    0.995 --     6 C    0.976
    16   1 H    0.991 --     6 C    0.972
    17   1 H    0.995 --     6 C    0.976
    18   1 H    0.997 --    11 C    0.964
    19   1 H    0.991 --    13 C    0.964
    20   1 H    0.991 --    13 C    0.964
    21   1 H    0.995 --    13 C    0.981
    22   1 H    0.990 --    14 C    0.972
    23   1 H    0.989 --    14 C    0.960
    24   1 H    0.989 --    14 C    0.960
 ---------------------------------------------------------------------------

Topologies differ in total number of bonds
Writing topology from bond orders to xtbtopo.mol

molecular dipole:
                 x           y           z       tot (Debye)
 q only:        0.994       0.818       0.088
   full:        1.211       0.646       0.096       3.497
molecular quadrupole (traceless):
                xx          xy          yy          xz          yz          zz
 q only:        2.663      -2.785      -1.252       0.167      -0.169      -1.411
  q+dip:        3.370      -2.875      -6.810      -0.098      -0.508       3.440
   full:        2.528      -3.104      -7.142      -0.232      -0.571       4.614


           -------------------------------------------------
          | TOTAL ENERGY              -42.019708885793 Eh   |
          | GRADIENT NORM               0.150725568516 Eh/α |
          | HOMO-LUMO GAP               0.749984444191 eV   |
           -------------------------------------------------

------------------------------------------------------------------------
 * finished run on 2025/05/15 at 16:04:44.314     
------------------------------------------------------------------------
 total:
 * wall-time:     0 d,  0 h,  0 min,  0.089 sec
 *  cpu-time:     0 d,  0 h,  0 min,  0.037 sec
 * ratio c/w:     0.411 speedup
 SCF:
 * wall-time:     0 d,  0 h,  0 min,  0.029 sec
 *  cpu-time:     0 d,  0 h,  0 min,  0.029 sec
 * ratio c/w:     0.994 speedup


