41
 energy: -72.627581875764 gnorm: 0.000521858573 xtb: 6.7.1 (edcfbbe)
C           -1.72811482366964       -1.93889825497719        0.35487821893627
C           -0.50362674780191       -1.09134886408561        0.35618284367166
C            0.77904308907679       -1.49817170606485        0.14252674426805
C            1.64425788051984       -0.37897674897162        0.38941040980636
C            0.81830209677708        0.68673078472442        0.79570553083989
N           -0.50883786182996        0.25420724729645        0.73535079074992
C           -1.58764965160202        1.08408996727583        0.99215624497889
C           -2.84562458309133        0.78836683129486        0.25325454602680
C           -4.06984806447933        0.93659904553150        0.89809667497738
C           -5.25199963750445        0.75140408559706        0.20780973098663
C           -5.20736153412021        0.44809196917411       -1.14518367714034
Cl          -6.67997653364300        0.21794571659503       -2.01607806840265
C           -3.99529823525257        0.33563173165528       -1.81082270880028
C           -2.81648352820381        0.50295410493137       -1.10959022918258
O           -1.49379854330625        2.04514383183648        1.72389819010537
C            1.35236626958545        1.91979602015899        1.11544657269317
C            2.72557274221715        2.07572646118902        1.03976903972088
C            3.55855563754118        1.02400299041505        0.64314198067589
O            4.91649281139316        1.11304864906209        0.55106964601731
C            5.54236524100377        2.32719667701618        0.88397841272528
C            3.01716457904849       -0.21343022039707        0.30874600862905
C            1.25314333207149       -2.84453864171256       -0.29894156930824
C            1.66864254520836       -2.78462761534781       -1.75323469440049
O            0.66182153846545       -2.38043851186621       -2.54002090984862
O            2.75436440251967       -3.05830556933334       -2.18245086880116
H           -2.19325846043291       -1.97593732352309       -0.62957858725659
H           -1.45944257671780       -2.95492468222001        0.63749905145763
H           -2.46133918000001       -1.56775711141251        1.06649302032611
H           -4.08385837880355        1.19150025185567        1.94682950810406
H           -6.20230426069633        0.84933289635171        0.70815653060544
H           -3.97911241585196        0.12101323645485       -2.86770622602408
H           -1.87019048467264        0.42795439326089       -1.62494370682966
H            0.72376313042696        2.73746354641072        1.42735632957324
H            3.14495358089724        3.03460013790398        1.29788807306388
H            6.60875718806122        2.15411336822721        0.74621526450785
H            5.22170100182295        3.14142843970903        0.22559842058337
H            5.35421995151099        2.60608257531799        1.92604368664557
H            3.66972382437042       -1.00890659269534       -0.01212270013320
H            0.45238823740628       -3.57923352639470       -0.20852213098800
H            2.11463097153552       -3.16288522863062        0.28907862103359
H            0.95599545022051       -2.33604436161252       -3.46328401459376
