29
 energy: -55.285959204036 gnorm: 0.000890265882 xtb: 6.7.1 (edcfbbe)
O           -1.65470838078288        1.14543717707395        1.07087051484459
C           -2.56518989003504        0.76650713825580        0.07860572468777
C           -2.36385198567545       -0.67044154970984       -0.44432493872698
C           -2.00064396226835       -1.65532587118616        0.67065726065484
C           -0.45944429763489       -1.61159527165975        0.66001779229500
C           -0.14320965640709       -1.26844534217022       -0.81981401595446
N            0.92649909732953       -0.30154861731538       -0.92959204069819
C            2.03655349759949       -0.32865834449191       -1.69344890993348
N            2.71648975255704        0.77755670845837       -1.54293128413585
C            1.97034521865006        1.49682053575038       -0.66494377433623
C            2.35213061868434        2.85487703216950       -0.20200761352752
N            3.53468760813061        3.24575697793701       -0.72251109530207
O            1.68100011287147        3.51984747599924        0.55347089757916
N            0.88336448475471        0.86350417728178       -0.27921080298119
O           -1.30231846587761       -0.75775265056789       -1.39845319047797
O            0.06333315851412       -2.84967293566996        1.06450784928419
O           -2.48816193380178       -2.92928353038771        0.36327782036641
H           -0.79797227942015        1.36840461028770        0.66792063773553
H           -3.55557665951811        0.82100744104940        0.53775700811432
H           -2.53569143017174        1.44709356292299       -0.77989502054937
H           -3.26770947473608       -0.99980079341258       -0.96380810051553
H           -2.38879273070605       -1.31274004423219        1.63871745565811
H           -0.12039937020398       -0.79131264633848        1.30127984600485
H            0.18190195660766       -2.16742679308700       -1.36525072116175
H            2.30864784679315       -1.15116823952105       -2.32178188026935
H            3.89439771426101        4.15977394728106       -0.50671529534173
H            4.01580435506065        2.64498259360811       -1.36971104968853
H            0.96622708800969       -2.74124219000116        1.37637806406461
H           -1.88761199258519       -3.57515455832319        0.75973886231094
