31
 energy: -58.962312532991 gnorm: 0.000658468887 xtb: 6.7.1 (edcfbbe)
N            4.57379167452016       -0.25647976377595       -2.18285710586199
C            3.81670838112647       -0.50715663274158       -1.10644482705039
N            4.42536031302765       -0.80580428202728        0.04436584784056
C            3.69195114130648       -1.05661933585942        1.11257395827136
Cl           4.57179857354496       -1.42392624351081        2.52514190444166
N            2.38220132681615       -1.06191923956103        1.24005977841392
C            1.76696882066520       -0.76779558401484        0.09273711272340
C            2.41003928206890       -0.47387631516586       -1.12207354179677
N            1.46762287509546       -0.22302371999095       -2.08670603721453
C            0.32731264352402       -0.35735600073392       -1.48236806060014
N            0.43121498014677       -0.68556360953250       -0.15919911814778
C           -0.61339457630334       -0.91132989256307        0.82507270675546
C           -0.75746627726852        0.29432758074613        1.75941645219430
C           -1.83274150530699        1.11918543550069        1.05076327447404
C           -2.70767362002490        0.00712552867351        0.43889732721202
O           -1.84663112313657       -1.09334769399123        0.18252971555914
C           -3.43481241546322        0.45385625144807       -0.82816666235253
O           -4.25889689205569        1.54145905215607       -0.46479425165905
O           -2.52922670938972        1.93919983252649        1.93866139620065
H            4.13094560814358       -0.03878857097898       -3.05653294134823
H            5.57311221382932       -0.30527853963633       -2.09755024896472
H           -0.62448979789628       -0.25026536704612       -1.96190102568263
H           -0.33887224513946       -1.82807174682114        1.36344911559928
H            0.18211488247323        0.82224440032878        1.89481131112128
H           -1.13724379532718       -0.01534112680719        2.73207893467608
H           -1.38183918753572        1.71683904437429        0.24038745014815
H           -3.46182654645241       -0.29022378192410        1.18312953649688
H           -4.02325435767039       -0.38340116233483       -1.22169732338185
H           -2.70417040136225        0.76028734009748       -1.58970313186023
H           -4.79426538967171        1.79827183083084       -1.22251342676399
H           -3.30413787628301        2.28267231233527        1.47463188055524
