98
 energy: -148.197564628617 gnorm: 0.000501443827 xtb: 6.7.1 (edcfbbe)
O           -2.28951804236743        0.05315600513648        1.96293947862613
C           -1.23757634066965       -0.51834915322979        1.75009440934151
N           -1.07874696334130       -1.80211911788295        1.40212496284367
C           -2.14954350997276       -2.77414273923597        1.25124490120217
C           -2.93906270505523       -2.91471895851726        2.56677502526849
C           -2.00909182522276       -3.19431043294120        3.71234384106807
C           -1.49301215207062       -4.46912944514573        3.90890867076828
C           -0.60720212801772       -4.71976408454616        4.94131640354713
C           -0.22113326675105       -3.69528955246527        5.78897923399978
C           -0.73027387814438       -2.42198426009330        5.60171083261428
C           -1.61944350474893       -2.17466841400180        4.57070189449983
C           -3.10037795613768       -2.47702487624142        0.06178667939286
C           -2.30771383750950       -2.26182536002627       -1.25482176568970
C           -1.91646177685653       -0.80003309372992       -1.51839764827564
N           -0.71283972017624       -0.72231761679561       -2.33142587105504
C            0.50848163992220       -0.95979967611254       -1.84460706089771
C            1.67600426241598       -0.59497690651068       -2.76634505891912
N            2.80174362966688       -0.27932577679090       -1.91330196971937
C            3.09275106881865        1.04520424967106       -1.68681093311163
N            3.69927006484597        1.32054525922890       -0.49383642189136
C            3.67494709988253        0.43336439493734        0.64898201457174
C            4.16425896413230        2.67665435819230       -0.27061004873582
C            3.17176275464061        3.47980073355910        0.51497104271712
C            2.20944280744315        4.28350775379736       -0.01084508217552
S            1.26404925205686        4.99358281104028        1.23693295278217
C            2.24679762964196        4.12520963391531        2.40823258421925
C            2.01339073374785        4.28907598186707        3.87145816596798
C            2.56317535920462        3.09250118048684        4.64481968038443
C            2.67954271255822        5.58877756678847        4.33804964093444
N            3.16523049923632        3.40549869902893        1.87492762693662
O            2.88727547695514        1.90453636491381       -2.52714082890557
C            1.98969566324443       -1.73625134908120       -3.75494017089457
C            2.99690313841093       -1.25054554431448       -4.79279272787688
C            2.51767780062797       -2.97020396908815       -3.02712432636021
O            0.71612233404742       -1.41278347289510       -0.72602424474418
C           -3.03517209411213        0.02405876475791       -2.18009566563261
C           -3.33255093880239       -0.41570921475260       -3.58371091722360
C           -4.28524291747780       -1.39631081881480       -3.83705456291377
C           -4.52213019257236       -1.83370188218649       -5.12830559496552
C           -3.81354562724438       -1.29284424607480       -6.18785712400153
C           -2.88300041501272       -0.29593036069548       -5.95148830898886
C           -2.64746005681763        0.14141303757374       -4.65929859550182
O           -4.00819260622447       -1.44462470660516        0.33547911984422
O           -0.03188368970438        0.09500608897829        1.83573409662472
C           -0.07648125961010        1.49929728290099        2.06034972625961
C           -0.67281734714764        2.21533654745681        0.89490036597561
C           -0.29986094787891        2.13160036357428       -0.41504712535649
N           -1.05733730719775        2.84249809900452       -1.27907485409509
C           -1.99444685879162        3.47610262809968       -0.67195876465332
S           -2.05457699514234        3.24181835399398        1.04213473194650
H           -0.17294625937974       -2.01919327135826        1.00788860306625
H           -1.65003353710413       -3.72541799645987        1.04228315217798
H           -3.65390727200343       -3.73016128776663        2.44475068125202
H           -3.49355912851984       -1.99569264632128        2.75347465601406
H           -1.79390324420865       -5.27284145636971        3.25129577400289
H           -0.21722907789678       -5.71686081688909        5.08612983652794
H            0.47111501902064       -3.88999548815321        6.59488219504300
H           -0.43564885877998       -1.61963137191301        6.26261658624387
H           -2.02131994428818       -1.18157854165990        4.43196558061638
H           -3.71795173385381       -3.37684938015241       -0.07230863026115
H           -2.89769680401756       -2.62227554192763       -2.09768035657775
H           -1.39808274790287       -2.86163185760013       -1.20546325358997
H           -1.67206557783893       -0.32282005246262       -0.56484816889335
H           -0.82026172879951       -0.38207649331564       -3.27510638295431
H            1.43773814618994        0.31394832353279       -3.33070979671006
H            2.85608258114407       -0.90454456452287       -1.12019146572409
H            2.69990455211226       -0.04876104326455        0.76113247730749
H            4.45212661141683       -0.33403449431246        0.57473018569457
H            3.85544036055884        1.02796753735745        1.54298122381774
H            5.11352567065914        2.63942736220305        0.27064168089420
H            4.30723419759861        3.13363802537163       -1.25126761287669
H            2.00495708973640        4.48325673125370       -1.04238451893812
H            0.93366039170826        4.37318171028057        4.03942451240158
H            2.06309790045052        2.17463687096024        4.34617143183411
H            3.62595267390226        2.98349978614907        4.44857363572956
H            2.41283076087366        3.23921232418019        5.71137463361105
H            2.28172477518953        6.43974767757488        3.78988745803952
H            3.75293923277921        5.53680389456056        4.17155886479561
H            2.49688333200593        5.74105112098874        5.39872916405623
H            1.05063173840781       -1.99715784144529       -4.25855416375259
H            3.26077028815614       -2.05689125980747       -5.47289697457020
H            2.58658832346120       -0.42686437465161       -5.37147383346690
H            3.89775711969486       -0.90049938869361       -4.29575386597511
H            2.60359511831259       -3.80463424983220       -3.71923711087093
H            1.85005164834307       -3.26032573146987       -2.21920428889615
H            3.50116162979485       -2.76743024704938       -2.61097990157710
H           -2.72334538605588        1.07096113119256       -2.18349569807060
H           -3.92395386270581       -0.07934911255141       -1.55729435339724
H           -4.85875682172314       -1.80375388265138       -3.01695114013074
H           -5.26597271864533       -2.59583392611528       -5.30939740493783
H           -3.99726309369998       -1.63534914179239       -7.19533709092549
H           -2.34321227964627        0.14757281312087       -6.77544823860335
H           -1.94905487185404        0.95133204487730       -4.49092646198779
H           -3.56349518434877       -0.76762614442405        0.87761401835259
H            0.96797356617129        1.78692416152245        2.20693275003978
H           -0.65489589380224        1.71430231521005        2.96544827865590
H            0.53540813060747        1.56797132726994       -0.78799728579934
H           -2.70592086190630        4.10538531760630       -1.16836179047620
