43
 energy: -70.319919499063 gnorm: 0.000941273615 xtb: 6.7.1 (edcfbbe)
C           -1.88490770313209        1.66154402226074        1.43014704764668
C           -1.76499341996933        0.29531047510909        0.83420833780789
C           -2.16889111622982        0.02578236138847       -0.47640389730856
O           -2.73945501132333        1.01511247870657       -1.25148357099021
C           -1.79677335695387        1.80116364923040       -1.95817003028977
C           -2.01313425633605       -1.25556854878277       -1.00830874503502
C           -2.40801975256197       -1.55590087878132       -2.41931496809440
C           -1.22462415128613       -0.76230673574516        1.55210763105326
N           -1.05360936349807       -1.97423721087951        1.06333722307744
C           -1.43263149422175       -2.22353845034743       -0.18506871562235
C           -1.08967657650903       -3.57583046222992       -0.69150233765562
S            0.46081515753684       -3.52804927121574       -1.77476306293047
C            1.10599710659991       -2.04209169888313       -0.99027829971079
N            0.90187689723724       -0.81394625869154       -1.36910181719947
C            1.47864643796965       -0.04244004759082       -0.38952278607649
C            2.05254859239857       -0.88454175057767        0.59649260236020
N            1.80639333778529       -2.16098778599846        0.16379484285729
C            2.66919619336585       -0.36310377847971        1.71774297291951
C            2.69809054469980        1.01117872076958        1.85340836677149
C            2.13563959542284        1.85493753573322        0.88486162903117
O            2.12136606775930        3.21866112024839        0.97838151824049
C            2.73672764613678        3.83327680764881        2.08402116708143
C            1.53058428283485        1.33525573497250       -0.25176550166605
O            1.31368350826677       -4.59217477183676       -1.23697749056555
H           -2.69207252305091        2.21127462654454        0.95162819876561
H           -0.95386806983906        2.21189210719774        1.28625075268391
H           -2.07764973455148        1.59530012081091        2.49859668854428
H           -2.36810500545021        2.37665935104271       -2.68483351277352
H           -1.26998068304294        2.48516742804427       -1.28591627058336
H           -1.06498986602042        1.17153653409093       -2.47159407744155
H           -3.01143399113012       -2.46032290711852       -2.47082148988792
H           -2.98699567833662       -0.72937536228556       -2.82192161944369
H           -1.51826877600869       -1.69844896667517       -3.03160528552781
H           -0.89230956903528       -0.62211119199746        2.57274005760686
H           -0.83351388091507       -4.24201470505363        0.12966221937110
H           -1.86601554164995       -4.01419154902635       -1.31345828338378
H            2.04351905145899       -3.03830923273614        0.59882485322399
H            3.10379881017707       -1.00193574557672        2.47116706524559
H            3.16493723267609        1.43028511312462        2.73037871222208
H            2.61532657808617        4.90398100261875        1.92733735222435
H            3.80437068883274        3.59605549779837        2.13670607891915
H            2.25295977730580        3.55085733969285        3.02536661715398
H            1.11554201447068        1.99619528350744       -0.99225017263110
