43
 energy: -70.318115258534 gnorm: 0.000204707154 xtb: 6.7.1 (edcfbbe)
C           -2.69852428170128        1.17869504072056       -2.73291120433613
C           -2.28779716152813        0.18287246754097       -1.69425975618631
C           -3.19025812036392       -0.29105310528203       -0.73773766055310
O           -4.50048214624618        0.15295277256625       -0.74896539300591
C           -4.71979449325729        1.27969696461283        0.07639200867612
C           -2.78223315040839       -1.22776971700569        0.21530472853290
C           -3.75218681896480       -1.77432466856724        1.21558599535503
C           -0.99145506646155       -0.31208830994964       -1.63166338108979
N           -0.57753319855369       -1.16456787721276       -0.71682509883782
C           -1.44038486236339       -1.62084971556325        0.18201769518129
C           -0.85421636748072       -2.47724500335140        1.24240890824346
S           -0.33085775722573       -1.33852803906127        2.64316512310995
C            0.97729053790422       -0.58308516396126        1.67845982920307
N            2.13000175234027       -1.11109620834447        1.39135311972223
C            2.77238662956371       -0.16379979081533        0.63545863670504
C            1.94169694784527        0.97326810001923        0.49419053560974
N            0.80215712858108        0.67178310904035        1.19307742099757
C            2.35065740293786        2.07923517144474       -0.23532396562177
C            3.59932919308992        2.02559724990273       -0.80850022505764
C            4.43954899464087        0.90322407491493       -0.66873450782001
O            5.64612638907316        1.02102305286192       -1.29559614785201
C            6.55355962417665       -0.04911415888056       -1.19831969042149
C            4.03626320360402       -0.20534800431417        0.05321745248722
O           -1.34350291186631       -0.27355238700277        2.71658077629475
H           -3.76908353196286        1.11180303342246       -2.91196639448679
H           -2.46629220678783        2.19192385526749       -2.40195450072316
H           -2.16423921230544        0.99847404371229       -3.66272060075872
H           -4.20492627538555        2.16439314257887       -0.31436373309030
H           -4.38117095214997        1.09707411645796        1.10111665984284
H           -5.79420729399930        1.45511550783089        0.07115659927126
H           -3.72635126128606       -2.86324709836167        1.21794749088342
H           -3.49984952008466       -1.41945006725178        2.21380359665019
H           -4.76053077902723       -1.45493992028243        0.96594366528263
H           -0.24018253063527        0.00896693098684       -2.34179400503526
H            0.06192529584576       -2.95970849801535        0.91483949957407
H           -1.55424494119790       -3.19182967119183        1.66544405063310
H           -0.03729260969457        1.21463443670480        1.31766205973717
H            1.71879237894872        2.94637683386001       -0.35028194738712
H            3.97524575082097        2.85353822313313       -1.38810588271760
H            7.43457313239291        0.25927002157654       -1.75913337727408
H            6.83529732890670       -0.24276851658705       -0.15824911818424
H            6.14476937258706       -0.96385743138789       -1.63934363249464
H            4.64787638766540       -1.08189479675828        0.17922437094903
