57
 energy: -87.645429904737 gnorm: 0.000211321201 xtb: 6.7.1 (edcfbbe)
O           -0.21544699418230       -2.26549299376703        1.50396002603996
C           -1.17926783923746       -1.64953081565800        1.07948166765365
C           -1.96737165874311       -1.98977443701685       -0.08376177605112
C           -1.49402458226041       -3.17210349515621       -0.87705461611521
C           -0.78275573797342       -2.72878922829603       -2.16492090747087
N            0.19270646119890       -1.68864898104500       -1.90230883198315
C            0.51061586284174       -0.89785565913941       -3.07385727548516
C            1.32296858897212        0.32582214310490       -2.66270853845248
C            2.62361345629672       -0.11722038905296       -1.98556635141136
C            2.28317336830039       -1.04841974900063       -0.81886900775994
C            1.40886722517795       -2.20079258092711       -1.29722388248371
C            3.41381112119914        1.05668881076671       -1.52761116900249
N            4.58870655310877        1.31006028972810       -2.01651372890893
O            5.09553447116965        2.43911409995583       -1.43031879933567
C            4.19438580741952        2.89468482891884       -0.54653720606256
C            3.06549477084771        2.05022068238566       -0.54811956226326
C            1.98990457964865        2.32614554194972        0.29526086103477
C            2.07290911808698        3.42886276481355        1.11295345883605
C            3.20899466216896        4.24213166942510        1.08672326503871
F            3.23477220619919        5.30877154059562        1.90848150685267
C            4.29397964467138        4.01232054389274        0.27068744064416
C           -3.06222938680105       -1.23712185765465       -0.40009683184286
N           -3.43495342228449       -0.15310302214573        0.33451040894698
C           -2.71997502861940        0.17826406547420        1.35508982696079
N           -1.62101862931986       -0.50173431562744        1.75093817737589
C           -0.96126231385096       -0.07824771568013        2.96672606024476
C           -2.00195186861475        0.04752489151211        4.07766481032587
C           -3.13538550230687        1.00702808702338        3.67457555123789
C           -3.07466577553432        1.36953476478414        2.18257587377778
C           -3.95996212852782       -1.51565381852605       -1.56305392677016
H           -2.32963184133041       -3.82047443427604       -1.14829127326958
H           -0.80853043963170       -3.74074878472810       -0.24806302141166
H           -1.52646951276777       -2.31917741973833       -2.85205931910727
H           -0.32795363570885       -3.61156635972013       -2.64927362516639
H           -0.42344757242716       -0.56945544302797       -3.53830099662962
H            1.07851598244169       -1.48199500824321       -3.82283536157412
H            1.54504159569222        0.93502720182391       -3.54079435084465
H            0.72966121898895        0.92156837007344       -1.96808469831852
H            3.23651522291570       -0.66017646573548       -2.71280170285249
H            3.19770925807028       -1.44386773684803       -0.37445915221259
H            1.73819547866993       -0.50249592905847       -0.04943582385350
H            1.97451101069357       -2.82966569273800       -2.01088113828805
H            1.13964655493117       -2.80810868405172       -0.43368522814914
H            1.11614139741786        1.69427605695402        0.30725646584717
H            1.27181529417082        3.69128234665806        1.78577857982371
H            5.15652543546262        4.65603846769344        0.26996290286880
H           -0.21106038094356       -0.83678884484949        3.20380872499830
H           -0.45668433113822        0.87938080115382        2.79966630083364
H           -2.40833862763804       -0.94651712237039        4.27172454762610
H           -1.51055876431561        0.38811332481384        4.98861552059218
H           -4.09869283301518        0.54135935844440        3.88365383445128
H           -3.08366492520406        1.92709178843175        4.25759108426189
H           -4.02770935607133        1.76651915939007        1.83737098137286
H           -2.30997608639738        2.13543239925543        2.02508053294722
H           -4.09487983307947       -2.58350550748548       -1.71329885274722
H           -4.92181320597319       -1.04236554242436       -1.38699950400076
H           -3.53463413289645       -1.09186596501043       -2.47125195074824
