----- Optimization -----
      -----------------------------------------------------------      
     |                   =====================                   |     
     |                           x T B                           |     
     |                   =====================                   |     
     |                         S. Grimme                         |     
     |          Mulliken Center for Theoretical Chemistry        |     
     |                    University of Bonn                     |     
      -----------------------------------------------------------      

   * xtb version 6.7.1 (edcfbbe) compiled by 'conda@3ef47c1a292c' on 2024-11-25

   xtb is free software: you can redistribute it and/or modify it under
   the terms of the GNU Lesser General Public License as published by
   the Free Software Foundation, either version 3 of the License, or
   (at your option) any later version.
   
   xtb is distributed in the hope that it will be useful,
   but WITHOUT ANY WARRANTY; without even the implied warranty of
   MERCHANTABILITY or FITNESS FOR A PARTICULAR PURPOSE.  See the
   GNU Lesser General Public License for more details.
   
   Cite this work as:
   * C. Bannwarth, E. Caldeweyher, S. Ehlert, A. Hansen, P. Pracht,
     J. Seibert, S. Spicher, S. Grimme, WIREs Comput. Mol. Sci., 2020, 11,
     e01493. DOI: 10.1002/wcms.1493
   
   for GFN2-xTB:
   * C. Bannwarth, S. Ehlert and S. Grimme., J. Chem. Theory Comput., 2019,
     15, 1652-1671. DOI: 10.1021/acs.jctc.8b01176
   for GFN1-xTB:
   * S. Grimme, C. Bannwarth, P. Shushkov, J. Chem. Theory Comput., 2017,
     13, 1989-2009. DOI: 10.1021/acs.jctc.7b00118
   for GFN0-xTB:
   * P. Pracht, E. Caldeweyher, S. Ehlert, S. Grimme, ChemRxiv, 2019, preprint.
     DOI: 10.26434/chemrxiv.8326202.v1
   for GFN-FF:
   * S. Spicher and S. Grimme, Angew. Chem. Int. Ed., 2020, 59, 15665-15673.
     DOI: 10.1002/anie.202004239
   
   for ALPB and GBSA implicit solvation:
   * S. Ehlert, M. Stahn, S. Spicher, S. Grimme, J. Chem. Theory Comput.,
     2021, 17, 4250-4261. DOI: 10.1021/acs.jctc.1c00471
   
   for ddCOSMO and CPCM-X implicit solvation:
   * M. Stahn, S. Ehlert, S. Grimme, J. Phys. Chem. A,
     2023, XX, XXXX-XXXX. DOI: 10.1021/acs.jpca.3c04382
   
   for DFT-D4:
   * E. Caldeweyher, C. Bannwarth and S. Grimme, J. Chem. Phys., 2017,
     147, 034112. DOI: 10.1063/1.4993215
   * E. Caldeweyher, S. Ehlert, A. Hansen, H. Neugebauer, S. Spicher,
     C. Bannwarth and S. Grimme, J. Chem. Phys., 2019, 150, 154122.
     DOI: 10.1063/1.5090222
   * E. Caldeweyher, J.-M. Mewes, S. Ehlert and S. Grimme, Phys. Chem. Chem. Phys.
     2020, 22, 8499-8512. DOI: 10.1039/D0CP00502A
   
   for sTDA-xTB:
   * S. Grimme and C. Bannwarth, J. Chem. Phys., 2016, 145, 054103.
     DOI: 10.1063/1.4959605
   
   in the mass-spec context:
   * V. Asgeirsson, C. Bauer and S. Grimme, Chem. Sci., 2017, 8, 4879.
     DOI: 10.1039/c7sc00601b
   * J. Koopman and S. Grimme, ACS Omega 2019, 4, 12, 15120-15133.
     DOI: 10.1021/acsomega.9b02011
   
   for metadynamics refer to:
   * S. Grimme, J. Chem. Theory Comput., 2019, 155, 2847-2862
     DOI: 10.1021/acs.jctc.9b00143
   
   for SPH calculations refer to:
   * S. Spicher and S. Grimme, J. Chem. Theory Comput., 2021, 17, 1701-1714
     DOI: 10.1021/acs.jctc.0c01306
   
   for ONIOM refer to:
   * C. Plett, A. Katbashev, S. Ehlert, S. Grimme, M. Bursch,
     Phys. Chem. Chem. Phys., 2023, 25, 17860-17868. DOI: 10.1039/D3CP02178E
   
   for DIPRO refer to:
   * J. Kohn, N. Gildemeister, S. Grimme, D. Fazzi, A. Hansen,
     J. Chem. Phys., 2023, just accepted.
   
   for PTB refer to:
   * S. Grimme, M. Mueller, A. Hansen, J. Chem. Phys., 2023, 158, 124111.
     DOI: 10.1063/5.0137838
   
   with help from (in alphabetical order)
   P. Atkinson, C. Bannwarth, F. Bohle, G. Brandenburg, E. Caldeweyher
   M. Checinski, S. Dohm, S. Ehlert, S. Ehrlich, I. Gerasimov, C. Hölzer
   A. Katbashev, J. Kohn, J. Koopman, C. Lavigne, S. Lehtola, F. März, M. Müller,
   F. Musil, H. Neugebauer, J. Pisarek, C. Plett, P. Pracht, F. Pultar,
   J. Seibert, P. Shushkov, S. Spicher, M. Stahn, M. Steiner, T. Strunk,
   J. Stückrath, T. Rose, and J. Unsleber
   
 * started run on 2025/05/15 at 16:29:39.854     
   ID    Z sym.   atoms
    1    8 O      1, 14
    2    6 C      2-5, 7-12, 15-19, 21, 22, 24, 26-30
    3    7 N      6, 13, 23, 25
    4    9 F      20
    5    1 H      31-57

           -------------------------------------------------
          |                Calculation Setup                |
           -------------------------------------------------

          program call               : xtb /rds/general/user/hgt20/home/callum/QDESCP/Risperidone_rdkit_conf_23/Risperidone_rdkit_conf_23.xyz --opt normal --acc 1 --gfn 2 --chrg 0 --uhf 0 -P 1
          hostname                   : login-c
          coordinate file            : /rds/general/user/hgt20/home/callum/QDESCP/Risperidone_rdkit_conf_23/Risperidone_rdkit_conf_23.xyz
          omp threads                :                     1


           -------------------------------------------------
          |                 G F N 2 - x T B                 |
           -------------------------------------------------

        Reference                      10.1021/acs.jctc.8b01176
      * Hamiltonian:
        H0-scaling (s, p, d)           1.850000    2.230000    2.230000
        zeta-weighting                 0.500000
      * Dispersion:
        s8                             2.700000
        a1                             0.520000
        a2                             5.000000
        s9                             5.000000
      * Repulsion:
        kExp                           1.500000    1.000000
        rExp                           1.000000
      * Coulomb:
        alpha                          2.000000
        third order                    shell-resolved
        anisotropic                    true
        a3                             3.000000
        a5                             4.000000
        cn-shift                       1.200000
        cn-exp                         4.000000
        max-rad                        5.000000


          ...................................................
          :                      SETUP                      :
          :.................................................:
          :  # basis functions                 147          :
          :  # atomic orbitals                 147          :
          :  # shells                           87          :
          :  # electrons                       158          :
          :  max. iterations                   250          :
          :  Hamiltonian                  GFN2-xTB          :
          :  restarted?                      false          :
          :  GBSA solvation                  false          :
          :  PC potential                    false          :
          :  electronic temp.          300.0000000     K    :
          :  accuracy                    1.0000000          :
          :  -> integral cutoff          0.2500000E+02      :
          :  -> integral neglect         0.1000000E-07      :
          :  -> SCF convergence          0.1000000E-05 Eh   :
          :  -> wf. convergence          0.1000000E-03 e    :
          :  Broyden damping             0.4000000          :
          :  net charge                          0          :
          :  unpaired electrons                  0          :
          ...................................................

 iter      E             dE          RMSdq      gap      omega  full diag
   1    -88.5836475 -0.885836E+02  0.349E+00    3.03       0.0  T
   2    -88.7101404 -0.126493E+00  0.211E+00    2.51       1.0  T
   3    -88.7142325 -0.409210E-02  0.114E+00    2.13       1.0  T
   4    -88.7301527 -0.159202E-01  0.422E-01    1.71       1.0  T
   5    -88.7364795 -0.632686E-02  0.115E-01    1.68       1.0  T
   6    -88.7367825 -0.302981E-03  0.600E-02    1.70       1.0  T
   7    -88.7368677 -0.851543E-04  0.247E-02    1.73       1.0  T
   8    -88.7368731 -0.538631E-05  0.956E-03    1.74       1.4  T
   9    -88.7368749 -0.179892E-05  0.417E-03    1.74       3.2  T
  10    -88.7368751 -0.277509E-06  0.141E-03    1.73       9.4  T
  11    -88.7368752 -0.373306E-07  0.829E-04    1.73      16.0  T
  12    -88.7368752 -0.164552E-07  0.356E-04    1.73      37.2  T

   *** convergence criteria satisfied after 12 iterations ***

         #    Occupation            Energy/Eh            Energy/eV
      -------------------------------------------------------------
         1        2.0000           -0.8300360             -22.5864
       ...           ...                  ...                  ...
        73        2.0000           -0.4208344             -11.4515
        74        2.0000           -0.4144677             -11.2782
        75        2.0000           -0.4073983             -11.0859
        76        2.0000           -0.3894142             -10.5965
        77        2.0000           -0.3853123             -10.4849
        78        2.0000           -0.3832361             -10.4284
        79        2.0000           -0.3477271              -9.4621 (HOMO)
        80                         -0.2840168              -7.7285 (LUMO)
        81                         -0.2530099              -6.8847
        82                         -0.2418148              -6.5801
        83                         -0.2273277              -6.1859
        84                         -0.2078338              -5.6554
       ...                                ...                  ...
       147                          0.6890542              18.7501
      -------------------------------------------------------------
                  HL-Gap            0.0637104 Eh            1.7336 eV
             Fermi-level           -0.3158719 Eh           -8.5953 eV

 SCC (total)                   0 d,  0 h,  0 min,  0.103 sec
 SCC setup                      ...        0 min,  0.001 sec (  0.565%)
 Dispersion                     ...        0 min,  0.001 sec (  0.796%)
 classical contributions        ...        0 min,  0.000 sec (  0.249%)
 integral evaluation            ...        0 min,  0.012 sec ( 11.617%)
 iterations                     ...        0 min,  0.045 sec ( 43.179%)
 molecular gradient             ...        0 min,  0.045 sec ( 43.298%)
 printout                       ...        0 min,  0.000 sec (  0.288%)

         :::::::::::::::::::::::::::::::::::::::::::::::::::::
         ::                     SUMMARY                     ::
         :::::::::::::::::::::::::::::::::::::::::::::::::::::
         :: total energy             -87.628956174503 Eh    ::
         :: gradient norm              0.108283556194 Eh/a0 ::
         :: HOMO-LUMO gap              1.733647268818 eV    ::
         ::.................................................::
         :: SCC energy               -88.735692354174 Eh    ::
         :: -> isotropic ES            0.080260191850 Eh    ::
         :: -> anisotropic ES          0.009533222451 Eh    ::
         :: -> anisotropic XC          0.041254873118 Eh    ::
         :: -> dispersion             -0.062698680830 Eh    ::
         :: repulsion energy           1.106736179672 Eh    ::
         :: add. restraining           0.000000000000 Eh    ::
         :: total charge               0.000000000000 e     ::
         :::::::::::::::::::::::::::::::::::::::::::::::::::::

      ----------------------------------------------------------- 
     |                   =====================                   |
     |                        A N C O P T                        |
     |                   =====================                   |
     |               Approximate Normal Coordinate               |
     |                Rational Function Optimizer                |
      ----------------------------------------------------------- 
      ----------------------------------------------------------- 
     |                   =====================                   |
     |                        A N C O P T                        |
     |                   =====================                   |
     |               Approximate Normal Coordinate               |
     |                Rational Function Optimizer                |
      ----------------------------------------------------------- 

          ...................................................
          :                      SETUP                      :
          :.................................................:
          :   optimization level            normal          :
          :   max. optcycles                   200          :
          :   ANC micro-cycles                  20          :
          :   degrees of freedom               165          :
          :.................................................:
          :   RF solver                   davidson          :
          :   write xtbopt.log                true          :
          :   linear?                        false          :
          :   energy convergence         0.5000000E-05 Eh   :
          :   grad. convergence          0.1000000E-02 Eh/α :
          :   maxmium RF displ.          1.0000000          :
          :   Hlow (freq-cutoff)         0.1000000E-01      :
          :   Hmax (freq-cutoff)         5.0000000          :
          :   S6 in model hess.         20.0000000          :
          ...................................................

generating ANC from exact Hessian ...
Using Lindh-Hessian (1995)
 Shifting diagonal of input Hessian by    9.8841196285030433E-003
 Lowest  eigenvalues of input Hessian
    0.000000    0.000000    0.000000    0.000000    0.000000    0.000000
    0.010000    0.010107    0.010407    0.010466    0.010964    0.011320
    0.011590    0.012579    0.013244    0.014075    0.016802    0.017169
 Highest eigenvalues
    1.922179    1.933773    2.068028    2.167656    2.185892    2.325137


........................................................................
.............................. CYCLE    1 ..............................
........................................................................

 iter      E             dE          RMSdq      gap      omega  full diag
   1    -88.7368752 -0.887369E+02  0.132E-04    1.73       0.0  T
   2    -88.7368752 -0.208786E-09  0.882E-05    1.73     150.1  T
   3    -88.7368752 -0.165585E-09  0.536E-05    1.73     247.3  T
     SCC iter.                  ...        0 min,  0.012 sec
     gradient                   ...        0 min,  0.065 sec
 * total energy  :   -87.6289562 Eh     change       -0.2406125E-08 Eh
   gradient norm :     0.1082840 Eh/α   predicted     0.0000000E+00 (-100.00%)
   displ. norm   :     0.3131715 α      lambda       -0.1613418E-01
   maximum displ.:     0.1181341 α      in ANC's #31, #54, #29, ...

........................................................................
.............................. CYCLE    2 ..............................
........................................................................

 iter      E             dE          RMSdq      gap      omega  full diag
   1    -88.7747452 -0.887747E+02  0.189E-01    1.88       0.0  T
   2    -88.7748493 -0.104066E-03  0.110E-01    1.92       1.0  T
   3    -88.7748174  0.318529E-04  0.393E-02    1.93       1.0  T
   4    -88.7748596 -0.422365E-04  0.108E-02    1.92       1.2  T
   5    -88.7748653 -0.561834E-05  0.394E-03    1.92       3.4  T
   6    -88.7748657 -0.465953E-06  0.166E-03    1.92       8.0  T
   7    -88.7748657 -0.264389E-07  0.663E-04    1.92      20.0  T
   8    -88.7748658 -0.841385E-08  0.230E-04    1.92      57.5  T
     SCC iter.                  ...        0 min,  0.029 sec
     gradient                   ...        0 min,  0.062 sec
 * total energy  :   -87.6399032 Eh     change       -0.1094706E-01 Eh
   gradient norm :     0.0465128 Eh/α   predicted    -0.8863368E-02 ( -19.03%)
   displ. norm   :     0.2645595 α      lambda       -0.4451208E-02
   maximum displ.:     0.1048425 α      in ANC's #10, #31, #29, ...

........................................................................
.............................. CYCLE    3 ..............................
........................................................................

 iter      E             dE          RMSdq      gap      omega  full diag
   1    -88.7960341 -0.887960E+02  0.110E-01    1.99       0.0  T
   2    -88.7960866 -0.524960E-04  0.655E-02    2.01       1.0  T
   3    -88.7960604  0.262320E-04  0.383E-02    2.01       1.0  T
   4    -88.7961027 -0.423218E-04  0.823E-03    2.01       1.6  T
   5    -88.7961065 -0.383801E-05  0.220E-03    2.01       6.0  T
   6    -88.7961067 -0.111414E-06  0.894E-04    2.01      14.8  T
   7    -88.7961067 -0.851634E-08  0.382E-04    2.01      34.7  T
     SCC iter.                  ...        0 min,  0.025 sec
     gradient                   ...        0 min,  0.072 sec
 * total energy  :   -87.6424866 Eh     change       -0.2583380E-02 Eh
   gradient norm :     0.0150851 Eh/α   predicted    -0.2382817E-02 (  -7.76%)
   displ. norm   :     0.1723189 α      lambda       -0.6324119E-03
   maximum displ.:     0.0985678 α      in ANC's #10, #8, #9, ...

........................................................................
.............................. CYCLE    4 ..............................
........................................................................

 iter      E             dE          RMSdq      gap      omega  full diag
   1    -88.7982316 -0.887982E+02  0.359E-02    2.01       0.0  T
   2    -88.7982360 -0.435281E-05  0.211E-02    2.01       1.0  T
   3    -88.7982336  0.237759E-05  0.143E-02    2.01       1.0  T
   4    -88.7982399 -0.629557E-05  0.215E-03    2.01       6.2  T
   5    -88.7982401 -0.191015E-06  0.800E-04    2.01      16.6  T
   6    -88.7982401 -0.992696E-08  0.391E-04    2.01      33.9  T
     SCC iter.                  ...        0 min,  0.021 sec
     gradient                   ...        0 min,  0.071 sec
 * total energy  :   -87.6429546 Eh     change       -0.4679862E-03 Eh
   gradient norm :     0.0080853 Eh/α   predicted    -0.3256017E-03 ( -30.42%)
   displ. norm   :     0.2541212 α      lambda       -0.5116367E-03
   maximum displ.:     0.1476605 α      in ANC's #10, #8, #9, ...

........................................................................
.............................. CYCLE    5 ..............................
........................................................................

 iter      E             dE          RMSdq      gap      omega  full diag
   1    -88.7980897 -0.887981E+02  0.424E-02    2.00       0.0  T
   2    -88.7980926 -0.293373E-05  0.246E-02    2.00       1.0  T
   3    -88.7980859  0.674183E-05  0.154E-02    2.00       1.0  T
   4    -88.7980955 -0.960002E-05  0.183E-03    2.00       7.2  T
   5    -88.7980956 -0.119358E-06  0.768E-04    2.00      17.2  T
   6    -88.7980956 -0.535867E-08  0.347E-04    2.00      38.2  T
     SCC iter.                  ...        0 min,  0.021 sec
     gradient                   ...        0 min,  0.065 sec
 * total energy  :   -87.6432896 Eh     change       -0.3350238E-03 Eh
   gradient norm :     0.0051183 Eh/α   predicted    -0.2723406E-03 ( -18.71%)
   displ. norm   :     0.1832088 α      lambda       -0.1858973E-03
   maximum displ.:     0.0989721 α      in ANC's #10, #8, #9, ...

........................................................................
.............................. CYCLE    6 ..............................
........................................................................

 iter      E             dE          RMSdq      gap      omega  full diag
   1    -88.7977423 -0.887977E+02  0.274E-02    1.99       0.0  T
   2    -88.7977430 -0.703726E-06  0.162E-02    1.99       1.0  T
   3    -88.7977423  0.743501E-06  0.413E-03    1.99       3.2  T
   4    -88.7977432 -0.892501E-06  0.991E-04    1.99      13.4  T
   5    -88.7977432 -0.420057E-07  0.405E-04    1.99      32.7  T
     SCC iter.                  ...        0 min,  0.054 sec
     gradient                   ...        0 min,  0.045 sec
 * total energy  :   -87.6434234 Eh     change       -0.1337254E-03 Eh
   gradient norm :     0.0056096 Eh/α   predicted    -0.9610843E-04 ( -28.13%)
   displ. norm   :     0.1858969 α      lambda       -0.1373248E-03
   maximum displ.:     0.1134193 α      in ANC's #8, #10, #9, ...

........................................................................
.............................. CYCLE    7 ..............................
........................................................................

 iter      E             dE          RMSdq      gap      omega  full diag
   1    -88.7978891 -0.887979E+02  0.287E-02    1.99       0.0  T
   2    -88.7978903 -0.116096E-05  0.172E-02    1.99       1.0  T
   3    -88.7978877  0.259896E-05  0.776E-03    1.99       1.7  T
   4    -88.7978908 -0.316058E-05  0.121E-03    1.99      10.9  T
   5    -88.7978909 -0.576820E-07  0.483E-04    1.99      27.4  T
   6    -88.7978909 -0.414148E-08  0.232E-04    1.99      57.1  T
     SCC iter.                  ...        0 min,  0.060 sec
     gradient                   ...        0 min,  0.044 sec
 * total energy  :   -87.6435186 Eh     change       -0.9526203E-04 Eh
   gradient norm :     0.0047008 Eh/α   predicted    -0.7104019E-04 ( -25.43%)
   displ. norm   :     0.1253160 α      lambda       -0.7539050E-04
   maximum displ.:     0.0804036 α      in ANC's #8, #1, #10, ...

........................................................................
.............................. CYCLE    8 ..............................
........................................................................

 iter      E             dE          RMSdq      gap      omega  full diag
   1    -88.7985364 -0.887985E+02  0.184E-02    1.99       0.0  T
   2    -88.7985370 -0.585204E-06  0.110E-02    1.99       1.2  T
   3    -88.7985357  0.128595E-05  0.650E-03    1.99       2.0  T
   4    -88.7985375 -0.179664E-05  0.818E-04    1.99      16.2  T
   5    -88.7985375 -0.268805E-07  0.345E-04    1.99      38.4  T
   6    -88.7985375 -0.218864E-08  0.164E-04    1.99      80.8  T
     SCC iter.                  ...        0 min,  0.021 sec
     gradient                   ...        0 min,  0.070 sec
 * total energy  :   -87.6435761 Eh     change       -0.5752299E-04 Eh
   gradient norm :     0.0031439 Eh/α   predicted    -0.3828923E-04 ( -33.44%)
   displ. norm   :     0.1471426 α      lambda       -0.7373288E-04
   maximum displ.:     0.0906977 α      in ANC's #8, #1, #4, ...

........................................................................
.............................. CYCLE    9 ..............................
........................................................................

 iter      E             dE          RMSdq      gap      omega  full diag
   1    -88.7992150 -0.887992E+02  0.200E-02    1.99       0.0  T
   2    -88.7992156 -0.536229E-06  0.118E-02    1.99       1.1  T
   3    -88.7992141  0.147031E-05  0.649E-03    1.99       2.0  T
   4    -88.7992160 -0.186893E-05  0.843E-04    1.99      15.7  T
   5    -88.7992160 -0.327364E-07  0.320E-04    1.99      41.4  T
   6    -88.7992160 -0.940759E-09  0.152E-04    1.99      86.9  T
     SCC iter.                  ...        0 min,  0.021 sec
     gradient                   ...        0 min,  0.070 sec
 * total energy  :   -87.6436315 Eh     change       -0.5534527E-04 Eh
   gradient norm :     0.0025925 Eh/α   predicted    -0.3766667E-04 ( -31.94%)
   displ. norm   :     0.1723071 α      lambda       -0.6531776E-04
   maximum displ.:     0.0989679 α      in ANC's #8, #1, #4, ...

........................................................................
.............................. CYCLE   10 ..............................
........................................................................

 iter      E             dE          RMSdq      gap      omega  full diag
   1    -88.7994676 -0.887995E+02  0.219E-02    1.99       0.0  T
   2    -88.7994682 -0.568682E-06  0.129E-02    1.99       1.0  T
   3    -88.7994671  0.103699E-05  0.506E-03    1.99       2.6  T
   4    -88.7994683 -0.121651E-05  0.987E-04    1.99      13.4  T
   5    -88.7994684 -0.494306E-07  0.332E-04    1.99      39.9  T
   6    -88.7994684 -0.606065E-09  0.147E-04    1.99      90.2  T
     SCC iter.                  ...        0 min,  0.021 sec
     gradient                   ...        0 min,  0.071 sec
 * total energy  :   -87.6436807 Eh     change       -0.4919473E-04 Eh
   gradient norm :     0.0034118 Eh/α   predicted    -0.3362959E-04 ( -31.64%)
   displ. norm   :     0.1961274 α      lambda       -0.6221581E-04
   maximum displ.:     0.1009925 α      in ANC's #8, #1, #4, ...

........................................................................
.............................. CYCLE   11 ..............................
........................................................................

 iter      E             dE          RMSdq      gap      omega  full diag
   1    -88.7993444 -0.887993E+02  0.244E-02    1.99       0.0  T
   2    -88.7993450 -0.637552E-06  0.145E-02    1.99       1.0  T
   3    -88.7993441  0.882912E-06  0.446E-03    1.99       3.0  T
   4    -88.7993452 -0.105709E-05  0.902E-04    1.99      14.7  T
   5    -88.7993452 -0.335420E-07  0.377E-04    1.99      35.2  T
   6    -88.7993452 -0.155454E-08  0.176E-04    1.99      75.1  T
     SCC iter.                  ...        0 min,  0.022 sec
     gradient                   ...        0 min,  0.069 sec
 * total energy  :   -87.6437274 Eh     change       -0.4671022E-04 Eh
   gradient norm :     0.0039374 Eh/α   predicted    -0.3230639E-04 ( -30.84%)
   displ. norm   :     0.1927357 α      lambda       -0.5934697E-04
   maximum displ.:     0.0972581 α      in ANC's #1, #4, #8, ...

........................................................................
.............................. CYCLE   12 ..............................
........................................................................

 iter      E             dE          RMSdq      gap      omega  full diag
   1    -88.7991389 -0.887991E+02  0.235E-02    1.98       0.0  T
   2    -88.7991394 -0.542779E-06  0.140E-02    1.98       1.0  T
   3    -88.7991383  0.115318E-05  0.502E-03    1.98       2.6  T
   4    -88.7991397 -0.138579E-05  0.783E-04    1.98      16.9  T
   5    -88.7991397 -0.174839E-07  0.379E-04    1.98      35.0  T
   6    -88.7991397 -0.253061E-08  0.179E-04    1.98      74.2  T
     SCC iter.                  ...        0 min,  0.022 sec
     gradient                   ...        0 min,  0.066 sec
 * total energy  :   -87.6437729 Eh     change       -0.4554823E-04 Eh
   gradient norm :     0.0036411 Eh/α   predicted    -0.3078200E-04 ( -32.42%)
   displ. norm   :     0.2024718 α      lambda       -0.6361392E-04
   maximum displ.:     0.1086325 α      in ANC's #1, #4, #14, ...

........................................................................
.............................. CYCLE   13 ..............................
........................................................................

 iter      E             dE          RMSdq      gap      omega  full diag
   1    -88.7988115 -0.887988E+02  0.246E-02    1.98       0.0  T
   2    -88.7988120 -0.494913E-06  0.146E-02    1.98       1.0  T
   3    -88.7988107  0.128895E-05  0.539E-03    1.98       2.5  T
   4    -88.7988122 -0.152424E-05  0.805E-04    1.98      16.5  T
   5    -88.7988122 -0.197507E-07  0.392E-04    1.98      33.8  T
   6    -88.7988122 -0.317556E-08  0.186E-04    1.98      71.1  T
     SCC iter.                  ...        0 min,  0.022 sec
     gradient                   ...        0 min,  0.066 sec
 * total energy  :   -87.6438226 Eh     change       -0.4965280E-04 Eh
   gradient norm :     0.0030831 Eh/α   predicted    -0.3311148E-04 ( -33.31%)
   displ. norm   :     0.2384694 α      lambda       -0.7573419E-04
   maximum displ.:     0.1331531 α      in ANC's #1, #4, #14, ...

........................................................................
.............................. CYCLE   14 ..............................
........................................................................

 iter      E             dE          RMSdq      gap      omega  full diag
   1    -88.7983318 -0.887983E+02  0.291E-02    1.97       0.0  T
   2    -88.7983324 -0.578244E-06  0.172E-02    1.97       1.0  T
   3    -88.7983314  0.978519E-06  0.481E-03    1.97       2.8  T
   4    -88.7983325 -0.113733E-05  0.100E-03    1.97      13.2  T
   5    -88.7983326 -0.420699E-07  0.411E-04    1.97      32.2  T
   6    -88.7983326 -0.166644E-08  0.193E-04    1.97      68.5  T
     SCC iter.                  ...        0 min,  0.021 sec
     gradient                   ...        0 min,  0.061 sec
 * total energy  :   -87.6438825 Eh     change       -0.5994726E-04 Eh
   gradient norm :     0.0035228 Eh/α   predicted    -0.4002249E-04 ( -33.24%)
   displ. norm   :     0.2938963 α      lambda       -0.1000893E-03
   maximum displ.:     0.1674984 α      in ANC's #1, #14, #4, ...

........................................................................
.............................. CYCLE   15 ..............................
........................................................................

 iter      E             dE          RMSdq      gap      omega  full diag
   1    -88.7979836 -0.887980E+02  0.365E-02    1.97       0.0  T
   2    -88.7979844 -0.792190E-06  0.215E-02    1.97       1.0  T
   3    -88.7979839  0.515918E-06  0.385E-03    1.97       3.4  T
   4    -88.7979845 -0.628664E-06  0.124E-03    1.97      10.7  T
   5    -88.7979846 -0.675322E-07  0.492E-04    1.97      26.9  T
   6    -88.7979846 -0.247611E-08  0.158E-04    1.97      83.9  T
     SCC iter.                  ...        0 min,  0.021 sec
     gradient                   ...        0 min,  0.066 sec
 * total energy  :   -87.6439614 Eh     change       -0.7884278E-04 Eh
   gradient norm :     0.0050191 Eh/α   predicted    -0.5437479E-04 ( -31.03%)
   displ. norm   :     0.3683494 α      lambda       -0.1239589E-03
   maximum displ.:     0.2138348 α      in ANC's #1, #14, #4, ...

........................................................................
.............................. CYCLE   16 ..............................
........................................................................

 iter      E             dE          RMSdq      gap      omega  full diag
   1    -88.7969164 -0.887969E+02  0.461E-02    1.96       0.0  T
   2    -88.7969174 -0.996082E-06  0.272E-02    1.96       1.0  T
   3    -88.7969171  0.351403E-06  0.348E-03    1.96       3.8  T
   4    -88.7969177 -0.564649E-06  0.123E-03    1.96      10.8  T
   5    -88.7969177 -0.380586E-07  0.582E-04    1.96      22.8  T
   6    -88.7969177 -0.520761E-08  0.214E-04    1.96      61.8  T
     SCC iter.                  ...        0 min,  0.021 sec
     gradient                   ...        0 min,  0.058 sec
 * total energy  :   -87.6440559 Eh     change       -0.9447634E-04 Eh
   gradient norm :     0.0070047 Eh/α   predicted    -0.7039095E-04 ( -25.49%)
   displ. norm   :     0.4027510 α      lambda       -0.2157082E-03
   maximum displ.:     0.2241298 α      in ANC's #1, #14, #4, ...

........................................................................
.............................. CYCLE   17 ..............................
........................................................................

 iter      E             dE          RMSdq      gap      omega  full diag
   1    -88.7995888 -0.887996E+02  0.559E-02    1.96       0.0  T
   2    -88.7995929 -0.411294E-05  0.327E-02    1.96       1.0  T
   3    -88.7995906  0.236438E-05  0.810E-03    1.96       1.6  T
   4    -88.7995935 -0.291442E-05  0.240E-03    1.96       5.5  T
   5    -88.7995937 -0.239705E-06  0.874E-04    1.96      15.1  T
   6    -88.7995937 -0.285088E-08  0.433E-04    1.96      30.6  T
     SCC iter.                  ...        0 min,  0.021 sec
     gradient                   ...        0 min,  0.071 sec
 * total energy  :   -87.6441336 Eh     change       -0.7779244E-04 Eh
   gradient norm :     0.0086953 Eh/α   predicted    -0.1253551E-03 (  61.14%)
   displ. norm   :     0.4430397 α      lambda       -0.2416815E-03
   maximum displ.:     0.2673232 α      in ANC's #1, #4, #14, ...

........................................................................
.............................. CYCLE   18 ..............................
........................................................................

 iter      E             dE          RMSdq      gap      omega  full diag
   1    -88.7954993 -0.887955E+02  0.605E-02    1.96       0.0  T
   2    -88.7955053 -0.601598E-05  0.350E-02    1.96       1.0  T
   3    -88.7955045  0.835726E-06  0.739E-03    1.96       1.8  T
   4    -88.7955057 -0.129289E-05  0.279E-03    1.96       4.7  T
   5    -88.7955060 -0.296647E-06  0.105E-03    1.96      12.6  T
   6    -88.7955060  0.234667E-08  0.536E-04    1.96      24.7  T
   7    -88.7955061 -0.138199E-07  0.128E-04    1.96     103.1  T
     SCC iter.                  ...        0 min,  0.027 sec
     gradient                   ...        0 min,  0.073 sec
 * total energy  :   -87.6442165 Eh     change       -0.8288365E-04 Eh
   gradient norm :     0.0097691 Eh/α   predicted    -0.1445644E-03 (  74.42%)
   displ. norm   :     0.2066540 α      lambda       -0.1996941E-03
   maximum displ.:     0.1086613 α      in ANC's #14, #1, #4, ...

........................................................................
.............................. CYCLE   19 ..............................
........................................................................

 iter      E             dE          RMSdq      gap      omega  full diag
   1    -88.8001163 -0.888001E+02  0.322E-02    1.96       0.0  T
   2    -88.8001189 -0.263352E-05  0.185E-02    1.96       1.0  T
   3    -88.8001186  0.341982E-06  0.528E-03    1.96       2.5  T
   4    -88.8001192 -0.607447E-06  0.142E-03    1.96       9.3  T
   5    -88.8001193 -0.795312E-07  0.648E-04    1.96      20.4  T
   6    -88.8001193 -0.745538E-08  0.268E-04    1.96      49.5  T
     SCC iter.                  ...        0 min,  0.021 sec
     gradient                   ...        0 min,  0.060 sec
 * total energy  :   -87.6443065 Eh     change       -0.8995191E-04 Eh
   gradient norm :     0.0039848 Eh/α   predicted    -0.1041122E-03 (  15.74%)
   displ. norm   :     0.1967116 α      lambda       -0.9038633E-04
   maximum displ.:     0.1297888 α      in ANC's #1, #4, #3, ...

........................................................................
.............................. CYCLE   20 ..............................
........................................................................

 iter      E             dE          RMSdq      gap      omega  full diag
   1    -88.8000009 -0.888000E+02  0.262E-02    1.96       0.0  T
   2    -88.8000016 -0.654956E-06  0.153E-02    1.96       1.0  T
   3    -88.8000013  0.312645E-06  0.313E-03    1.96       4.2  T
   4    -88.8000017 -0.422909E-06  0.887E-04    1.96      14.9  T
   5    -88.8000017 -0.299862E-07  0.396E-04    1.96      33.5  T
     SCC iter.                  ...        0 min,  0.018 sec
     gradient                   ...        0 min,  0.047 sec
 * total energy  :   -87.6443783 Eh     change       -0.7180443E-04 Eh
   gradient norm :     0.0017667 Eh/α   predicted    -0.4694336E-04 ( -34.62%)
   displ. norm   :     0.7040943 α      lambda       -0.1376592E-03
   maximum displ.:     0.4729737 α      in ANC's #1, #4, #14, ...
 * RMSD in coord.:     0.4737229 α      energy gain  -0.1542211E-01 Eh

generating ANC from exact Hessian ...
Using Lindh-Hessian (1995)
 Shifting diagonal of input Hessian by    9.8654047299351968E-003
 Lowest  eigenvalues of input Hessian
    0.000000    0.000000    0.000000    0.000000    0.000000    0.000000
    0.010000    0.010091    0.010422    0.010483    0.010998    0.011410
    0.011697    0.012799    0.013498    0.014492    0.017155    0.017533
 Highest eigenvalues
    1.979166    1.982107    2.083836    2.209622    2.225439    2.382551


........................................................................
.............................. CYCLE   21 ..............................
........................................................................

 iter      E             dE          RMSdq      gap      omega  full diag
   1    -88.7959178 -0.887959E+02  0.888E-02    1.97       0.0  T
   2    -88.7959249 -0.710512E-05  0.518E-02    1.97       1.0  T
   3    -88.7959218  0.311022E-05  0.964E-03    1.96       1.4  T
   4    -88.7959260 -0.419683E-05  0.294E-03    1.97       4.5  T
   5    -88.7959263 -0.337682E-06  0.128E-03    1.97      10.3  T
   6    -88.7959263 -0.654370E-08  0.537E-04    1.97      24.7  T
   7    -88.7959263 -0.103283E-07  0.171E-04    1.97      77.4  T
     SCC iter.                  ...        0 min,  0.025 sec
     gradient                   ...        0 min,  0.066 sec
 * total energy  :   -87.6444629 Eh     change       -0.8464488E-04 Eh
   gradient norm :     0.0081814 Eh/α   predicted     0.0000000E+00 (-100.00%)
   displ. norm   :     0.0434428 α      lambda       -0.1550828E-03
   maximum displ.:     0.0146558 α      in ANC's #1, #9, #11, ...

........................................................................
.............................. CYCLE   22 ..............................
........................................................................

 iter      E             dE          RMSdq      gap      omega  full diag
   1    -88.7996144 -0.887996E+02  0.189E-02    1.97       0.0  T
   2    -88.7996160 -0.157546E-05  0.106E-02    1.97       1.2  T
   3    -88.7996159  0.792832E-07  0.362E-03    1.97       3.7  T
   4    -88.7996160 -0.168840E-06  0.106E-03    1.97      12.5  T
   5    -88.7996161 -0.489859E-07  0.382E-04    1.97      34.7  T
   6    -88.7996161  0.144411E-09  0.176E-04    1.97      75.1  T
     SCC iter.                  ...        0 min,  0.022 sec
     gradient                   ...        0 min,  0.060 sec
 * total energy  :   -87.6445615 Eh     change       -0.9859001E-04 Eh
   gradient norm :     0.0029769 Eh/α   predicted    -0.7768809E-04 ( -21.20%)
   displ. norm   :     0.0493134 α      lambda       -0.3743152E-04
   maximum displ.:     0.0219223 α      in ANC's #1, #8, #11, ...

........................................................................
.............................. CYCLE   23 ..............................
........................................................................

 iter      E             dE          RMSdq      gap      omega  full diag
   1    -88.8009100 -0.888009E+02  0.977E-03    1.97       0.0  T
   2    -88.8009104 -0.388125E-06  0.559E-03    1.97       2.4  T
   3    -88.8009104  0.353884E-07  0.191E-03    1.97       6.9  T
   4    -88.8009104 -0.596068E-07  0.549E-04    1.97      24.1  T
   5    -88.8009105 -0.140386E-07  0.185E-04    1.97      71.8  T
     SCC iter.                  ...        0 min,  0.018 sec
     gradient                   ...        0 min,  0.064 sec
 * total energy  :   -87.6445883 Eh     change       -0.2677032E-04 Eh
   gradient norm :     0.0012693 Eh/α   predicted    -0.1876714E-04 ( -29.90%)
   displ. norm   :     0.1228334 α      lambda       -0.3346103E-04
   maximum displ.:     0.0575025 α      in ANC's #1, #8, #11, ...

........................................................................
.............................. CYCLE   24 ..............................
........................................................................

 iter      E             dE          RMSdq      gap      omega  full diag
   1    -88.8014544 -0.888015E+02  0.189E-02    1.97       0.0  T
   2    -88.8014549 -0.526363E-06  0.111E-02    1.97       1.2  T
   3    -88.8014547  0.154535E-06  0.257E-03    1.97       5.2  T
   4    -88.8014549 -0.212074E-06  0.731E-04    1.97      18.1  T
   5    -88.8014550 -0.215533E-07  0.312E-04    1.97      42.4  T
     SCC iter.                  ...        0 min,  0.018 sec
     gradient                   ...        0 min,  0.059 sec
 * total energy  :   -87.6446224 Eh     change       -0.3407723E-04 Eh
   gradient norm :     0.0028839 Eh/α   predicted    -0.1685375E-04 ( -50.54%)
   displ. norm   :     0.1025952 α      lambda       -0.3324729E-04
   maximum displ.:     0.0508473 α      in ANC's #1, #11, #8, ...

........................................................................
.............................. CYCLE   25 ..............................
........................................................................

 iter      E             dE          RMSdq      gap      omega  full diag
   1    -88.8008115 -0.888008E+02  0.141E-02    1.97       0.0  T
   2    -88.8008115 -0.838391E-07  0.832E-03    1.97       1.6  T
   3    -88.8008115 -0.556753E-09  0.866E-04    1.97      15.3  T
   4    -88.8008116 -0.187295E-07  0.385E-04    1.97      34.4  T
     SCC iter.                  ...        0 min,  0.014 sec
     gradient                   ...        0 min,  0.059 sec
 * total energy  :   -87.6446508 Eh     change       -0.2844096E-04 Eh
   gradient norm :     0.0029732 Eh/α   predicted    -0.1679888E-04 ( -40.93%)
   displ. norm   :     0.2373358 α      lambda       -0.6533866E-04
   maximum displ.:     0.1205893 α      in ANC's #1, #11, #8, ...

........................................................................
.............................. CYCLE   26 ..............................
........................................................................

 iter      E             dE          RMSdq      gap      omega  full diag
   1    -88.7989478 -0.887989E+02  0.320E-02    1.97       0.0  T
   2    -88.7989485 -0.636568E-06  0.189E-02    1.97       1.0  T
   3    -88.7989484  0.444742E-07  0.216E-03    1.97       6.1  T
   4    -88.7989486 -0.138478E-06  0.987E-04    1.97      13.4  T
   5    -88.7989486 -0.272776E-07  0.481E-04    1.97      27.6  T
     SCC iter.                  ...        0 min,  0.018 sec
     gradient                   ...        0 min,  0.045 sec
 * total energy  :   -87.6446880 Eh     change       -0.3718361E-04 Eh
   gradient norm :     0.0039773 Eh/α   predicted    -0.3451468E-04 (  -7.18%)
   displ. norm   :     0.0496569 α      lambda       -0.2340629E-04
   maximum displ.:     0.0322840 α      in ANC's #1, #14, #2, ...

........................................................................
.............................. CYCLE   27 ..............................
........................................................................

 iter      E             dE          RMSdq      gap      omega  full diag
   1    -88.7991198 -0.887991E+02  0.694E-03    1.97       0.0  T
   2    -88.7991199 -0.100333E-06  0.404E-03    1.97       3.3  T
   3    -88.7991199  0.424797E-07  0.134E-03    1.97       9.9  T
   4    -88.7991199 -0.561815E-07  0.357E-04    1.97      37.1  T
   5    -88.7991199 -0.599881E-08  0.145E-04    1.97      91.4  T
     SCC iter.                  ...        0 min,  0.018 sec
     gradient                   ...        0 min,  0.045 sec
 * total energy  :   -87.6447086 Eh     change       -0.2060680E-04 Eh
   gradient norm :     0.0029539 Eh/α   predicted    -0.1173707E-04 ( -43.04%)
   displ. norm   :     0.1673101 α      lambda       -0.6572967E-04
   maximum displ.:     0.1090309 α      in ANC's #1, #14, #2, ...

........................................................................
.............................. CYCLE   28 ..............................
........................................................................

 iter      E             dE          RMSdq      gap      omega  full diag
   1    -88.7998947 -0.887999E+02  0.213E-02    1.97       0.0  T
   2    -88.7998954 -0.699779E-06  0.124E-02    1.97       1.1  T
   3    -88.7998950  0.355241E-06  0.359E-03    1.97       3.7  T
   4    -88.7998955 -0.447904E-06  0.101E-03    1.97      13.1  T
   5    -88.7998955 -0.475321E-07  0.413E-04    1.97      32.1  T
   6    -88.7998955 -0.198116E-08  0.169E-04    1.97      78.4  T
     SCC iter.                  ...        0 min,  0.036 sec
     gradient                   ...        0 min,  0.045 sec
 * total energy  :   -87.6447550 Eh     change       -0.4644890E-04 Eh
   gradient norm :     0.0017411 Eh/α   predicted    -0.3378659E-04 ( -27.26%)
   displ. norm   :     0.2959693 α      lambda       -0.3715416E-04
   maximum displ.:     0.1906344 α      in ANC's #1, #14, #11, ...

........................................................................
.............................. CYCLE   29 ..............................
........................................................................

 iter      E             dE          RMSdq      gap      omega  full diag
   1    -88.7991993 -0.887992E+02  0.364E-02    1.97       0.0  T
   2    -88.7992004 -0.107997E-05  0.214E-02    1.97       1.0  T
   3    -88.7991997  0.730135E-06  0.452E-03    1.97       2.9  T
   4    -88.7992006 -0.898614E-06  0.147E-03    1.97       9.0  T
   5    -88.7992007 -0.837989E-07  0.602E-04    1.97      22.0  T
   6    -88.7992007 -0.159368E-08  0.257E-04    1.97      51.6  T
     SCC iter.                  ...        0 min,  0.032 sec
     gradient                   ...        0 min,  0.044 sec
 * total energy  :   -87.6447820 Eh     change       -0.2697276E-04 Eh
   gradient norm :     0.0049301 Eh/α   predicted    -0.1930136E-04 ( -28.44%)
   displ. norm   :     0.0750209 α      lambda       -0.4183354E-04
   maximum displ.:     0.0530753 α      in ANC's #1, #2, #9, ...

........................................................................
.............................. CYCLE   30 ..............................
........................................................................

 iter      E             dE          RMSdq      gap      omega  full diag
   1    -88.8007636 -0.888008E+02  0.121E-02    1.97       0.0  T
   2    -88.8007640 -0.417194E-06  0.685E-03    1.97       1.9  T
   3    -88.8007639  0.105285E-06  0.221E-03    1.97       6.0  T
   4    -88.8007640 -0.126352E-06  0.836E-04    1.97      15.9  T
   5    -88.8007640 -0.344841E-07  0.278E-04    1.97      47.7  T
     SCC iter.                  ...        0 min,  0.039 sec
     gradient                   ...        0 min,  0.045 sec
 * total energy  :   -87.6448070 Eh     change       -0.2493564E-04 Eh
   gradient norm :     0.0036312 Eh/α   predicted    -0.2103542E-04 ( -15.64%)
   displ. norm   :     0.1055032 α      lambda       -0.3000235E-04
   maximum displ.:     0.0785355 α      in ANC's #1, #14, #2, ...

........................................................................
.............................. CYCLE   31 ..............................
........................................................................

 iter      E             dE          RMSdq      gap      omega  full diag
   1    -88.8008804 -0.888009E+02  0.137E-02    1.97       0.0  T
   2    -88.8008806 -0.193348E-06  0.806E-03    1.97       1.6  T
   3    -88.8008805  0.827905E-07  0.157E-03    1.97       8.4  T
   4    -88.8008806 -0.110531E-06  0.496E-04    1.97      26.7  T
   5    -88.8008806 -0.962241E-08  0.221E-04    1.97      59.9  T
     SCC iter.                  ...        0 min,  0.039 sec
     gradient                   ...        0 min,  0.045 sec
 * total energy  :   -87.6448338 Eh     change       -0.2684843E-04 Eh
   gradient norm :     0.0024157 Eh/α   predicted    -0.1516837E-04 ( -43.50%)
   displ. norm   :     0.2439686 α      lambda       -0.6159794E-04
   maximum displ.:     0.1785975 α      in ANC's #1, #14, #2, ...

........................................................................
.............................. CYCLE   32 ..............................
........................................................................

 iter      E             dE          RMSdq      gap      omega  full diag
   1    -88.8001620 -0.888002E+02  0.318E-02    1.97       0.0  T
   2    -88.8001628 -0.802607E-06  0.187E-02    1.97       1.0  T
   3    -88.8001624  0.407602E-06  0.361E-03    1.97       3.7  T
   4    -88.8001629 -0.536963E-06  0.120E-03    1.97      11.0  T
   5    -88.8001630 -0.530167E-07  0.550E-04    1.97      24.1  T
   6    -88.8001630 -0.466601E-08  0.193E-04    1.97      68.5  T
     SCC iter.                  ...        0 min,  0.021 sec
     gradient                   ...        0 min,  0.054 sec
 * total energy  :   -87.6448779 Eh     change       -0.4406444E-04 Eh
   gradient norm :     0.0018636 Eh/α   predicted    -0.3263694E-04 ( -25.93%)
   displ. norm   :     0.2637095 α      lambda       -0.2921070E-04
   maximum displ.:     0.2040781 α      in ANC's #1, #2, #14, ...

........................................................................
.............................. CYCLE   33 ..............................
........................................................................

 iter      E             dE          RMSdq      gap      omega  full diag
   1    -88.7998697 -0.887999E+02  0.326E-02    1.96       0.0  T
   2    -88.7998703 -0.543643E-06  0.191E-02    1.96       1.0  T
   3    -88.7998697  0.520438E-06  0.374E-03    1.96       3.5  T
   4    -88.7998704 -0.658534E-06  0.113E-03    1.96      11.7  T
   5    -88.7998704 -0.404417E-07  0.502E-04    1.96      26.4  T
   6    -88.7998704 -0.291293E-08  0.154E-04    1.96      86.3  T
     SCC iter.                  ...        0 min,  0.021 sec
     gradient                   ...        0 min,  0.054 sec
 * total energy  :   -87.6449077 Eh     change       -0.2985970E-04 Eh
   gradient norm :     0.0031216 Eh/α   predicted    -0.1505743E-04 ( -49.57%)
   displ. norm   :     0.0998026 α      lambda       -0.2483171E-04
   maximum displ.:     0.0810227 α      in ANC's #1, #2, #14, ...

........................................................................
.............................. CYCLE   34 ..............................
........................................................................

 iter      E             dE          RMSdq      gap      omega  full diag
   1    -88.8005879 -0.888006E+02  0.122E-02    1.96       0.0  T
   2    -88.8005881 -0.177302E-06  0.706E-03    1.96       1.9  T
   3    -88.8005880  0.459632E-07  0.143E-03    1.96       9.3  T
   4    -88.8005881 -0.695330E-07  0.539E-04    1.96      24.6  T
   5    -88.8005881 -0.101930E-07  0.230E-04    1.96      57.6  T
     SCC iter.                  ...        0 min,  0.018 sec
     gradient                   ...        0 min,  0.054 sec
 * total energy  :   -87.6449264 Eh     change       -0.1866193E-04 Eh
   gradient norm :     0.0024205 Eh/α   predicted    -0.1254027E-04 ( -32.80%)
   displ. norm   :     0.1859689 α      lambda       -0.3206260E-04
   maximum displ.:     0.1492824 α      in ANC's #1, #2, #14, ...

........................................................................
.............................. CYCLE   35 ..............................
........................................................................

 iter      E             dE          RMSdq      gap      omega  full diag
   1    -88.8005415 -0.888005E+02  0.213E-02    1.96       0.0  T
   2    -88.8005419 -0.333312E-06  0.125E-02    1.96       1.1  T
   3    -88.8005417  0.172813E-06  0.222E-03    1.96       6.0  T
   4    -88.8005419 -0.249896E-06  0.679E-04    1.96      19.5  T
   5    -88.8005419 -0.107995E-07  0.336E-04    1.96      39.4  T
     SCC iter.                  ...        0 min,  0.018 sec
     gradient                   ...        0 min,  0.044 sec
 * total energy  :   -87.6449541 Eh     change       -0.2771644E-04 Eh
   gradient norm :     0.0011581 Eh/α   predicted    -0.1658802E-04 ( -40.15%)
   displ. norm   :     0.2838947 α      lambda       -0.2840230E-04
   maximum displ.:     0.2302836 α      in ANC's #1, #2, #14, ...

........................................................................
.............................. CYCLE   36 ..............................
........................................................................

 iter      E             dE          RMSdq      gap      omega  full diag
   1    -88.8000358 -0.888000E+02  0.326E-02    1.96       0.0  T
   2    -88.8000365 -0.667333E-06  0.191E-02    1.96       1.0  T
   3    -88.8000360  0.426569E-06  0.341E-03    1.96       3.9  T
   4    -88.8000366 -0.593915E-06  0.109E-03    1.96      12.2  T
   5    -88.8000367 -0.290294E-07  0.536E-04    1.96      24.7  T
   6    -88.8000367 -0.346382E-08  0.201E-04    1.96      65.9  T
     SCC iter.                  ...        0 min,  0.022 sec
     gradient                   ...        0 min,  0.072 sec
 * total energy  :   -87.6449871 Eh     change       -0.3300054E-04 Eh
   gradient norm :     0.0020628 Eh/α   predicted    -0.1471010E-04 ( -55.42%)
   displ. norm   :     0.1270582 α      lambda       -0.2034014E-04
   maximum displ.:     0.1055970 α      in ANC's #1, #2, #14, ...

........................................................................
.............................. CYCLE   37 ..............................
........................................................................

 iter      E             dE          RMSdq      gap      omega  full diag
   1    -88.8003480 -0.888003E+02  0.146E-02    1.96       0.0  T
   2    -88.8003481 -0.112556E-06  0.850E-03    1.96       1.6  T
   3    -88.8003480  0.144530E-06  0.182E-03    1.96       7.3  T
   4    -88.8003481 -0.184387E-06  0.495E-04    1.96      26.7  T
   5    -88.8003481 -0.540594E-08  0.242E-04    1.96      54.8  T
     SCC iter.                  ...        0 min,  0.018 sec
     gradient                   ...        0 min,  0.066 sec
 * total energy  :   -87.6450049 Eh     change       -0.1783835E-04 Eh
   gradient norm :     0.0018695 Eh/α   predicted    -0.1033635E-04 ( -42.06%)
   displ. norm   :     0.2441771 α      lambda       -0.2429257E-04
   maximum displ.:     0.2014728 α      in ANC's #1, #2, #14, ...

........................................................................
.............................. CYCLE   38 ..............................
........................................................................

 iter      E             dE          RMSdq      gap      omega  full diag
   1    -88.8005267 -0.888005E+02  0.283E-02    1.96       0.0  T
   2    -88.8005271 -0.371336E-06  0.166E-02    1.96       1.0  T
   3    -88.8005265  0.575771E-06  0.350E-03    1.96       3.8  T
   4    -88.8005273 -0.725697E-06  0.901E-04    1.96      14.7  T
   5    -88.8005273 -0.133994E-07  0.426E-04    1.96      31.1  T
     SCC iter.                  ...        0 min,  0.018 sec
     gradient                   ...        0 min,  0.045 sec
 * total energy  :   -87.6450357 Eh     change       -0.3073996E-04 Eh
   gradient norm :     0.0011466 Eh/α   predicted    -0.1247041E-04 ( -59.43%)
   displ. norm   :     0.1995201 α      lambda       -0.1665202E-04
   maximum displ.:     0.1660936 α      in ANC's #1, #2, #10, ...

........................................................................
.............................. CYCLE   39 ..............................
........................................................................

 iter      E             dE          RMSdq      gap      omega  full diag
   1    -88.8005234 -0.888005E+02  0.230E-02    1.96       0.0  T
   2    -88.8005237 -0.266669E-06  0.135E-02    1.96       1.0  T
   3    -88.8005235  0.200168E-06  0.223E-03    1.96       5.9  T
   4    -88.8005237 -0.277439E-06  0.772E-04    1.96      17.2  T
   5    -88.8005238 -0.137667E-07  0.351E-04    1.96      37.7  T
     SCC iter.                  ...        0 min,  0.018 sec
     gradient                   ...        0 min,  0.045 sec
 * total energy  :   -87.6450577 Eh     change       -0.2203056E-04 Eh
   gradient norm :     0.0007291 Eh/α   predicted    -0.8474823E-05 ( -61.53%)
   displ. norm   :     0.1368067 α      lambda       -0.1159929E-04
   maximum displ.:     0.1157603 α      in ANC's #1, #2, #10, ...

........................................................................
.............................. CYCLE   40 ..............................
........................................................................

 iter      E             dE          RMSdq      gap      omega  full diag
   1    -88.8009393 -0.888009E+02  0.155E-02    1.96       0.0  T
   2    -88.8009394 -0.140380E-06  0.899E-03    1.96       1.5  T
   3    -88.8009394  0.234335E-07  0.109E-03    1.96      12.2  T
   4    -88.8009394 -0.521150E-07  0.494E-04    1.96      26.8  T
   5    -88.8009394 -0.690122E-08  0.234E-04    1.96      56.6  T
     SCC iter.                  ...        0 min,  0.037 sec
     gradient                   ...        0 min,  0.044 sec
 * total energy  :   -87.6450732 Eh     change       -0.1549767E-04 Eh
   gradient norm :     0.0007789 Eh/α   predicted    -0.5848451E-05 ( -62.26%)
   displ. norm   :     0.1165747 α      lambda       -0.9467155E-05
   maximum displ.:     0.0977542 α      in ANC's #1, #2, #3, ...

........................................................................
.............................. CYCLE   41 ..............................
........................................................................

 iter      E             dE          RMSdq      gap      omega  full diag
   1    -88.8009113 -0.888009E+02  0.135E-02    1.96       0.0  T
   2    -88.8009114 -0.807737E-07  0.786E-03    1.96       1.7  T
   3    -88.8009114  0.917561E-08  0.838E-04    1.96      15.8  T
   4    -88.8009114 -0.307793E-07  0.390E-04    1.96      34.0  T
     SCC iter.                  ...        0 min,  0.014 sec
     gradient                   ...        0 min,  0.059 sec
 * total energy  :   -87.6450863 Eh     change       -0.1305355E-04 Eh
   gradient norm :     0.0006353 Eh/α   predicted    -0.4764579E-05 ( -63.50%)
   displ. norm   :     0.0863237 α      lambda       -0.7416983E-05
   maximum displ.:     0.0724683 α      in ANC's #1, #2, #4, ...

........................................................................
.............................. CYCLE   42 ..............................
........................................................................

 iter      E             dE          RMSdq      gap      omega  full diag
   1    -88.8010309 -0.888010E+02  0.984E-03    1.96       0.0  T
   2    -88.8010310 -0.383386E-07  0.573E-03    1.96       2.3  T
   3    -88.8010310  0.223954E-07  0.810E-04    1.96      16.4  T
   4    -88.8010310 -0.354079E-07  0.295E-04    1.96      45.0  T
     SCC iter.                  ...        0 min,  0.015 sec
     gradient                   ...        0 min,  0.054 sec
 * total energy  :   -87.6450968 Eh     change       -0.1049036E-04 Eh
   gradient norm :     0.0005691 Eh/α   predicted    -0.3721863E-05 ( -64.52%)
   displ. norm   :     0.0848148 α      lambda       -0.7621778E-05
   maximum displ.:     0.0694586 α      in ANC's #1, #2, #4, ...
 * RMSD in coord.:     0.3974367 α      energy gain  -0.7184731E-03 Eh

generating ANC from exact Hessian ...
Using Lindh-Hessian (1995)
 Shifting diagonal of input Hessian by    9.8477928950629675E-003
 Lowest  eigenvalues of input Hessian
    0.000000    0.000000    0.000000    0.000000    0.000000    0.000000
    0.010000    0.010071    0.010376    0.010473    0.011008    0.011397
    0.011672    0.012791    0.013574    0.014504    0.017278    0.017577
 Highest eigenvalues
    1.982164    1.982913    2.085454    2.210546    2.225358    2.383211


........................................................................
.............................. CYCLE   43 ..............................
........................................................................

 iter      E             dE          RMSdq      gap      omega  full diag
   1    -88.8011020 -0.888011E+02  0.991E-03    1.96       0.0  T
   2    -88.8011021 -0.391706E-07  0.578E-03    1.96       2.3  T
   3    -88.8011020  0.302079E-07  0.860E-04    1.96      15.4  T
   4    -88.8011021 -0.445877E-07  0.286E-04    1.96      46.4  T
     SCC iter.                  ...        0 min,  0.014 sec
     gradient                   ...        0 min,  0.048 sec
 * total energy  :   -87.6451074 Eh     change       -0.1067023E-04 Eh
   gradient norm :     0.0006293 Eh/α   predicted     0.0000000E+00 (-100.00%)
   displ. norm   :     0.0251502 α      lambda       -0.4267811E-06
   maximum displ.:     0.0207168 α      in ANC's #1, #10, #14, ...

........................................................................
.............................. CYCLE   44 ..............................
........................................................................

 iter      E             dE          RMSdq      gap      omega  full diag
   1    -88.8009595 -0.888010E+02  0.276E-03    1.96       0.0  T
   2    -88.8009595 -0.137115E-07  0.160E-03    1.96       8.3  T
   3    -88.8009595  0.406631E-08  0.413E-04    1.96      32.0  T
   4    -88.8009595 -0.523977E-08  0.143E-04    1.96      92.6  T
     SCC iter.                  ...        0 min,  0.014 sec
     gradient                   ...        0 min,  0.060 sec
 * total energy  :   -87.6451127 Eh     change       -0.5273184E-05 Eh
   gradient norm :     0.0002802 Eh/α   predicted    -0.1971169E-05 ( -62.62%)
   displ. norm   :     0.0619310 α      lambda       -0.8019342E-05
   maximum displ.:     0.0460612 α      in ANC's #1, #14, #10, ...

........................................................................
.............................. CYCLE   45 ..............................
........................................................................

 iter      E             dE          RMSdq      gap      omega  full diag
   1    -88.8008023 -0.888008E+02  0.667E-03    1.96       0.0  T
   2    -88.8008024 -0.289729E-07  0.393E-03    1.96       3.4  T
   3    -88.8008023  0.409242E-07  0.961E-04    1.96      13.8  T
   4    -88.8008024 -0.496131E-07  0.217E-04    1.96      61.0  T
     SCC iter.                  ...        0 min,  0.014 sec
     gradient                   ...        0 min,  0.045 sec
 * total energy  :   -87.6451232 Eh     change       -0.1049619E-04 Eh
   gradient norm :     0.0006622 Eh/α   predicted    -0.4017960E-05 ( -61.72%)
   displ. norm   :     0.1003080 α      lambda       -0.1078873E-04
   maximum displ.:     0.0743539 α      in ANC's #1, #14, #10, ...

........................................................................
.............................. CYCLE   46 ..............................
........................................................................

 iter      E             dE          RMSdq      gap      omega  full diag
   1    -88.8006460 -0.888006E+02  0.106E-02    1.95       0.0  T
   2    -88.8006461 -0.513760E-07  0.629E-03    1.95       2.1  T
   3    -88.8006460  0.711595E-07  0.129E-03    1.95      10.3  T
   4    -88.8006461 -0.895658E-07  0.315E-04    1.95      42.1  T
   5    -88.8006461 -0.196927E-08  0.158E-04    1.95      84.0  T
     SCC iter.                  ...        0 min,  0.018 sec
     gradient                   ...        0 min,  0.045 sec
 * total energy  :   -87.6451370 Eh     change       -0.1382027E-04 Eh
   gradient norm :     0.0009945 Eh/α   predicted    -0.5435588E-05 ( -60.67%)
   displ. norm   :     0.1112220 α      lambda       -0.1060821E-04
   maximum displ.:     0.0842527 α      in ANC's #1, #14, #6, ...

........................................................................
.............................. CYCLE   47 ..............................
........................................................................

 iter      E             dE          RMSdq      gap      omega  full diag
   1    -88.8005499 -0.888005E+02  0.119E-02    1.95       0.0  T
   2    -88.8005499 -0.503466E-07  0.701E-03    1.95       1.9  T
   3    -88.8005499  0.344137E-07  0.102E-03    1.95      13.0  T
   4    -88.8005500 -0.522041E-07  0.327E-04    1.95      40.6  T
   5    -88.8005500 -0.134114E-08  0.159E-04    1.95      83.5  T
     SCC iter.                  ...        0 min,  0.033 sec
     gradient                   ...        0 min,  0.045 sec
 * total energy  :   -87.6451510 Eh     change       -0.1401571E-04 Eh
   gradient norm :     0.0011173 Eh/α   predicted    -0.5340908E-05 ( -61.89%)
   displ. norm   :     0.1130421 α      lambda       -0.1116011E-04
   maximum displ.:     0.0872489 α      in ANC's #1, #14, #6, ...

........................................................................
.............................. CYCLE   48 ..............................
........................................................................

 iter      E             dE          RMSdq      gap      omega  full diag
   1    -88.8006036 -0.888006E+02  0.122E-02    1.95       0.0  T
   2    -88.8006036 -0.493451E-07  0.720E-03    1.95       1.8  T
   3    -88.8006036  0.364474E-08  0.710E-04    1.95      18.6  T
   4    -88.8006037 -0.199907E-07  0.318E-04    1.95      41.7  T
     SCC iter.                  ...        0 min,  0.014 sec
     gradient                   ...        0 min,  0.045 sec
 * total energy  :   -87.6451663 Eh     change       -0.1522026E-04 Eh
   gradient norm :     0.0009507 Eh/α   predicted    -0.5619507E-05 ( -63.08%)
   displ. norm   :     0.1272732 α      lambda       -0.1335861E-04
   maximum displ.:     0.0997257 α      in ANC's #1, #14, #11, ...

........................................................................
.............................. CYCLE   49 ..............................
........................................................................

 iter      E             dE          RMSdq      gap      omega  full diag
   1    -88.8007446 -0.888007E+02  0.140E-02    1.95       0.0  T
   2    -88.8007446 -0.646792E-07  0.827E-03    1.95       1.6  T
   3    -88.8007446  0.623881E-08  0.802E-04    1.95      16.5  T
   4    -88.8007447 -0.261567E-07  0.385E-04    1.95      34.4  T
     SCC iter.                  ...        0 min,  0.035 sec
     gradient                   ...        0 min,  0.045 sec
 * total energy  :   -87.6451843 Eh     change       -0.1803430E-04 Eh
   gradient norm :     0.0006616 Eh/α   predicted    -0.6731859E-05 ( -62.67%)
   displ. norm   :     0.1461860 α      lambda       -0.1455335E-04
   maximum displ.:     0.1160529 α      in ANC's #1, #14, #4, ...

........................................................................
.............................. CYCLE   50 ..............................
........................................................................

 iter      E             dE          RMSdq      gap      omega  full diag
   1    -88.8009075 -0.888009E+02  0.160E-02    1.95       0.0  T
   2    -88.8009076 -0.885021E-07  0.942E-03    1.95       1.4  T
   3    -88.8009076  0.834123E-08  0.907E-04    1.95      14.6  T
   4    -88.8009077 -0.343956E-07  0.442E-04    1.95      30.0  T
     SCC iter.                  ...        0 min,  0.033 sec
     gradient                   ...        0 min,  0.044 sec
 * total energy  :   -87.6452036 Eh     change       -0.1931269E-04 Eh
   gradient norm :     0.0004288 Eh/α   predicted    -0.7348865E-05 ( -61.95%)
   displ. norm   :     0.1419688 α      lambda       -0.1246842E-04
   maximum displ.:     0.1143848 α      in ANC's #1, #14, #4, ...

........................................................................
.............................. CYCLE   51 ..............................
........................................................................

 iter      E             dE          RMSdq      gap      omega  full diag
   1    -88.8010849 -0.888011E+02  0.153E-02    1.95       0.0  T
   2    -88.8010850 -0.793861E-07  0.902E-03    1.95       1.5  T
   3    -88.8010849  0.155406E-07  0.902E-04    1.95      14.7  T
   4    -88.8010850 -0.397535E-07  0.403E-04    1.95      32.8  T
     SCC iter.                  ...        0 min,  0.014 sec
     gradient                   ...        0 min,  0.059 sec
 * total energy  :   -87.6452205 Eh     change       -0.1694338E-04 Eh
   gradient norm :     0.0003632 Eh/α   predicted    -0.6293046E-05 ( -62.86%)
   displ. norm   :     0.1219114 α      lambda       -0.1013012E-04
   maximum displ.:     0.0994212 α      in ANC's #1, #14, #4, ...

........................................................................
.............................. CYCLE   52 ..............................
........................................................................

 iter      E             dE          RMSdq      gap      omega  full diag
   1    -88.8012392 -0.888012E+02  0.131E-02    1.95       0.0  T
   2    -88.8012392 -0.535471E-07  0.768E-03    1.95       1.7  T
   3    -88.8012392  0.146963E-07  0.782E-04    1.95      16.9  T
   4    -88.8012392 -0.323409E-07  0.326E-04    1.95      40.6  T
     SCC iter.                  ...        0 min,  0.014 sec
     gradient                   ...        0 min,  0.072 sec
 * total energy  :   -87.6452347 Eh     change       -0.1418030E-04 Eh
   gradient norm :     0.0003615 Eh/α   predicted    -0.5098972E-05 ( -64.04%)
   displ. norm   :     0.1089518 α      lambda       -0.9135761E-05
   maximum displ.:     0.0886107 α      in ANC's #1, #14, #4, ...

........................................................................
.............................. CYCLE   53 ..............................
........................................................................

 iter      E             dE          RMSdq      gap      omega  full diag
   1    -88.8013430 -0.888013E+02  0.116E-02    1.95       0.0  T
   2    -88.8013431 -0.398418E-07  0.683E-03    1.95       1.9  T
   3    -88.8013430  0.433731E-07  0.986E-04    1.95      13.4  T
   4    -88.8013431 -0.598319E-07  0.285E-04    1.95      46.4  T
     SCC iter.                  ...        0 min,  0.014 sec
     gradient                   ...        0 min,  0.072 sec
 * total energy  :   -87.6452478 Eh     change       -0.1303662E-04 Eh
   gradient norm :     0.0003721 Eh/α   predicted    -0.4592827E-05 ( -64.77%)
   displ. norm   :     0.1088072 α      lambda       -0.9345715E-05
   maximum displ.:     0.0873303 α      in ANC's #1, #3, #14, ...

........................................................................
.............................. CYCLE   54 ..............................
........................................................................

 iter      E             dE          RMSdq      gap      omega  full diag
   1    -88.8013741 -0.888014E+02  0.115E-02    1.95       0.0  T
   2    -88.8013742 -0.353360E-07  0.679E-03    1.95       2.0  T
   3    -88.8013741  0.708810E-07  0.119E-03    1.95      11.1  T
   4    -88.8013742 -0.889601E-07  0.271E-04    1.95      48.9  T
   5    -88.8013742 -0.776438E-09  0.143E-04    1.95      92.7  T
     SCC iter.                  ...        0 min,  0.018 sec
     gradient                   ...        0 min,  0.068 sec
 * total energy  :   -87.6452611 Eh     change       -0.1332782E-04 Eh
   gradient norm :     0.0003700 Eh/α   predicted    -0.4698070E-05 ( -64.75%)
   displ. norm   :     0.1136150 α      lambda       -0.9629270E-05
   maximum displ.:     0.0903064 α      in ANC's #1, #3, #4, ...

........................................................................
.............................. CYCLE   55 ..............................
........................................................................

 iter      E             dE          RMSdq      gap      omega  full diag
   1    -88.8013850 -0.888014E+02  0.120E-02    1.95       0.0  T
   2    -88.8013850 -0.442654E-07  0.706E-03    1.95       1.9  T
   3    -88.8013850  0.808005E-07  0.127E-03    1.95      10.4  T
   4    -88.8013851 -0.101041E-06  0.288E-04    1.95      46.1  T
   5    -88.8013851 -0.120211E-08  0.153E-04    1.95      86.7  T
     SCC iter.                  ...        0 min,  0.018 sec
     gradient                   ...        0 min,  0.065 sec
 * total energy  :   -87.6452747 Eh     change       -0.1360356E-04 Eh
   gradient norm :     0.0003341 Eh/α   predicted    -0.4842957E-05 ( -64.40%)
   displ. norm   :     0.1115485 α      lambda       -0.8897354E-05
   maximum displ.:     0.0883301 α      in ANC's #1, #3, #4, ...

........................................................................
.............................. CYCLE   56 ..............................
........................................................................

 iter      E             dE          RMSdq      gap      omega  full diag
   1    -88.8013781 -0.888014E+02  0.116E-02    1.94       0.0  T
   2    -88.8013782 -0.412642E-07  0.684E-03    1.94       1.9  T
   3    -88.8013781  0.635145E-07  0.114E-03    1.94      11.6  T
   4    -88.8013782 -0.816301E-07  0.271E-04    1.94      48.9  T
   5    -88.8013782 -0.941398E-09  0.146E-04    1.94      90.8  T
     SCC iter.                  ...        0 min,  0.018 sec
     gradient                   ...        0 min,  0.067 sec
 * total energy  :   -87.6452873 Eh     change       -0.1256337E-04 Eh
   gradient norm :     0.0003053 Eh/α   predicted    -0.4477224E-05 ( -64.36%)
   displ. norm   :     0.0960327 α      lambda       -0.7323220E-05
   maximum displ.:     0.0764410 α      in ANC's #1, #3, #2, ...

........................................................................
.............................. CYCLE   57 ..............................
........................................................................

 iter      E             dE          RMSdq      gap      omega  full diag
   1    -88.8013969 -0.888014E+02  0.100E-02    1.94       0.0  T
   2    -88.8013970 -0.335750E-07  0.587E-03    1.94       2.3  T
   3    -88.8013969  0.317654E-07  0.860E-04    1.94      15.4  T
   4    -88.8013970 -0.440140E-07  0.244E-04    1.94      54.2  T
     SCC iter.                  ...        0 min,  0.014 sec
     gradient                   ...        0 min,  0.055 sec
 * total energy  :   -87.6452976 Eh     change       -0.1034431E-04 Eh
   gradient norm :     0.0003756 Eh/α   predicted    -0.3679148E-05 ( -64.43%)
   displ. norm   :     0.0775185 α      lambda       -0.5817158E-05
   maximum displ.:     0.0621617 α      in ANC's #1, #3, #2, ...

........................................................................
.............................. CYCLE   58 ..............................
........................................................................

 iter      E             dE          RMSdq      gap      omega  full diag
   1    -88.8013889 -0.888014E+02  0.814E-03    1.94       0.0  T
   2    -88.8013889 -0.219594E-07  0.478E-03    1.94       2.8  T
   3    -88.8013889  0.224973E-07  0.721E-04    1.94      18.4  T
   4    -88.8013889 -0.308510E-07  0.198E-04    1.94      66.9  T
     SCC iter.                  ...        0 min,  0.015 sec
     gradient                   ...        0 min,  0.045 sec
 * total energy  :   -87.6453060 Eh     change       -0.8368252E-05 Eh
   gradient norm :     0.0003114 Eh/α   predicted    -0.2916786E-05 ( -65.14%)
   displ. norm   :     0.0627665 α      lambda       -0.4939449E-05
   maximum displ.:     0.0507700 α      in ANC's #1, #3, #2, ...

........................................................................
.............................. CYCLE   59 ..............................
........................................................................

 iter      E             dE          RMSdq      gap      omega  full diag
   1    -88.8014422 -0.888014E+02  0.679E-03    1.94       0.0  T
   2    -88.8014422 -0.166257E-07  0.397E-03    1.94       3.3  T
   3    -88.8014422  0.616632E-08  0.463E-04    1.94      28.6  T
   4    -88.8014422 -0.117822E-07  0.168E-04    1.94      78.7  T
     SCC iter.                  ...        0 min,  0.015 sec
     gradient                   ...        0 min,  0.045 sec
 * total energy  :   -87.6453132 Eh     change       -0.7219349E-05 Eh
   gradient norm :     0.0004082 Eh/α   predicted    -0.2474837E-05 ( -65.72%)
   displ. norm   :     0.0572210 α      lambda       -0.4874964E-05
   maximum displ.:     0.0459997 α      in ANC's #1, #3, #2, ...

........................................................................
.............................. CYCLE   60 ..............................
........................................................................

 iter      E             dE          RMSdq      gap      omega  full diag
   1    -88.8014043 -0.888014E+02  0.649E-03    1.94       0.0  T
   2    -88.8014044 -0.171923E-07  0.379E-03    1.94       3.5  T
   3    -88.8014043  0.599947E-08  0.454E-04    1.94      29.2  T
   4    -88.8014044 -0.115897E-07  0.168E-04    1.94      78.9  T
     SCC iter.                  ...        0 min,  0.035 sec
     gradient                   ...        0 min,  0.045 sec
 * total energy  :   -87.6453203 Eh     change       -0.7141392E-05 Eh
   gradient norm :     0.0002940 Eh/α   predicted    -0.2445306E-05 ( -65.76%)
   displ. norm   :     0.0653783 α      lambda       -0.5887827E-05
   maximum displ.:     0.0512522 α      in ANC's #1, #3, #2, ...

........................................................................
.............................. CYCLE   61 ..............................
........................................................................

 iter      E             dE          RMSdq      gap      omega  full diag
   1    -88.8014688 -0.888015E+02  0.788E-03    1.94       0.0  T
   2    -88.8014688 -0.253440E-07  0.460E-03    1.94       2.9  T
   3    -88.8014688  0.778574E-08  0.532E-04    1.94      24.9  T
   4    -88.8014688 -0.164648E-07  0.202E-04    1.94      65.7  T
     SCC iter.                  ...        0 min,  0.048 sec
     gradient                   ...        0 min,  0.045 sec
 * total energy  :   -87.6453290 Eh     change       -0.8649383E-05 Eh
   gradient norm :     0.0003840 Eh/α   predicted    -0.2950197E-05 ( -65.89%)
   displ. norm   :     0.0830785 α      lambda       -0.7669826E-05
   maximum displ.:     0.0637777 α      in ANC's #1, #3, #2, ...

........................................................................
.............................. CYCLE   62 ..............................
........................................................................

 iter      E             dE          RMSdq      gap      omega  full diag
   1    -88.8014486 -0.888014E+02  0.102E-02    1.94       0.0  T
   2    -88.8014487 -0.446066E-07  0.595E-03    1.94       2.2  T
   3    -88.8014487  0.194937E-07  0.754E-04    1.94      17.6  T
   4    -88.8014487 -0.350562E-07  0.274E-04    1.94      48.3  T
     SCC iter.                  ...        0 min,  0.028 sec
     gradient                   ...        0 min,  0.045 sec
 * total energy  :   -87.6453403 Eh     change       -0.1127551E-04 Eh
   gradient norm :     0.0003132 Eh/α   predicted    -0.3848072E-05 ( -65.87%)
   displ. norm   :     0.1130516 α      lambda       -0.1037564E-04
   maximum displ.:     0.0851487 α      in ANC's #1, #3, #2, ...

........................................................................
.............................. CYCLE   63 ..............................
........................................................................

 iter      E             dE          RMSdq      gap      omega  full diag
[...]
    3    7 N      6, 13, 23, 25
    4    9 F      20
    5    1 H      31-57

           -------------------------------------------------
          |                Calculation Setup                |
           -------------------------------------------------

          program call               : xtb /rds/general/user/hgt20/home/callum/QDESCP/Risperidone_rdkit_conf_23/Risperidone_rdkit_conf_23.xyz --acc 1 --gfn 2 --chrg 0 --uhf 2 --etemp 300 --input /rds/general/user/hgt20/home/callum/QDESCP/Risperidone_rdkit_conf_23/Risperidone_rdkit_conf_23_xtb.inp -P 1
          hostname                   : login-c
          coordinate file            : /rds/general/user/hgt20/home/callum/QDESCP/Risperidone_rdkit_conf_23/Risperidone_rdkit_conf_23.xyz
          omp threads                :                     1


           -------------------------------------------------
          |                 G F N 2 - x T B                 |
           -------------------------------------------------

        Reference                      10.1021/acs.jctc.8b01176
      * Hamiltonian:
        H0-scaling (s, p, d)           1.850000    2.230000    2.230000
        zeta-weighting                 0.500000
      * Dispersion:
        s8                             2.700000
        a1                             0.520000
        a2                             5.000000
        s9                             5.000000
      * Repulsion:
        kExp                           1.500000    1.000000
        rExp                           1.000000
      * Coulomb:
        alpha                          2.000000
        third order                    shell-resolved
        anisotropic                    true
        a3                             3.000000
        a5                             4.000000
        cn-shift                       1.200000
        cn-exp                         4.000000
        max-rad                        5.000000


          ...................................................
          :                      SETUP                      :
          :.................................................:
          :  # basis functions                 147          :
          :  # atomic orbitals                 147          :
          :  # shells                           87          :
          :  # electrons                       158          :
          :  max. iterations                   250          :
          :  Hamiltonian                  GFN2-xTB          :
          :  restarted?                      false          :
          :  GBSA solvation                  false          :
          :  PC potential                    false          :
          :  electronic temp.          300.0000000     K    :
          :  accuracy                    1.0000000          :
          :  -> integral cutoff          0.2500000E+02      :
          :  -> integral neglect         0.1000000E-07      :
          :  -> SCF convergence          0.1000000E-05 Eh   :
          :  -> wf. convergence          0.1000000E-03 e    :
          :  Broyden damping             0.4000000          :
          :  net charge                          0          :
          :  unpaired electrons                  2          :
          ...................................................

 iter      E             dE          RMSdq      gap      omega  full diag
   1    -88.3602390 -0.883602E+02  0.338E+00    0.13       0.0  T
   2    -88.2928703  0.673687E-01  0.282E+00    0.95       1.0  T
   3    -88.4211681 -0.128298E+00  0.200E+00    1.07       1.0  T
   4    -88.3670772  0.540909E-01  0.170E+00    0.97       1.0  T
   5    -88.4679285 -0.100851E+00  0.150E+00    0.78       1.0  T
   6    -88.5371154 -0.691869E-01  0.111E+00    0.47       1.0  T
   7    -88.5492281 -0.121127E-01  0.966E-01    0.06       1.0  T
   8    -88.4901803  0.590478E-01  0.104E+00    0.19       1.0  T
   9    -88.5388980 -0.487177E-01  0.912E-01    0.14       1.0  T
  10    -88.5350522  0.384579E-02  0.901E-01    0.19       1.0  T
  11    -88.5490185 -0.139663E-01  0.815E-01    0.13       1.0  T
  12    -88.6284179 -0.793993E-01  0.671E-01    0.02       1.0  T
  13    -88.6508406 -0.224227E-01  0.510E-01    0.06       1.0  T
  14    -88.6560984 -0.525781E-02  0.450E-01    0.07       1.0  T
  15    -88.6584583 -0.235992E-02  0.476E-01    0.07       1.0  T
  16    -88.6665557 -0.809745E-02  0.343E-01    0.05       1.0  T
  17    -88.6767040 -0.101483E-01  0.130E-01    0.03       1.0  T
  18    -88.6770759 -0.371857E-03  0.110E-01    0.02       1.0  T
  19    -88.6787746 -0.169870E-02  0.449E-02    0.01       1.0  T
  20    -88.6773300  0.144459E-02  0.961E-02    0.02       1.0  T
  21    -88.6788989 -0.156888E-02  0.292E-02    0.01       1.0  T
  22    -88.6789749 -0.760222E-04  0.111E-02    0.01       1.2  T
  23    -88.6789868 -0.119451E-04  0.629E-03    0.01       2.1  T
  24    -88.6789857  0.108397E-05  0.558E-03    0.01       2.4  T
  25    -88.6789910 -0.527186E-05  0.271E-03    0.01       4.9  T
  26    -88.6789925 -0.151147E-05  0.529E-04    0.01      25.0  T
  27    -88.6789926 -0.385797E-07  0.163E-04    0.01      81.3  T
  28    -88.6789926  0.614907E-08  0.205E-04    0.01      64.6  T

   *** convergence criteria satisfied after 28 iterations ***

         #    Occupation            Energy/Eh            Energy/eV
      -------------------------------------------------------------
         1        2.0000           -0.8073353             -21.9687
       ...           ...                  ...                  ...
        74        2.0000           -0.4002160             -10.8904
        75        1.9580           -0.3932644             -10.7013
        76        1.9375           -0.3928652             -10.6904
        77        1.8514           -0.3919512             -10.6655
        78        1.6992           -0.3910940             -10.6422
        79        1.5539           -0.3904985             -10.6260
        80        0.5637           -0.2542478              -6.9184 (HOMO)
        81        0.4363           -0.2537607              -6.9052 (LUMO)
        82                         -0.2294293              -6.2431
        83                         -0.2174773              -5.9179
        84                         -0.1814043              -4.9363
        85                         -0.1263539              -3.4383
       ...                                ...                  ...
       147                          0.6999724              19.0472
      -------------------------------------------------------------
                  HL-Gap            0.0004872 Eh            0.0133 eV
             Fermi-level           -0.3221485 Eh           -8.7661 eV

 transition dipole moment (au) for excitation:          79          80
     X       Y       Z   
   0.7264  -1.0157  -0.3315  total (au/Debye):    1.292   3.284
 dE (eV)             :    3.708
 oscillator strength :  0.21444E+00

 SCC (total)                   0 d,  0 h,  0 min,  0.224 sec
 SCC setup                      ...        0 min,  0.001 sec (  0.259%)
 Dispersion                     ...        0 min,  0.001 sec (  0.375%)
 classical contributions        ...        0 min,  0.000 sec (  0.120%)
 integral evaluation            ...        0 min,  0.013 sec (  5.604%)
 iterations                     ...        0 min,  0.155 sec ( 69.039%)
 molecular gradient             ...        0 min,  0.045 sec ( 19.919%)
 printout                       ...        0 min,  0.010 sec (  4.680%)

         :::::::::::::::::::::::::::::::::::::::::::::::::::::
         ::                     SUMMARY                     ::
         :::::::::::::::::::::::::::::::::::::::::::::::::::::
         :: total energy             -87.522840771674 Eh    ::
         :: gradient norm              0.111023471520 Eh/a0 ::
         :: HOMO-LUMO gap              0.013256478941 eV    ::
         ::.................................................::
         :: SCC energy               -88.677227004154 Eh    ::
         :: -> isotropic ES            0.074291517345 Eh    ::
         :: -> anisotropic ES          0.006358223210 Eh    ::
         :: -> anisotropic XC          0.035653444287 Eh    ::
         :: -> dispersion             -0.065069320063 Eh    ::
         :: repulsion energy           1.154386232480 Eh    ::
         :: add. restraining           0.000000000000 Eh    ::
         :: total charge              -0.000000000006 e     ::
         :::::::::::::::::::::::::::::::::::::::::::::::::::::

           -------------------------------------------------
          |                Property Printout                |
           -------------------------------------------------

    * Orbital Energies and Occupations

         #    Occupation            Energy/Eh            Energy/eV
      -------------------------------------------------------------
         1        2.0000           -0.8073353             -21.9687
       ...           ...                  ...                  ...
        68        2.0000           -0.4404350             -11.9848
        69        2.0000           -0.4381278             -11.9221
        70        2.0000           -0.4300293             -11.7017
        71        2.0000           -0.4280515             -11.6479
        72        2.0000           -0.4275742             -11.6349
        73        2.0000           -0.4050247             -11.0213
        74        2.0000           -0.4002160             -10.8904
        75        1.9580           -0.3932644             -10.7013
        76        1.9375           -0.3928652             -10.6904
        77        1.8514           -0.3919512             -10.6655
        78        1.6992           -0.3910940             -10.6422
        79        1.5539           -0.3904985             -10.6260
        80        0.5637           -0.2542478              -6.9184 (HOMO)
        81        0.4363           -0.2537607              -6.9052 (LUMO)
        82                         -0.2294293              -6.2431
        83                         -0.2174773              -5.9179
        84                         -0.1814043              -4.9363
        85                         -0.1263539              -3.4383
        86                         -0.0855336              -2.3275
        87                         -0.0233882              -0.6364
        88                         -0.0068112              -0.1853
        89                         -0.0027218              -0.0741
        90                          0.0448346               1.2200
        91                          0.0506882               1.3793
       ...                                ...                  ...
       147                          0.6999724              19.0472
      -------------------------------------------------------------
                  HL-Gap            0.0004872 Eh            0.0133 eV
             Fermi-level           -0.3221485 Eh           -8.7661 eV

     #   Z          covCN         q      C6AA      α(0)
     1   8 O        0.858    -0.441    22.521     6.363
     2   6 C        2.781     0.256    22.691     7.802
     3   6 C        2.958    -0.051    29.253     8.871
     4   6 C        3.808    -0.059    21.636     6.621
     5   6 C        3.758     0.004    20.566     6.466
     6   7 N        2.731    -0.100    23.194     7.153
     7   6 C        3.767     0.005    20.527     6.457
     8   6 C        3.811    -0.061    21.669     6.626
     9   6 C        3.862    -0.021    20.915     6.504
    10   6 C        3.811    -0.061    21.670     6.626
    11   6 C        3.768    -0.001    20.640     6.475
    12   6 C        3.013     0.063    26.575     8.456
    13   7 N        1.959    -0.152    25.050     7.422
    14   8 O        1.801    -0.145    16.480     5.482
    15   6 C        3.055     0.133    25.054     8.209
    16   6 C        3.028    -0.041    28.998     8.833
    17   6 C        2.914    -0.048    29.186     8.859
    18   6 C        2.920    -0.061    29.512     8.908
    19   6 C        2.797     0.159    24.561     8.119
    20   9 F        0.788    -0.226    11.506     4.007
    21   6 C        2.905    -0.082    30.043     8.987
    22   6 C        2.948     0.069    26.461     8.437
    23   7 N        1.846    -0.247    27.288     7.742
    24   6 C        2.901     0.139    24.975     8.194
    25   7 N        2.753    -0.086    22.919     7.110
    26   6 C        3.756     0.003    20.578     6.468
    27   6 C        3.804    -0.064    21.717     6.634
    28   6 C        3.803    -0.058    21.624     6.620
    29   6 C        3.812    -0.071    21.849     6.653
    30   6 C        3.761    -0.114    22.728     6.796
    31   1 H        0.924     0.049     2.327     2.385
    32   1 H        0.924     0.066     2.126     2.280
    33   1 H        0.924     0.049     2.337     2.391
    34   1 H        0.922     0.037     2.490     2.468
    35   1 H        0.924     0.041     2.430     2.438
    36   1 H        0.922     0.034     2.534     2.490
    37   1 H        0.924     0.045     2.389     2.417
    38   1 H        0.924     0.052     2.294     2.369
    39   1 H        0.924     0.051     2.314     2.379
    40   1 H        0.924     0.047     2.357     2.401
    41   1 H        0.925     0.056     2.247     2.344
    42   1 H        0.922     0.031     2.574     2.509
    43   1 H        0.925     0.075     2.027     2.227
    44   1 H        0.926     0.029     2.601     2.522
    45   1 H        0.926     0.047     2.362     2.403
    46   1 H        0.926     0.064     2.154     2.295
    47   1 H        0.924     0.081     1.971     2.196
    48   1 H        0.924     0.048     2.339     2.392
    49   1 H        0.924     0.045     2.390     2.418
    50   1 H        0.925     0.047     2.357     2.401
    51   1 H        0.925     0.044     2.399     2.422
    52   1 H        0.924     0.044     2.400     2.423
    53   1 H        0.925     0.065     2.141     2.288
    54   1 H        0.924     0.056     2.252     2.347
    55   1 H        0.925     0.045     2.381     2.413
    56   1 H        0.925     0.065     2.141     2.288
    57   1 H        0.925     0.050     2.322     2.383

 Mol. C6AA /au·bohr⁶  :      34326.798589
 Mol. C8AA /au·bohr⁸  :     797624.256958
 Mol. α(0) /au        :        282.188278


Wiberg/Mayer (AO) data.
largest (>0.10) Wiberg bond orders for each atom

 ---------------------------------------------------------------------------
     #   Z sym  total        # sym  WBO       # sym  WBO       # sym  WBO
 ---------------------------------------------------------------------------
     1   8 O    1.871 --     2 C    1.597
     2   6 C    3.911 --     1 O    1.597     3 C    1.167    25 N    1.043
     3   6 C    3.680 --    22 C    1.297     2 C    1.167     4 C    1.020
     4   6 C    3.974 --     3 C    1.020     5 C    0.968    32 H    0.966
                            31 H    0.958
     5   6 C    3.953 --     6 N    1.009    33 H    0.969     4 C    0.968
                            34 H    0.948
     6   7 N    3.108 --     5 C    1.009     7 C    1.005    11 C    1.002
     7   6 C    3.971 --     6 N    1.005     8 C    0.999    35 H    0.970
                            36 H    0.950
     8   6 C    3.983 --     7 C    0.999     9 C    0.981    37 H    0.975
                            38 H    0.973
     9   6 C    3.992 --    12 C    1.004    10 C    0.982     8 C    0.981
                            39 H    0.963
    10   6 C    3.984 --    11 C    1.002     9 C    0.982    40 H    0.975
                            41 H    0.971
    11   6 C    3.963 --     6 N    1.002    10 C    1.002    43 H    0.960
                            42 H    0.947
    12   6 C    3.866 --    13 N    1.504    16 C    1.211     9 C    1.004
    13   7 N    2.759 --    12 C    1.504    14 O    1.049
    14   8 O    2.360 --    15 C    1.115    13 N    1.049
    15   6 C    3.929 --    21 C    1.345    16 C    1.272    14 O    1.115
    16   6 C    3.937 --    15 C    1.272    17 C    1.260    12 C    1.211
    17   6 C    3.813 --    18 C    1.457    16 C    1.260    44 H    0.966
    18   6 C    3.972 --    17 C    1.457    19 C    1.369    45 H    0.968
    19   6 C    3.777 --    18 C    1.369    21 C    1.340    20 F    0.957
    20   9 F    1.069 --    19 C    0.957
    21   6 C    3.833 --    15 C    1.345    19 C    1.340    46 H    0.964
    22   6 C    3.761 --     3 C    1.297    23 N    1.287    30 C    1.026
    23   7 N    2.976 --    24 C    1.459    22 C    1.287
    24   6 C    3.800 --    23 N    1.459    25 N    1.178    29 C    1.011
    25   7 N    3.453 --    24 C    1.178     2 C    1.043    26 C    0.984
    26   6 C    3.961 --    27 C    0.996    25 N    0.984    47 H    0.963
                            48 H    0.961
    27   6 C    3.989 --    28 C    1.003    26 C    0.996    49 H    0.980
                            50 H    0.977
    28   6 C    3.988 --    27 C    1.003    29 C    0.988    51 H    0.981
                            52 H    0.980
    29   6 C    3.987 --    24 C    1.011    28 C    0.988    53 H    0.973
                            54 H    0.952
    30   6 C    3.989 --    22 C    1.026    56 H    0.980    55 H    0.974
                            57 H    0.959
    31   1 H    0.988 --     4 C    0.958
    32   1 H    0.993 --     4 C    0.966
    33   1 H    0.997 --     5 C    0.969
    34   1 H    0.971 --     5 C    0.948
    35   1 H    0.996 --     7 C    0.970
    36   1 H    0.974 --     7 C    0.950
    37   1 H    0.998 --     8 C    0.975
    38   1 H    0.996 --     8 C    0.973
    39   1 H    0.996 --     9 C    0.963
    40   1 H    0.997 --    10 C    0.975
    41   1 H    0.996 --    10 C    0.971
    42   1 H    0.972 --    11 C    0.947
    43   1 H    0.991 --    11 C    0.960
    44   1 H    0.999 --    17 C    0.966
    45   1 H    0.997 --    18 C    0.968
    46   1 H    0.995 --    21 C    0.964
    47   1 H    0.992 --    26 C    0.963
    48   1 H    0.991 --    26 C    0.961
    49   1 H    0.998 --    27 C    0.980
    50   1 H    0.997 --    27 C    0.977
    51   1 H    0.997 --    28 C    0.981
    52   1 H    0.997 --    28 C    0.980
    53   1 H    0.995 --    29 C    0.973
    54   1 H    0.988 --    29 C    0.952
    55   1 H    0.994 --    30 C    0.974
    56   1 H    0.994 --    30 C    0.980
    57   1 H    0.985 --    30 C    0.959
 ---------------------------------------------------------------------------

Topologies differ in total number of bonds
Writing topology from bond orders to xtbtopo.mol

molecular dipole:
                 x           y           z       tot (Debye)
 q only:       -2.421      -1.479      -0.545
   full:       -2.415      -1.615      -0.529       7.506
molecular quadrupole (traceless):
                xx          xy          yy          xz          yz          zz
 q only:      -11.532     -17.364      -8.805      -0.786       8.980      20.337
  q+dip:      -17.297     -15.354      -4.180       0.622      12.337      21.477
   full:      -18.506     -14.789      -4.073       1.287      10.287      22.579


           -------------------------------------------------
          | TOTAL ENERGY              -87.522840771674 Eh   |
          | GRADIENT NORM               0.111023471520 Eh/α |
          | HOMO-LUMO GAP               0.013256478941 eV   |
           -------------------------------------------------

------------------------------------------------------------------------
 * finished run on 2025/05/15 at 16:29:49.461     
------------------------------------------------------------------------
 total:
 * wall-time:     0 d,  0 h,  0 min,  0.242 sec
 *  cpu-time:     0 d,  0 h,  0 min,  0.188 sec
 * ratio c/w:     0.777 speedup
 SCF:
 * wall-time:     0 d,  0 h,  0 min,  0.224 sec
 *  cpu-time:     0 d,  0 h,  0 min,  0.171 sec
 * ratio c/w:     0.764 speedup


