66
 energy: -102.676308928023 gnorm: 0.000513713749 xtb: 6.7.1 (edcfbbe)
C           -5.69612162329541       -0.34712604311423       -0.52252513203780
C           -6.38042585467431       -0.16807026157599        0.82771465808130
C           -5.39132482514563       -0.09887657947717        2.00072566973942
C           -4.51835498053712        1.10200681699957        1.93433425886092
N           -4.78847690015750        2.28026443783291        2.45555405797432
C           -3.75252999883102        3.10409006495923        2.17677436465621
C           -3.70972628053226        4.52224525527000        2.60625355443394
C           -2.79751001951889        2.41009208323166        1.45366374070794
N           -3.31991419237244        1.13454130069711        1.31263606394672
N           -2.63512096117812        0.16890868822363        0.63361919988603
C           -1.41537889446401        0.48424403108344        0.12607046722261
C           -0.67604585132117       -0.56001032471634       -0.60395395025914
C           -0.92903061658563       -1.94445148298188       -0.50613762444773
C           -0.11181561321423       -2.83741266381297       -1.19787568998280
C            0.92887255100087       -2.37929072911912       -1.98496561855592
C            1.15470405262372       -1.02215690024889       -2.10129137171956
S            2.53139007674180       -0.43573113348572       -3.09911438081507
O            2.13237833310488        0.75356186919438       -3.78504961647927
N            3.71027622334433       -0.02451479452129       -2.01348067226217
C            3.49097875563897        1.15362837914853       -1.20766952690418
C            4.83495191489124        1.60733441279020       -0.63933387155368
N            5.39956143164649        0.52336909997760        0.14253392513218
C            5.64031977068967       -0.63025973796431       -0.70119423481418
C            4.30425785416892       -1.10763949714857       -1.27015849377522
C            6.51755484101310        0.90267815789024        0.98321540935703
C            7.78508965608883        1.37845555640141        0.26504827085393
O            3.02040800139015       -1.54853895728588       -3.86032038598008
C            0.36652945116495       -0.12308172085267       -1.41944849414739
O           -1.97136762035362       -2.34935037875453        0.27143650026272
C           -2.21942520222651       -3.73612100830302        0.46623434822868
C           -3.40875156155573       -3.85884450696031        1.40617073104313
N           -0.87145522080103        1.64382103169569        0.23059119045507
C           -1.48328602983767        2.70465819576051        0.89891498498807
O           -0.92947301121838        3.77727968403405        0.99930358789382
H           -6.44100854096000       -0.41619099919040       -1.31125216406083
H           -5.05051047740646        0.49834243764755       -0.74864572544273
H           -5.10112417487406       -1.25979100331705       -0.54306004489583
H           -7.06361652178210       -1.00233972943015        1.00039187954382
H           -6.96734007328682        0.75099652245694        0.81765637160843
H           -5.95661454830293       -0.04078597674452        2.93140139215028
H           -4.77801800426662       -1.00442523650023        2.02483606927526
H           -2.73576039763107        4.94058577852442        2.36873475000157
H           -3.89723676907401        4.59395755633790        3.67568205559183
H           -4.48310894644292        5.09172131433472        2.09245734274437
H           -3.01637936769678       -0.76740844489577        0.60439303187536
H           -0.28477707140397       -3.89894701468205       -1.12920087176625
H            1.56121709446405       -3.06193461378229       -2.52963539125301
H            2.80295160087336        0.93954054564486       -0.37692777084743
H            3.06051586390471        1.91683582782498       -1.85487050462047
H            5.48732416403254        1.89970883438907       -1.47817367300495
H            4.68118837727979        2.46943063249906        0.01195551515574
H            6.08656264920820       -1.42327806328551       -0.09719467191539
H            6.31134433985997       -0.40038500019119       -1.54509266153102
H            4.44542495468767       -1.93795461462454       -1.96212424489694
H            3.64840205134401       -1.42084423353650       -0.44278246205370
H            6.16199172734695        1.69645286276514        1.64626301845606
H            6.76118741518942        0.03385341889529        1.60217848512859
H            8.54380650801464        1.63306934926529        1.00032299333763
H            8.18124218973999        0.59835249744421       -0.38021326273181
H            7.58066750139951        2.26071239189281       -0.33589055351423
H            0.53178815819079        0.93775207961607       -1.51092683289081
H           -1.33627246885989       -4.21295575088969        0.90761701103977
H           -2.44461792678113       -4.21412244312694       -0.49503856845331
H           -3.19648837741705       -3.35865540774610        2.34799093216648
H           -4.29487592398561       -3.41409392342549        0.95940008978681
H           -3.60950266104622       -4.90730193901561        1.60407254602883
