26
 energy: -46.980930101116 gnorm: 0.000833135972 xtb: 6.7.1 (edcfbbe)
N            4.76987770429359        0.67195479656246        0.17224974436291
C            3.47001340568929        0.33284798046439        0.14563490439630
N            3.14482531408566       -0.82600940941498        0.66788626026054
C            1.88482477428457       -1.27437426237085        0.68989749560349
N            0.88220585872129       -0.39762461841475        0.12862992509466
C           -0.48396300439122       -0.83535186553485        0.16037786219836
C           -0.95590240058548       -1.38233183719396       -1.19697702506174
S           -2.75983100578383       -1.18616867316924       -1.16263204261509
C           -2.64612249407455       -0.12993934341352        0.36453948428156
O           -1.31987905906212        0.25155011625949        0.48944337989161
C           -3.53426842329310        1.10957820996523        0.27405142918648
O           -4.89635033845173        0.80843152111254        0.24399843174023
C            1.21485595586840        0.79052663808706       -0.41338057563960
C            2.50272640797946        1.20789234070351       -0.43700662190290
O            1.52836853732726       -2.34087917636253        1.13013119405309
H            5.08885738542338        1.55624888926768       -0.17820941243393
H            5.41258399919733        0.03897080926518        0.61512067663973
H           -0.54902913926059       -1.62916646655770        0.92259274342331
H           -0.54812764510600       -0.79103200364602       -2.01855122694686
H           -0.69647222495629       -2.42985356606702       -1.32299008397618
H           -2.96045426946531       -0.77672131990219        1.20064443206371
H           -3.27899434620856        1.76352382253010        1.12235238050359
H           -3.32051269961485        1.64142838951583       -0.65572748744375
H           -5.13250139649684        0.28752443179565        1.02042323106559
H            0.39869163255891        1.38360553825564       -0.80176722050948
H            2.78437747132137        2.15536905826324       -0.86203187823539
