48
 energy: -69.042600870630 gnorm: 0.000305834454 xtb: 6.7.1 (edcfbbe)
O            0.31427314416719       -1.28068928446685        3.10660786497475
C            0.29089497202988       -0.67609996214565        1.83312939208333
C           -1.11681948720070       -0.09269568228116        1.57717075889624
N           -2.12657497373539       -1.12235647995025        1.83442135151710
C           -3.41782192554241       -0.46899890276501        2.00179122395802
C           -3.72321166615151        0.44656101423484        0.79763076703081
C           -2.21387331510649       -2.06657718540638        0.73168508797093
C           -2.75382297490428       -1.39140072413556       -0.55851183792243
C           -1.99610484012956       -1.88174643979698       -1.75657814095336
C           -1.41497000165932       -1.16169962824891       -2.69807388303011
C           -2.71012762828510        0.12186423272637       -0.30748733957300
C           -1.30911427202515        0.51187835746068        0.17758827943551
C            1.30470929514393        0.43837683887294        1.78322750833834
C            1.45887149683688        1.23835368204642        2.88862380330996
C            2.34689534303379        2.32329753361374        2.84601728303856
N            3.04422286287149        2.64402402987426        1.79380858447814
C            2.93335464871141        1.87188977015723        0.69570854892626
C            2.08156519063973        0.72886037497234        0.62790533140479
C            2.07573450121053       -0.02156433742907       -0.55945389137925
C            2.84433114538210        0.33927552450533       -1.64587101178314
O            2.74833781564506       -0.47194921057237       -2.73701944889288
C            3.51819252071858       -0.17295286082966       -3.87605155676677
C            3.66147954320293        1.48393355488209       -1.57883669048280
C            3.70337579830859        2.22227825510214       -0.43029561894025
H           -0.55470081369839       -1.68915032643599        3.23098909612537
H            0.52667465292187       -1.43315089342763        1.07236548067119
H           -1.26857117405005        0.67689814998309        2.34360160665719
H           -4.17313468894225       -1.25121073973916        2.10433397572857
H           -3.39564911385288        0.09937064440722        2.93495486937642
H           -3.62904840141412        1.49748803130389        1.07602006951040
H           -4.74022285027404        0.28530393588357        0.43748739512029
H           -1.22154717577461       -2.48346240180316        0.55287295670668
H           -2.86474001137285       -2.88672110331978        1.04656952269459
H           -3.80283622306904       -1.68317775651741       -0.69976756580708
H           -1.94981200703483       -2.96368371282396       -1.81487216177301
H           -1.43001459802207       -0.08555538896742       -2.70993760826406
H           -0.89207013256751       -1.63026926843483       -3.51469559430338
H           -2.96713150674804        0.66778228007803       -1.21805978243113
H           -1.20260247143669        1.59716756324654        0.21333020686639
H           -0.56227849305329        0.12596750702162       -0.51432549727068
H            0.90263859194637        1.02510316228888        3.78751451778202
H            2.47431632807794        2.96018533850067        3.71241494574757
H            1.48189934359887       -0.91645354588235       -0.65642520619927
H            3.24646826987678        0.79749106190619       -4.30377035848023
H            4.59004943794652       -0.18716444028068       -3.65486002772561
H            3.29145087368359       -0.95752689277937       -4.59631230032736
H            4.26390325010053        1.77839216923788       -2.42377354172167
H            4.33336171998705        3.09441415613327       -0.35239136432688
