56
 energy: -97.789534703338 gnorm: 0.000438861250 xtb: 6.7.1 (edcfbbe)
O           -3.96906987443373        2.82081691461944       -2.02764653645673
C           -4.12318312765889        1.53287218193136       -1.71336809122174
C           -5.21816632183711        0.85205450672560       -2.25211861027616
C           -5.44146042105712       -0.46692169284304       -1.93250637951767
C           -4.58046585582830       -1.13998220761302       -1.07348839824391
C           -3.47333304016436       -0.50180561257470       -0.55372103804404
C           -3.21779367338353        0.84213988072701       -0.87664704172856
C           -2.04772044738304        1.53236661933169       -0.34352706629081
C           -1.01283327029652        0.72462667182946        0.26927550955761
C            0.01426758067286        1.33534531699508        0.91932605991648
O            0.17079878194827        2.64905133825192        0.99621485681455
C            1.03185098835412        0.52604141078551        1.71195407416350
C            2.33611107860374        1.31610067453579        1.83950347450317
C            3.18277521917478        1.33751537713222        0.67905592589559
C            4.33154631324503        2.26865266718726        0.58515647560244
N            4.59729308722565        3.02149711383181        1.65152885141629
O            5.02082791069791        2.33994247938012       -0.44525770352500
C            2.95038710230766        0.49201648024738       -0.38802479961855
O            3.66908381578084        0.54183278512019       -1.47637157476774
C            1.89410118370289       -0.59479819458891       -0.37944805636801
N            2.36454135408704       -1.87490747395098       -0.88765806485993
C            3.67758513613276       -2.27266766222235       -0.42097042255996
C            2.23911866484729       -2.04479020977569       -2.31969445508303
O            2.56454356023452        1.86854730163789        2.90925276154452
O            0.50923941290793        0.31576368579065        3.00119766622605
C            1.26650870814405       -0.80976893059963        1.00567830374001
C           -0.07365196823068       -1.53883253638365        0.93406240398256
C           -1.11144159784320       -0.76964392685884        0.11441702520535
C           -2.55877843152780       -1.22750482708090        0.41689229090787
O           -2.66601083687669       -2.62931588094187        0.28505117358737
C           -3.00135330043169       -0.89453655623190        1.84588487697986
O           -1.94305858969761        2.78022937259749       -0.41330190562888
H           -3.19960459066890        3.17004270930774       -1.51921062274209
H           -5.88321979205777        1.39828433525165       -2.90166400238232
H           -6.29882027039305       -0.98087148048348       -2.34028186941303
H           -4.77586867225367       -2.16463250767425       -0.79657102218670
H           -0.58766796564232        3.06846802087788        0.49891196624089
H            5.36100308917881        3.67540780112299        1.60604735428747
H            4.01511809221232        2.94146376103066        2.47729581725234
H            4.37373003564418        1.28289615777589       -1.33470675083984
H            1.11372283590003       -0.24422157841912       -1.06445646433022
H            4.49334430285508       -1.77981508980234       -0.96705259825353
H            3.77640021020250       -3.34997892110833       -0.55468711507533
H            3.78020445542851       -2.04609840461756        0.63820878935690
H            1.21567669014891       -1.82731902662464       -2.62289091328583
H            2.45530069601477       -3.08550952470312       -2.55923982911391
H            2.92353555838320       -1.40566089373334       -2.89140672109233
H            0.97225218157878        0.94671123619621        3.58362053410574
H            1.94771408261401       -1.40327018713842        1.62132666608321
H           -0.43062959192887       -1.65101325538423        1.95617921757880
H            0.07215987466315       -2.52945678649278        0.50557824660241
H           -0.95030537477557       -0.99491143966896       -0.95329368053634
H           -2.41736191357508       -2.88118064755529       -0.61151115897443
H           -2.75116719689720        0.13161054851749        2.09506730200129
H           -4.07544447030086       -1.03665343199294        1.92998562084417
H           -2.51193140774606       -1.56592846167435        2.54394964800942
