----- Optimization -----
      -----------------------------------------------------------      
     |                   =====================                   |     
     |                           x T B                           |     
     |                   =====================                   |     
     |                         S. Grimme                         |     
     |          Mulliken Center for Theoretical Chemistry        |     
     |                    University of Bonn                     |     
      -----------------------------------------------------------      

   * xtb version 6.7.1 (edcfbbe) compiled by 'conda@3ef47c1a292c' on 2024-11-25

   xtb is free software: you can redistribute it and/or modify it under
   the terms of the GNU Lesser General Public License as published by
   the Free Software Foundation, either version 3 of the License, or
   (at your option) any later version.
   
   xtb is distributed in the hope that it will be useful,
   but WITHOUT ANY WARRANTY; without even the implied warranty of
   MERCHANTABILITY or FITNESS FOR A PARTICULAR PURPOSE.  See the
   GNU Lesser General Public License for more details.
   
   Cite this work as:
   * C. Bannwarth, E. Caldeweyher, S. Ehlert, A. Hansen, P. Pracht,
     J. Seibert, S. Spicher, S. Grimme, WIREs Comput. Mol. Sci., 2020, 11,
     e01493. DOI: 10.1002/wcms.1493
   
   for GFN2-xTB:
   * C. Bannwarth, S. Ehlert and S. Grimme., J. Chem. Theory Comput., 2019,
     15, 1652-1671. DOI: 10.1021/acs.jctc.8b01176
   for GFN1-xTB:
   * S. Grimme, C. Bannwarth, P. Shushkov, J. Chem. Theory Comput., 2017,
     13, 1989-2009. DOI: 10.1021/acs.jctc.7b00118
   for GFN0-xTB:
   * P. Pracht, E. Caldeweyher, S. Ehlert, S. Grimme, ChemRxiv, 2019, preprint.
     DOI: 10.26434/chemrxiv.8326202.v1
   for GFN-FF:
   * S. Spicher and S. Grimme, Angew. Chem. Int. Ed., 2020, 59, 15665-15673.
     DOI: 10.1002/anie.202004239
   
   for ALPB and GBSA implicit solvation:
   * S. Ehlert, M. Stahn, S. Spicher, S. Grimme, J. Chem. Theory Comput.,
     2021, 17, 4250-4261. DOI: 10.1021/acs.jctc.1c00471
   
   for ddCOSMO and CPCM-X implicit solvation:
   * M. Stahn, S. Ehlert, S. Grimme, J. Phys. Chem. A,
     2023, XX, XXXX-XXXX. DOI: 10.1021/acs.jpca.3c04382
   
   for DFT-D4:
   * E. Caldeweyher, C. Bannwarth and S. Grimme, J. Chem. Phys., 2017,
     147, 034112. DOI: 10.1063/1.4993215
   * E. Caldeweyher, S. Ehlert, A. Hansen, H. Neugebauer, S. Spicher,
     C. Bannwarth and S. Grimme, J. Chem. Phys., 2019, 150, 154122.
     DOI: 10.1063/1.5090222
   * E. Caldeweyher, J.-M. Mewes, S. Ehlert and S. Grimme, Phys. Chem. Chem. Phys.
     2020, 22, 8499-8512. DOI: 10.1039/D0CP00502A
   
   for sTDA-xTB:
   * S. Grimme and C. Bannwarth, J. Chem. Phys., 2016, 145, 054103.
     DOI: 10.1063/1.4959605
   
   in the mass-spec context:
   * V. Asgeirsson, C. Bauer and S. Grimme, Chem. Sci., 2017, 8, 4879.
     DOI: 10.1039/c7sc00601b
   * J. Koopman and S. Grimme, ACS Omega 2019, 4, 12, 15120-15133.
     DOI: 10.1021/acsomega.9b02011
   
   for metadynamics refer to:
   * S. Grimme, J. Chem. Theory Comput., 2019, 155, 2847-2862
     DOI: 10.1021/acs.jctc.9b00143
   
   for SPH calculations refer to:
   * S. Spicher and S. Grimme, J. Chem. Theory Comput., 2021, 17, 1701-1714
     DOI: 10.1021/acs.jctc.0c01306
   
   for ONIOM refer to:
   * C. Plett, A. Katbashev, S. Ehlert, S. Grimme, M. Bursch,
     Phys. Chem. Chem. Phys., 2023, 25, 17860-17868. DOI: 10.1039/D3CP02178E
   
   for DIPRO refer to:
   * J. Kohn, N. Gildemeister, S. Grimme, D. Fazzi, A. Hansen,
     J. Chem. Phys., 2023, just accepted.
   
   for PTB refer to:
   * S. Grimme, M. Mueller, A. Hansen, J. Chem. Phys., 2023, 158, 124111.
     DOI: 10.1063/5.0137838
   
   with help from (in alphabetical order)
   P. Atkinson, C. Bannwarth, F. Bohle, G. Brandenburg, E. Caldeweyher
   M. Checinski, S. Dohm, S. Ehlert, S. Ehrlich, I. Gerasimov, C. Hölzer
   A. Katbashev, J. Kohn, J. Koopman, C. Lavigne, S. Lehtola, F. März, M. Müller,
   F. Musil, H. Neugebauer, J. Pisarek, C. Plett, P. Pracht, F. Pultar,
   J. Seibert, P. Shushkov, S. Spicher, M. Stahn, M. Steiner, T. Strunk,
   J. Stückrath, T. Rose, and J. Unsleber
   
 * started run on 2025/05/15 at 16:14:40.291     
   ID    Z sym.   atoms
    1    8 O      1, 11, 17, 19, 24, 25, 30, 32
    2    6 C      2-10, 12-15, 18, 20, 22, 23, 26-29, 31
    3    7 N      16, 21
    4    1 H      33-56

           -------------------------------------------------
          |                Calculation Setup                |
           -------------------------------------------------

          program call               : xtb /rds/general/user/hgt20/home/callum/QDESCP/Tetracycline_rdkit_conf_2/Tetracycline_rdkit_conf_2.xyz --opt normal --acc 1 --gfn 2 --chrg 0 --uhf 0 -P 1
          hostname                   : login-c
          coordinate file            : /rds/general/user/hgt20/home/callum/QDESCP/Tetracycline_rdkit_conf_2/Tetracycline_rdkit_conf_2.xyz
          omp threads                :                     1


           -------------------------------------------------
          |                 G F N 2 - x T B                 |
           -------------------------------------------------

        Reference                      10.1021/acs.jctc.8b01176
      * Hamiltonian:
        H0-scaling (s, p, d)           1.850000    2.230000    2.230000
        zeta-weighting                 0.500000
      * Dispersion:
        s8                             2.700000
        a1                             0.520000
        a2                             5.000000
        s9                             5.000000
      * Repulsion:
        kExp                           1.500000    1.000000
        rExp                           1.000000
      * Coulomb:
        alpha                          2.000000
        third order                    shell-resolved
        anisotropic                    true
        a3                             3.000000
        a5                             4.000000
        cn-shift                       1.200000
        cn-exp                         4.000000
        max-rad                        5.000000


          ...................................................
          :                      SETUP                      :
          :.................................................:
          :  # basis functions                 152          :
          :  # atomic orbitals                 152          :
          :  # shells                           88          :
          :  # electrons                       170          :
          :  max. iterations                   250          :
          :  Hamiltonian                  GFN2-xTB          :
          :  restarted?                      false          :
          :  GBSA solvation                  false          :
          :  PC potential                    false          :
          :  electronic temp.          300.0000000     K    :
          :  accuracy                    1.0000000          :
          :  -> integral cutoff          0.2500000E+02      :
          :  -> integral neglect         0.1000000E-07      :
          :  -> SCF convergence          0.1000000E-05 Eh   :
          :  -> wf. convergence          0.1000000E-03 e    :
          :  Broyden damping             0.4000000          :
          :  net charge                          0          :
          :  unpaired electrons                  0          :
          ...................................................

 iter      E             dE          RMSdq      gap      omega  full diag
   1    -98.6615158 -0.986615E+02  0.428E+00    2.29       0.0  T
   2    -98.7841660 -0.122650E+00  0.239E+00    1.90       1.0  T
   3    -98.7801493  0.401669E-02  0.140E+00    1.75       1.0  T
   4    -98.8079137 -0.277644E-01  0.436E-01    1.58       1.0  T
   5    -98.8155198 -0.760612E-02  0.122E-01    1.51       1.0  T
   6    -98.8158741 -0.354268E-03  0.666E-02    1.55       1.0  T
   7    -98.8159708 -0.967285E-04  0.310E-02    1.56       1.0  T
   8    -98.8159858 -0.149393E-04  0.135E-02    1.55       1.0  T
   9    -98.8159918 -0.607507E-05  0.503E-03    1.55       2.7  T
  10    -98.8159922 -0.373903E-06  0.221E-03    1.55       6.0  T
  11    -98.8159922 -0.437415E-07  0.101E-03    1.55      13.2  T
  12    -98.8159923 -0.259102E-07  0.370E-04    1.55      36.2  T
  13    -98.8159923 -0.195067E-08  0.180E-04    1.55      74.3  T

   *** convergence criteria satisfied after 13 iterations ***

         #    Occupation            Energy/Eh            Energy/eV
      -------------------------------------------------------------
         1        2.0000           -0.7307854             -19.8857
       ...           ...                  ...                  ...
        79        2.0000           -0.4222604             -11.4903
        80        2.0000           -0.4191517             -11.4057
        81        2.0000           -0.4114396             -11.1958
        82        2.0000           -0.4041522             -10.9975
        83        2.0000           -0.3997803             -10.8786
        84        2.0000           -0.3963276             -10.7846
        85        2.0000           -0.3644031              -9.9159 (HOMO)
        86                         -0.3073432              -8.3632 (LUMO)
        87                         -0.3006594              -8.1814
        88                         -0.2544419              -6.9237
        89                         -0.2461041              -6.6968
        90                         -0.2352915              -6.4026
       ...                                ...                  ...
       152                          0.6451089              17.5543
      -------------------------------------------------------------
                  HL-Gap            0.0570598 Eh            1.5527 eV
             Fermi-level           -0.3358732 Eh           -9.1396 eV

 SCC (total)                   0 d,  0 h,  0 min,  0.140 sec
 SCC setup                      ...        0 min,  0.001 sec (  0.441%)
 Dispersion                     ...        0 min,  0.001 sec (  0.681%)
 classical contributions        ...        0 min,  0.000 sec (  0.183%)
 integral evaluation            ...        0 min,  0.013 sec (  9.636%)
 iterations                     ...        0 min,  0.081 sec ( 57.931%)
 molecular gradient             ...        0 min,  0.043 sec ( 30.903%)
 printout                       ...        0 min,  0.000 sec (  0.221%)

         :::::::::::::::::::::::::::::::::::::::::::::::::::::
         ::                     SUMMARY                     ::
         :::::::::::::::::::::::::::::::::::::::::::::::::::::
         :: total energy             -97.763290334528 Eh    ::
         :: gradient norm              0.127285058787 Eh/a0 ::
         :: HOMO-LUMO gap              1.552677248772 eV    ::
         ::.................................................::
         :: SCC energy               -98.814362502908 Eh    ::
         :: -> isotropic ES            0.200730134368 Eh    ::
         :: -> anisotropic ES         -0.001261910704 Eh    ::
         :: -> anisotropic XC          0.016850382501 Eh    ::
         :: -> dispersion             -0.070273332498 Eh    ::
         :: repulsion energy           1.051072168380 Eh    ::
         :: add. restraining           0.000000000000 Eh    ::
         :: total charge              -0.000000000000 e     ::
         :::::::::::::::::::::::::::::::::::::::::::::::::::::

      ----------------------------------------------------------- 
     |                   =====================                   |
     |                        A N C O P T                        |
     |                   =====================                   |
     |               Approximate Normal Coordinate               |
     |                Rational Function Optimizer                |
      ----------------------------------------------------------- 
      ----------------------------------------------------------- 
     |                   =====================                   |
     |                        A N C O P T                        |
     |                   =====================                   |
     |               Approximate Normal Coordinate               |
     |                Rational Function Optimizer                |
      ----------------------------------------------------------- 

          ...................................................
          :                      SETUP                      :
          :.................................................:
          :   optimization level            normal          :
          :   max. optcycles                   200          :
          :   ANC micro-cycles                  20          :
          :   degrees of freedom               162          :
          :.................................................:
          :   RF solver                   davidson          :
          :   write xtbopt.log                true          :
          :   linear?                        false          :
          :   energy convergence         0.5000000E-05 Eh   :
          :   grad. convergence          0.1000000E-02 Eh/α :
          :   maxmium RF displ.          1.0000000          :
          :   Hlow (freq-cutoff)         0.1000000E-01      :
          :   Hmax (freq-cutoff)         5.0000000          :
          :   S6 in model hess.         20.0000000          :
          ...................................................

generating ANC from exact Hessian ...
Using Lindh-Hessian (1995)
 Shifting diagonal of input Hessian by    9.6730042877877457E-003
 Lowest  eigenvalues of input Hessian
    0.000000    0.000000    0.000000    0.000000    0.000000    0.000000
    0.010000    0.010107    0.010364    0.010835    0.011098    0.011664
    0.012414    0.012564    0.013647    0.014460    0.015785    0.016510
 Highest eigenvalues
    1.966244    1.969563    2.003662    2.072467    2.143516    2.304518


........................................................................
.............................. CYCLE    1 ..............................
........................................................................

 iter      E             dE          RMSdq      gap      omega  full diag
   1    -98.8159923 -0.988160E+02  0.703E-05    1.55       0.0  T
   2    -98.8159923 -0.403304E-10  0.446E-05    1.55     299.6  T
   3    -98.8159923 -0.161435E-10  0.299E-05    1.55     447.6  T
     SCC iter.                  ...        0 min,  0.012 sec
     gradient                   ...        0 min,  0.071 sec
 * total energy  :   -97.7632903 Eh     change       -0.8058834E-09 Eh
   gradient norm :     0.1272849 Eh/α   predicted     0.0000000E+00 (-100.00%)
   displ. norm   :     0.3786370 α      lambda       -0.2113603E-01
   maximum displ.:     0.1040741 α      in ANC's #37, #20, #26, ...

........................................................................
.............................. CYCLE    2 ..............................
........................................................................

 iter      E             dE          RMSdq      gap      omega  full diag
   1    -98.8655196 -0.988655E+02  0.225E-01    1.49       0.0  T
   2    -98.8662389 -0.719321E-03  0.153E-01    1.59       1.0  T
   3    -98.8668620 -0.623050E-03  0.800E-02    1.57       1.0  T
   4    -98.8669145 -0.525666E-04  0.297E-02    1.58       1.0  T
   5    -98.8669288 -0.143071E-04  0.108E-02    1.58       1.2  T
   6    -98.8669351 -0.629256E-05  0.304E-03    1.58       4.4  T
   7    -98.8669353 -0.219060E-06  0.164E-03    1.58       8.1  T
   8    -98.8669354 -0.234923E-07  0.616E-04    1.58      21.7  T
   9    -98.8669354 -0.823317E-08  0.262E-04    1.58      51.1  T
     SCC iter.                  ...        0 min,  0.064 sec
     gradient                   ...        0 min,  0.043 sec
 * total energy  :   -97.7789630 Eh     change       -0.1567264E-01 Eh
   gradient norm :     0.0663540 Eh/α   predicted    -0.1209679E-01 ( -22.82%)
   displ. norm   :     0.4100941 α      lambda       -0.1094137E-01
   maximum displ.:     0.1376415 α      in ANC's #20, #11, #26, ...

........................................................................
.............................. CYCLE    3 ..............................
........................................................................

 iter      E             dE          RMSdq      gap      omega  full diag
   1    -98.8991223 -0.988991E+02  0.233E-01    1.52       0.0  T
   2    -98.9000829 -0.960534E-03  0.155E-01    1.63       1.0  T
   3    -98.9009841 -0.901201E-03  0.735E-02    1.61       1.0  T
   4    -98.9010310 -0.468988E-04  0.296E-02    1.62       1.0  T
   5    -98.9010355 -0.450173E-05  0.131E-02    1.62       1.0  T
   6    -98.9010457 -0.102039E-04  0.271E-03    1.62       4.9  T
   7    -98.9010458 -0.943878E-07  0.154E-03    1.62       8.7  T
   8    -98.9010458 -0.229937E-07  0.560E-04    1.62      23.9  T
   9    -98.9010458 -0.686495E-08  0.248E-04    1.62      53.9  T
     SCC iter.                  ...        0 min,  0.061 sec
     gradient                   ...        0 min,  0.043 sec
 * total energy  :   -97.7854698 Eh     change       -0.6506861E-02 Eh
   gradient norm :     0.0186478 Eh/α   predicted    -0.6390732E-02 (  -1.78%)
   displ. norm   :     0.2984489 α      lambda       -0.2201563E-02
   maximum displ.:     0.1392903 α      in ANC's #20, #11, #26, ...

........................................................................
.............................. CYCLE    4 ..............................
........................................................................

 iter      E             dE          RMSdq      gap      omega  full diag
   1    -98.9033071 -0.989033E+02  0.102E-01    1.60       0.0  T
   2    -98.9033502 -0.430681E-04  0.582E-02    1.63       1.0  T
   3    -98.9033355  0.146425E-04  0.412E-02    1.62       1.0  T
   4    -98.9033870 -0.514723E-04  0.625E-03    1.63       2.1  T
   5    -98.9033882 -0.117163E-05  0.297E-03    1.63       4.5  T
   6    -98.9033886 -0.426374E-06  0.124E-03    1.63      10.7  T
   7    -98.9033886 -0.164527E-07  0.608E-04    1.63      22.0  T
   8    -98.9033886 -0.566511E-08  0.161E-04    1.63      82.8  T
     SCC iter.                  ...        0 min,  0.030 sec
     gradient                   ...        0 min,  0.070 sec
 * total energy  :   -97.7870685 Eh     change       -0.1598702E-02 Eh
   gradient norm :     0.0157555 Eh/α   predicted    -0.1199022E-02 ( -25.00%)
   displ. norm   :     0.3469092 α      lambda       -0.1539832E-02
   maximum displ.:     0.1561567 α      in ANC's #20, #11, #6, ...

........................................................................
.............................. CYCLE    5 ..............................
........................................................................

 iter      E             dE          RMSdq      gap      omega  full diag
   1    -98.9001486 -0.989001E+02  0.955E-02    1.61       0.0  T
   2    -98.9001709 -0.223014E-04  0.558E-02    1.62       1.0  T
   3    -98.9001455  0.254570E-04  0.281E-02    1.62       1.0  T
   4    -98.9001791 -0.336144E-04  0.537E-03    1.63       2.5  T
   5    -98.9001802 -0.116053E-05  0.221E-03    1.63       6.0  T
   6    -98.9001803 -0.746416E-07  0.122E-03    1.63      11.0  T
   7    -98.9001803 -0.260988E-07  0.628E-04    1.63      21.3  T
   8    -98.9001804 -0.982139E-08  0.158E-04    1.63      84.8  T
     SCC iter.                  ...        0 min,  0.030 sec
     gradient                   ...        0 min,  0.070 sec
 * total energy  :   -97.7880329 Eh     change       -0.9643089E-03 Eh
   gradient norm :     0.0148458 Eh/α   predicted    -0.8625839E-03 ( -10.55%)
   displ. norm   :     0.2205999 α      lambda       -0.5843187E-03
   maximum displ.:     0.1174598 α      in ANC's #6, #11, #20, ...

........................................................................
.............................. CYCLE    6 ..............................
........................................................................

 iter      E             dE          RMSdq      gap      omega  full diag
   1    -98.8987990 -0.988988E+02  0.482E-02    1.63       0.0  T
   2    -98.8988041 -0.507802E-05  0.290E-02    1.62       1.0  T
   3    -98.8987993  0.483147E-05  0.115E-02    1.62       1.2  T
   4    -98.8988049 -0.562567E-05  0.350E-03    1.63       3.8  T
   5    -98.8988055 -0.612862E-06  0.134E-03    1.63      10.0  T
   6    -98.8988055 -0.390823E-07  0.717E-04    1.63      18.6  T
   7    -98.8988056 -0.468442E-08  0.251E-04    1.63      53.2  T
     SCC iter.                  ...        0 min,  0.026 sec
     gradient                   ...        0 min,  0.073 sec
 * total energy  :   -97.7884395 Eh     change       -0.4066409E-03 Eh
   gradient norm :     0.0079593 Eh/α   predicted    -0.3063815E-03 ( -24.66%)
   displ. norm   :     0.2497385 α      lambda       -0.4219798E-03
   maximum displ.:     0.1468173 α      in ANC's #6, #7, #1, ...

........................................................................
.............................. CYCLE    7 ..............................
........................................................................

 iter      E             dE          RMSdq      gap      omega  full diag
   1    -98.8975959 -0.988976E+02  0.502E-02    1.64       0.0  T
   2    -98.8975992 -0.323958E-05  0.299E-02    1.63       1.0  T
   3    -98.8975952  0.394764E-05  0.106E-02    1.63       1.3  T
   4    -98.8976002 -0.494936E-05  0.237E-03    1.64       5.6  T
   5    -98.8976003 -0.170638E-06  0.124E-03    1.63      10.8  T
   6    -98.8976004 -0.218534E-07  0.677E-04    1.63      19.7  T
   7    -98.8976004 -0.915294E-08  0.246E-04    1.63      54.3  T
     SCC iter.                  ...        0 min,  0.053 sec
     gradient                   ...        0 min,  0.043 sec
 * total energy  :   -97.7887353 Eh     change       -0.2958480E-03 Eh
   gradient norm :     0.0059293 Eh/α   predicted    -0.2241530E-03 ( -24.23%)
   displ. norm   :     0.2303298 α      lambda       -0.2758197E-03
   maximum displ.:     0.1387552 α      in ANC's #6, #1, #4, ...

........................................................................
.............................. CYCLE    8 ..............................
........................................................................

 iter      E             dE          RMSdq      gap      omega  full diag
   1    -98.8976524 -0.988977E+02  0.462E-02    1.65       0.0  T
   2    -98.8976540 -0.158991E-05  0.275E-02    1.64       1.0  T
   3    -98.8976515  0.255581E-05  0.730E-03    1.65       1.8  T
   4    -98.8976544 -0.298663E-05  0.207E-03    1.65       6.5  T
   5    -98.8976546 -0.155683E-06  0.905E-04    1.65      14.8  T
   6    -98.8976546 -0.711754E-08  0.412E-04    1.65      32.5  T
     SCC iter.                  ...        0 min,  0.049 sec
     gradient                   ...        0 min,  0.043 sec
 * total energy  :   -97.7889307 Eh     change       -0.1953691E-03 Eh
   gradient norm :     0.0054563 Eh/α   predicted    -0.1452341E-03 ( -25.66%)
   displ. norm   :     0.2382161 α      lambda       -0.2053398E-03
   maximum displ.:     0.1347469 α      in ANC's #6, #1, #4, ...

........................................................................
.............................. CYCLE    9 ..............................
........................................................................

 iter      E             dE          RMSdq      gap      omega  full diag
   1    -98.8971528 -0.988972E+02  0.474E-02    1.66       0.0  T
   2    -98.8971543 -0.150577E-05  0.282E-02    1.66       1.0  T
   3    -98.8971512  0.308130E-05  0.824E-03    1.66       1.6  T
   4    -98.8971549 -0.370020E-05  0.186E-03    1.66       7.2  T
   5    -98.8971550 -0.756762E-07  0.102E-03    1.66      13.1  T
   6    -98.8971550 -0.152987E-07  0.495E-04    1.66      27.0  T
   7    -98.8971550 -0.524346E-08  0.173E-04    1.66      77.2  T
     SCC iter.                  ...        0 min,  0.026 sec
     gradient                   ...        0 min,  0.076 sec
 * total energy  :   -97.7890722 Eh     change       -0.1415290E-03 Eh
   gradient norm :     0.0064871 Eh/α   predicted    -0.1084984E-03 ( -23.34%)
   displ. norm   :     0.2413072 α      lambda       -0.1874077E-03
   maximum displ.:     0.1235914 α      in ANC's #6, #1, #4, ...

........................................................................
.............................. CYCLE   10 ..............................
........................................................................

 iter      E             dE          RMSdq      gap      omega  full diag
   1    -98.8983078 -0.988983E+02  0.495E-02    1.66       0.0  T
   2    -98.8983098 -0.197609E-05  0.291E-02    1.67       1.0  T
   3    -98.8983075  0.231958E-05  0.796E-03    1.67       1.7  T
   4    -98.8983103 -0.285091E-05  0.201E-03    1.67       6.6  T
   5    -98.8983105 -0.120447E-06  0.105E-03    1.67      12.7  T
   6    -98.8983105 -0.226612E-07  0.534E-04    1.67      25.0  T
   7    -98.8983105 -0.434360E-08  0.161E-04    1.67      83.2  T
     SCC iter.                  ...        0 min,  0.026 sec
     gradient                   ...        0 min,  0.076 sec
 * total energy  :   -97.7891894 Eh     change       -0.1171460E-03 Eh
   gradient norm :     0.0054402 Eh/α   predicted    -0.9916184E-04 ( -15.35%)
   displ. norm   :     0.1932096 α      lambda       -0.1166552E-03
   maximum displ.:     0.0967388 α      in ANC's #1, #4, #6, ...

........................................................................
.............................. CYCLE   11 ..............................
........................................................................

 iter      E             dE          RMSdq      gap      omega  full diag
   1    -98.8985019 -0.988985E+02  0.378E-02    1.67       0.0  T
   2    -98.8985032 -0.123954E-05  0.224E-02    1.67       1.0  T
   3    -98.8985006  0.260903E-05  0.772E-03    1.68       1.7  T
   4    -98.8985036 -0.304163E-05  0.182E-03    1.68       7.3  T
   5    -98.8985037 -0.127052E-06  0.830E-04    1.68      16.1  T
   6    -98.8985038 -0.630722E-08  0.396E-04    1.68      33.7  T
     SCC iter.                  ...        0 min,  0.022 sec
     gradient                   ...        0 min,  0.076 sec
 * total energy  :   -97.7892706 Eh     change       -0.8126201E-04 Eh
   gradient norm :     0.0039609 Eh/α   predicted    -0.6050557E-04 ( -25.54%)
   displ. norm   :     0.1528041 α      lambda       -0.9151831E-04
   maximum displ.:     0.0842955 α      in ANC's #1, #4, #8, ...

........................................................................
.............................. CYCLE   12 ..............................
........................................................................

 iter      E             dE          RMSdq      gap      omega  full diag
   1    -98.9001235 -0.989001E+02  0.313E-02    1.68       0.0  T
   2    -98.9001247 -0.118238E-05  0.183E-02    1.68       1.0  T
   3    -98.9001213  0.339886E-05  0.925E-03    1.68       1.4  T
   4    -98.9001254 -0.410268E-05  0.158E-03    1.68       8.4  T
   5    -98.9001255 -0.100755E-06  0.689E-04    1.68      19.4  T
   6    -98.9001255 -0.498270E-08  0.388E-04    1.68      34.4  T
     SCC iter.                  ...        0 min,  0.055 sec
     gradient                   ...        0 min,  0.045 sec
 * total energy  :   -97.7893338 Eh     change       -0.6311870E-04 Eh
   gradient norm :     0.0027975 Eh/α   predicted    -0.4682858E-04 ( -25.81%)
   displ. norm   :     0.1333488 α      lambda       -0.5309939E-04
   maximum displ.:     0.0747782 α      in ANC's #1, #4, #8, ...

........................................................................
.............................. CYCLE   13 ..............................
........................................................................

 iter      E             dE          RMSdq      gap      omega  full diag
   1    -98.9004680 -0.989005E+02  0.254E-02    1.68       0.0  T
   2    -98.9004687 -0.787240E-06  0.148E-02    1.68       1.0  T
   3    -98.9004672  0.150775E-05  0.589E-03    1.68       2.3  T
   4    -98.9004690 -0.180728E-05  0.109E-03    1.68      12.3  T
   5    -98.9004691 -0.409992E-07  0.519E-04    1.68      25.7  T
   6    -98.9004691 -0.495696E-08  0.292E-04    1.68      45.7  T
     SCC iter.                  ...        0 min,  0.043 sec
     gradient                   ...        0 min,  0.044 sec
 * total energy  :   -97.7893717 Eh     change       -0.3796091E-04 Eh
   gradient norm :     0.0023149 Eh/α   predicted    -0.2702655E-04 ( -28.80%)
   displ. norm   :     0.1128305 α      lambda       -0.3988528E-04
   maximum displ.:     0.0624455 α      in ANC's #1, #4, #3, ...

........................................................................
.............................. CYCLE   14 ..............................
........................................................................

 iter      E             dE          RMSdq      gap      omega  full diag
   1    -98.9013942 -0.989014E+02  0.240E-02    1.69       0.0  T
   2    -98.9013949 -0.743583E-06  0.140E-02    1.68       1.0  T
   3    -98.9013938  0.110173E-05  0.514E-03    1.69       2.6  T
   4    -98.9013952 -0.134729E-05  0.837E-04    1.68      16.0  T
   5    -98.9013952 -0.243364E-07  0.400E-04    1.68      33.4  T
   6    -98.9013952 -0.298257E-08  0.215E-04    1.68      62.0  T
     SCC iter.                  ...        0 min,  0.043 sec
     gradient                   ...        0 min,  0.044 sec
 * total energy  :   -97.7894008 Eh     change       -0.2908655E-04 Eh
   gradient norm :     0.0022734 Eh/α   predicted    -0.2020051E-04 ( -30.55%)
   displ. norm   :     0.1221891 α      lambda       -0.3455841E-04
   maximum displ.:     0.0687831 α      in ANC's #1, #4, #3, ...

........................................................................
.............................. CYCLE   15 ..............................
........................................................................

 iter      E             dE          RMSdq      gap      omega  full diag
   1    -98.9012319 -0.989012E+02  0.249E-02    1.69       0.0  T
   2    -98.9012323 -0.395939E-06  0.146E-02    1.69       1.0  T
   3    -98.9012311  0.119408E-05  0.509E-03    1.69       2.6  T
   4    -98.9012325 -0.138994E-05  0.795E-04    1.69      16.8  T
   5    -98.9012325 -0.197897E-07  0.434E-04    1.69      30.8  T
   6    -98.9012325 -0.546071E-08  0.203E-04    1.69      65.7  T
     SCC iter.                  ...        0 min,  0.022 sec
     gradient                   ...        0 min,  0.043 sec
 * total energy  :   -97.7894271 Eh     change       -0.2625013E-04 Eh
   gradient norm :     0.0022500 Eh/α   predicted    -0.1753810E-04 ( -33.19%)
   displ. norm   :     0.1249345 α      lambda       -0.3241684E-04
   maximum displ.:     0.0691662 α      in ANC's #1, #4, #3, ...

........................................................................
.............................. CYCLE   16 ..............................
........................................................................

 iter      E             dE          RMSdq      gap      omega  full diag
   1    -98.9014644 -0.989015E+02  0.268E-02    1.68       0.0  T
   2    -98.9014646 -0.248587E-06  0.157E-02    1.69       1.0  T
   3    -98.9014635  0.115684E-05  0.491E-03    1.69       2.7  T
   4    -98.9014648 -0.132785E-05  0.721E-04    1.69      18.5  T
   5    -98.9014648 -0.145357E-07  0.402E-04    1.69      33.2  T
   6    -98.9014648 -0.302552E-08  0.176E-04    1.69      76.0  T
     SCC iter.                  ...        0 min,  0.022 sec
     gradient                   ...        0 min,  0.071 sec
 * total energy  :   -97.7894523 Eh     change       -0.2528699E-04 Eh
   gradient norm :     0.0022769 Eh/α   predicted    -0.1646212E-04 ( -34.90%)
   displ. norm   :     0.1430719 α      lambda       -0.3231299E-04
   maximum displ.:     0.0798455 α      in ANC's #1, #3, #4, ...

........................................................................
.............................. CYCLE   17 ..............................
........................................................................

 iter      E             dE          RMSdq      gap      omega  full diag
   1    -98.9010985 -0.989011E+02  0.297E-02    1.68       0.0  T
   2    -98.9010989 -0.333611E-06  0.174E-02    1.68       1.0  T
   3    -98.9010979  0.921886E-06  0.432E-03    1.68       3.1  T
   4    -98.9010990 -0.109406E-05  0.766E-04    1.68      17.4  T
   5    -98.9010990 -0.106737E-07  0.435E-04    1.68      30.7  T
   6    -98.9010990 -0.265413E-08  0.219E-04    1.68      60.9  T
     SCC iter.                  ...        0 min,  0.023 sec
     gradient                   ...        0 min,  0.077 sec
 * total energy  :   -97.7894772 Eh     change       -0.2486265E-04 Eh
   gradient norm :     0.0020077 Eh/α   predicted    -0.1649062E-04 ( -33.67%)
   displ. norm   :     0.1423535 α      lambda       -0.2665979E-04
   maximum displ.:     0.0788125 α      in ANC's #1, #3, #4, ...

........................................................................
.............................. CYCLE   18 ..............................
........................................................................

 iter      E             dE          RMSdq      gap      omega  full diag
   1    -98.9009706 -0.989010E+02  0.291E-02    1.68       0.0  T
   2    -98.9009709 -0.371598E-06  0.171E-02    1.68       1.0  T
   3    -98.9009702  0.683424E-06  0.362E-03    1.68       3.7  T
   4    -98.9009711 -0.835926E-06  0.731E-04    1.68      18.3  T
   5    -98.9009711 -0.101643E-07  0.379E-04    1.68      35.2  T
     SCC iter.                  ...        0 min,  0.019 sec
     gradient                   ...        0 min,  0.078 sec
 * total energy  :   -97.7894975 Eh     change       -0.2031803E-04 Eh
   gradient norm :     0.0017268 Eh/α   predicted    -0.1360463E-04 ( -33.04%)
   displ. norm   :     0.1948443 α      lambda       -0.1990088E-04
   maximum displ.:     0.1096489 α      in ANC's #3, #1, #4, ...

........................................................................
.............................. CYCLE   19 ..............................
........................................................................

 iter      E             dE          RMSdq      gap      omega  full diag
   1    -98.9005942 -0.989006E+02  0.381E-02    1.68       0.0  T
   2    -98.9005949 -0.689344E-06  0.224E-02    1.69       1.0  T
   3    -98.9005926  0.222456E-05  0.653E-03    1.69       2.0  T
   4    -98.9005952 -0.259663E-05  0.113E-03    1.69      11.8  T
   5    -98.9005953 -0.264058E-07  0.624E-04    1.69      21.4  T
   6    -98.9005953 -0.642817E-08  0.318E-04    1.69      42.1  T
     SCC iter.                  ...        0 min,  0.022 sec
     gradient                   ...        0 min,  0.071 sec
 * total energy  :   -97.7895160 Eh     change       -0.1847507E-04 Eh
   gradient norm :     0.0014519 Eh/α   predicted    -0.1012181E-04 ( -45.21%)
   displ. norm   :     0.0808896 α      lambda       -0.7978231E-05
   maximum displ.:     0.0478793 α      in ANC's #3, #1, #4, ...

........................................................................
.............................. CYCLE   20 ..............................
........................................................................

 iter      E             dE          RMSdq      gap      omega  full diag
   1    -98.9009665 -0.989010E+02  0.152E-02    1.69       0.0  T
   2    -98.9009667 -0.182274E-06  0.891E-03    1.69       1.5  T
   3    -98.9009658  0.874825E-06  0.439E-03    1.69       3.0  T
   4    -98.9009668 -0.103081E-05  0.583E-04    1.69      22.9  T
   5    -98.9009669 -0.120845E-07  0.284E-04    1.69      47.1  T
   6    -98.9009669 -0.104083E-08  0.152E-04    1.69      87.9  T
     SCC iter.                  ...        0 min,  0.044 sec
     gradient                   ...        0 min,  0.044 sec
 * total energy  :   -97.7895245 Eh     change       -0.8517018E-05 Eh
   gradient norm :     0.0010066 Eh/α   predicted    -0.4001503E-05 ( -53.02%)
   displ. norm   :     0.0884464 α      lambda       -0.7907292E-05
   maximum displ.:     0.0543641 α      in ANC's #3, #4, #1, ...
 * RMSD in coord.:     0.3774790 α      energy gain  -0.2623419E-01 Eh

generating ANC from exact Hessian ...
Using Lindh-Hessian (1995)
 Shifting diagonal of input Hessian by    9.6274192216916320E-003
 Lowest  eigenvalues of input Hessian
    0.000000    0.000000    0.000000    0.000000    0.000000    0.000000
    0.010000    0.010155    0.010415    0.010900    0.011287    0.011840
    0.012665    0.013045    0.013778    0.014954    0.016522    0.017231
 Highest eigenvalues
    2.022557    2.058432    2.071872    2.166277    2.179607    2.353655


........................................................................
.............................. CYCLE   21 ..............................
........................................................................

 iter      E             dE          RMSdq      gap      omega  full diag
   1    -98.9011081 -0.989011E+02  0.157E-02    1.69       0.0  T
   2    -98.9011084 -0.273529E-06  0.906E-03    1.69       1.5  T
   3    -98.9011073  0.104405E-05  0.510E-03    1.69       2.6  T
   4    -98.9011086 -0.128948E-05  0.677E-04    1.69      19.7  T
   5    -98.9011086 -0.163228E-07  0.335E-04    1.69      39.9  T
   6    -98.9011086 -0.176624E-08  0.182E-04    1.69      73.4  T
     SCC iter.                  ...        0 min,  0.022 sec
     gradient                   ...        0 min,  0.071 sec
 * total energy  :   -97.7895316 Eh     change       -0.7124305E-05 Eh
   gradient norm :     0.0008436 Eh/α   predicted     0.0000000E+00 (-100.00%)
   displ. norm   :     0.0161428 α      lambda       -0.3041204E-05
   maximum displ.:     0.0080090 α      in ANC's #3, #7, #19, ...

........................................................................
.............................. CYCLE   22 ..............................
........................................................................

 iter      E             dE          RMSdq      gap      omega  full diag
   1    -98.9011279 -0.989011E+02  0.417E-03    1.69       0.0  T
   2    -98.9011280 -0.264896E-07  0.251E-03    1.69       5.3  T
   3    -98.9011279  0.796702E-07  0.138E-03    1.69       9.7  T
   4    -98.9011280 -0.988504E-07  0.217E-04    1.69      61.5  T
   5    -98.9011280 -0.198501E-08  0.874E-05    1.69     153.0  T
     SCC iter.                  ...        0 min,  0.019 sec
     gradient                   ...        0 min,  0.077 sec
 * total energy  :   -97.7895347 Eh     change       -0.3056975E-05 Eh
   gradient norm :     0.0004386 Eh/α   predicted    -0.1526170E-05 ( -50.08%)
   displ. norm   :     0.0387970 α      lambda       -0.4210098E-05
   maximum displ.:     0.0202636 α      in ANC's #3, #7, #8, ...

   *** GEOMETRY OPTIMIZATION CONVERGED AFTER 22 ITERATIONS ***

------------------------------------------------------------------------
 total energy gain   :        -0.0262444 Eh      -16.4686 kcal/mol
 total RMSD          :         0.3776709 a0        0.1999 Å
 total power (kW/mol):        -3.1320264 (step)  -25.6787 (real)
------------------------------------------------------------------------

 ANCopt (total)                0 d,  0 h,  0 min,  2.683 sec
 optimizer setup                ...        0 min,  0.000 sec (  0.003%)
 model hessian                  ...        0 min,  0.144 sec (  5.355%)
 ANC generation                 ...        0 min,  0.005 sec (  0.198%)
 coordinate transformation      ...        0 min,  0.000 sec (  0.010%)
 single point calculation       ...        0 min,  2.527 sec ( 94.170%)
 optimization log               ...        0 min,  0.004 sec (  0.153%)
 hessian update                 ...        0 min,  0.000 sec (  0.015%)
 rational function              ...        0 min,  0.002 sec (  0.067%)

================
 final structure:
================
56
 xtb: 6.7.1 (edcfbbe)
O           -3.96906987443373        2.82081691461944       -2.02764653645673
C           -4.12318312765889        1.53287218193136       -1.71336809122174
C           -5.21816632183711        0.85205450672560       -2.25211861027616
C           -5.44146042105712       -0.46692169284304       -1.93250637951767
C           -4.58046585582830       -1.13998220761302       -1.07348839824391
C           -3.47333304016436       -0.50180561257470       -0.55372103804404
C           -3.21779367338353        0.84213988072701       -0.87664704172856
C           -2.04772044738304        1.53236661933169       -0.34352706629081
C           -1.01283327029652        0.72462667182946        0.26927550955761
C            0.01426758067286        1.33534531699508        0.91932605991648
O            0.17079878194827        2.64905133825192        0.99621485681455
C            1.03185098835412        0.52604141078551        1.71195407416350
C            2.33611107860374        1.31610067453579        1.83950347450317
C            3.18277521917478        1.33751537713222        0.67905592589559
C            4.33154631324503        2.26865266718726        0.58515647560244
N            4.59729308722565        3.02149711383181        1.65152885141629
O            5.02082791069791        2.33994247938012       -0.44525770352500
C            2.95038710230766        0.49201648024738       -0.38802479961855
O            3.66908381578084        0.54183278512019       -1.47637157476774
C            1.89410118370289       -0.59479819458891       -0.37944805636801
N            2.36454135408704       -1.87490747395098       -0.88765806485993
C            3.67758513613276       -2.27266766222235       -0.42097042255996
C            2.23911866484729       -2.04479020977569       -2.31969445508303
O            2.56454356023452        1.86854730163789        2.90925276154452
O            0.50923941290793        0.31576368579065        3.00119766622605
C            1.26650870814405       -0.80976893059963        1.00567830374001
C           -0.07365196823068       -1.53883253638365        0.93406240398256
C           -1.11144159784320       -0.76964392685884        0.11441702520535
C           -2.55877843152780       -1.22750482708090        0.41689229090787
O           -2.66601083687669       -2.62931588094187        0.28505117358737
C           -3.00135330043169       -0.89453655623190        1.84588487697986
O           -1.94305858969761        2.78022937259749       -0.41330190562888
H           -3.19960459066890        3.17004270930774       -1.51921062274209
H           -5.88321979205777        1.39828433525165       -2.90166400238232
H           -6.29882027039305       -0.98087148048348       -2.34028186941303
H           -4.77586867225367       -2.16463250767425       -0.79657102218670
H           -0.58766796564232        3.06846802087788        0.49891196624089
H            5.36100308917881        3.67540780112299        1.60604735428747
H            4.01511809221232        2.94146376103066        2.47729581725234
H            4.37373003564418        1.28289615777589       -1.33470675083984
H            1.11372283590003       -0.24422157841912       -1.06445646433022
H            4.49334430285508       -1.77981508980234       -0.96705259825353
H            3.77640021020250       -3.34997892110833       -0.55468711507533
H            3.78020445542851       -2.04609840461756        0.63820878935690
H            1.21567669014891       -1.82731902662464       -2.62289091328583
H            2.45530069601477       -3.08550952470312       -2.55923982911391
H            2.92353555838320       -1.40566089373334       -2.89140672109233
H            0.97225218157878        0.94671123619621        3.58362053410574
H            1.94771408261401       -1.40327018713842        1.62132666608321
H           -0.43062959192887       -1.65101325538423        1.95617921757880
H            0.07215987466315       -2.52945678649278        0.50557824660241
H           -0.95030537477557       -0.99491143966896       -0.95329368053634
H           -2.41736191357508       -2.88118064755529       -0.61151115897443
H           -2.75116719689720        0.13161054851749        2.09506730200129
H           -4.07544447030086       -1.03665343199294        1.92998562084417
H           -2.51193140774606       -1.56592846167435        2.54394964800942

 Bond Distances (Angstroems)
 ---------------------------
O1-C2=1.3347         O1-H33=0.9862        C2-O1=1.3347         C2-C3=1.3974         C2-C7=1.4131         C3-C2=1.3974         
C3-C4=1.3754         C3-H34=1.0782        C4-C3=1.3754         C4-C5=1.3900         C4-H35=1.0796        C5-C4=1.3900         
C5-C6=1.3796         C5-H36=1.0792        C6-C5=1.3796         C6-C7=1.4056         C6-C29=1.5183        C7-C2=1.4131         
C7-C6=1.4056         C7-C8=1.4593         C8-C7=1.4593         C8-C9=1.4488         C8-O32=1.2542        C9-C8=1.4488         
C9-C10=1.3603        C9-C28=1.5055        C10-C9=1.3603        C10-O11=1.3252       C10-C12=1.5227       O11-C10=1.3252       
O11-H37=0.9992       C12-C10=1.5227       C12-C13=1.5302       C12-O25=1.4069       C12-C26=1.5291       C13-C12=1.5302       
C13-C14=1.4366       C13-O24=1.2255       C14-C13=1.4366       C14-C15=1.4817       C14-C18=1.3811       C15-C14=1.4817       
C15-N16=1.3321       C15-O17=1.2418       N16-C15=1.3321       N16-H38=1.0064       N16-H39=1.0135       O17-C15=1.2418       
C18-C14=1.3811       C18-O19=1.3052       C18-C20=1.5156       O19-C18=1.3052       O19-H40=1.0324       C20-C18=1.5156       
C20-N21=1.4554       C20-C26=1.5358       C20-H41=1.0960       N21-C20=1.4554       N21-C22=1.4492       N21-C23=1.4475       
C22-N21=1.4492       C22-H42=1.0984       C22-H43=1.0901       C22-H44=1.0880       C23-N21=1.4475       C23-H45=1.0893       
C23-H46=1.0896       C23-H47=1.0972       O24-C13=1.2255       O25-C12=1.4069       O25-H48=0.9755       C26-C12=1.5291       
C26-C20=1.5358       C26-C27=1.5273       C26-H49=1.0933       C27-C26=1.5273       C27-C28=1.5299       C27-H50=1.0885       
C27-H51=1.0891       C28-C9=1.5055        C28-C27=1.5299       C28-C29=1.5479       C28-H52=1.1030       C29-C6=1.5183        
C29-C28=1.5479       C29-O30=1.4121       C29-C31=1.5326       O30-C29=1.4121       O30-H53=0.9639       C31-C29=1.5326       
C31-H54=1.0852       C31-H55=1.0867       C31-H56=1.0852       O32-C8=1.2542        H33-O1=0.9862        H34-C3=1.0782        
H35-C4=1.0796        H36-C5=1.0792        H37-O11=0.9992       H38-N16=1.0064       H39-N16=1.0135       H40-O19=1.0324       
H41-C20=1.0960       H42-C22=1.0984       H43-C22=1.0901       H44-C22=1.0880       H45-C23=1.0893       H46-C23=1.0896       
H47-C23=1.0972       H48-O25=0.9755       H49-C26=1.0933       H50-C27=1.0885       H51-C27=1.0891       H52-C28=1.1030       
H53-O30=0.9639       H54-C31=1.0852       H55-C31=1.0867       H56-C31=1.0852       
 C  H  Rav=1.0892 sigma=0.0067  Rmin=1.0782  Rmax=1.1030    17
 C  C  Rav=1.4663 sigma=0.0640  Rmin=1.3603  Rmax=1.5479    23
 N  H  Rav=1.0100 sigma=0.0035  Rmin=1.0064  Rmax=1.0135     2
 N  C  Rav=1.4211 sigma=0.0514  Rmin=1.3321  Rmax=1.4554     4
 O  H  Rav=0.9914 sigma=0.0236  Rmin=0.9639  Rmax=1.0324     5
 O  C  Rav=1.3132 sigma=0.0666  Rmin=1.2255  Rmax=1.4121     8

 selected bond angles (degree)
 --------------------
H33-O1-C2=108.08               C3-C2-O1=118.02                C7-C2-O1=122.49                C7-C2-C3=119.48                
C4-C3-C2=120.32                H34-C3-C2=117.95               H34-C3-C4=121.71               C5-C4-C3=120.49                
H35-C4-C3=119.85               H35-C4-C5=119.66               C6-C5-C4=120.39                H36-C5-C4=120.41               
H36-C5-C6=119.20               C7-C6-C5=120.11                C29-C6-C5=120.21               C29-C6-C7=119.63               
C6-C7-C2=119.14                C8-C7-C2=119.92                C8-C7-C6=120.93                C9-C8-C7=117.62                
O32-C8-C7=121.14               O32-C8-C9=121.24               C10-C9-C8=119.42               C28-C9-C8=117.59               
C28-C9-C10=122.97              O11-C10-C9=124.19              C12-C10-C9=120.98              C12-C10-O11=114.69             

 selected dihedral angles (degree)
 ---------------------------------
C3-C2-O1-H33=175.75           C7-C2-O1-H33=355.03           C4-C3-C2-O1=181.66            C4-C3-C2-C7=  2.36            
H34-C3-C2-O1=  0.39           H34-C3-C2-C7=181.10           C5-C4-C3-C2=359.84            C5-C4-C3-H34=181.15           
H35-C4-C3-C2=179.00           H35-C4-C3-H34=  0.31          C6-C5-C4-C3=358.54            C6-C5-C4-H35=179.38           
H36-C5-C4-C3=177.87           H36-C5-C4-H35=358.71          C7-C6-C5-C4=  0.83            C7-C6-C5-H36=181.49           
C29-C6-C5-C4=178.16           C29-C6-C5-H36=358.82          C6-C7-C2-O1=177.80            C6-C7-C2-C3=357.06            
C8-C7-C2-O1=358.77            C8-C7-C2-C3=178.04            C2-C7-C6-C5=  1.36            C2-C7-C6-C29=184.02           
C8-C7-C6-C5=180.37            C8-C7-C6-C29=  3.03           C9-C8-C7-C2=192.62            C9-C8-C7-C6= 13.62            
O32-C8-C7-C2= 12.66           O32-C8-C7-C6=193.65           C10-C9-C8-C7=187.84           C10-C9-C8-O32=  7.81          
C28-C9-C8-C7=  9.67           C28-C9-C8-O32=189.64          O11-C10-C9-C8=357.40          O11-C10-C9-C28=175.47         
C12-C10-C9-C8=172.86          C12-C10-C9-C28=350.93         
           -------------------------------------------------
          |                Final Singlepoint                |
           -------------------------------------------------

          ...................................................
          :                      SETUP                      :
          :.................................................:
          :  # basis functions                 152          :
          :  # atomic orbitals                 152          :
          :  # shells                           88          :
          :  # electrons                       170          :
          :  max. iterations                   250          :
          :  Hamiltonian                  GFN2-xTB          :
          :  restarted?                      false          :
          :  GBSA solvation                  false          :
          :  PC potential                    false          :
          :  electronic temp.          300.0000000     K    :
          :  accuracy                    1.0000000          :
          :  -> integral cutoff          0.2500000E+02      :
          :  -> integral neglect         0.1000000E-07      :
          :  -> SCF convergence          0.1000000E-05 Eh   :
          :  -> wf. convergence          0.1000000E-03 e    :
          :  Broyden damping             0.4000000          :
          :  net charge                          0          :
          :  unpaired electrons                  0          :
          ...................................................

 iter      E             dE          RMSdq      gap      omega  full diag
   1    -98.9011280 -0.989011E+02  0.448E-05    1.69       0.0  T
   2    -98.9011280 -0.129887E-10  0.296E-05    1.69     451.2  T
   3    -98.9011280 -0.155609E-10  0.194E-05    1.69     690.1  T

   *** convergence criteria satisfied after 3 iterations ***

         #    Occupation            Energy/Eh            Energy/eV
      -------------------------------------------------------------
         1        2.0000           -0.7454772             -20.2855
       ...           ...                  ...                  ...
        79        2.0000           -0.4213797             -11.4663
        80        2.0000           -0.4183185             -11.3830
        81        2.0000           -0.4112596             -11.1909
        82        2.0000           -0.3987082             -10.8494
        83        2.0000           -0.3941238             -10.7247
        84        2.0000           -0.3909376             -10.6380
        85        2.0000           -0.3641653              -9.9094 (HOMO)
        86                         -0.3020167              -8.2183 (LUMO)
        87                         -0.2962442              -8.0612
        88                         -0.2516419              -6.8475
        89                         -0.2381336              -6.4799
        90                         -0.2270935              -6.1795
       ...                                ...                  ...
       152                          0.6592271              17.9385
      -------------------------------------------------------------
                  HL-Gap            0.0621486 Eh            1.6911 eV
             Fermi-level           -0.3330910 Eh           -9.0639 eV

 SCC (total)                   0 d,  0 h,  0 min,  0.096 sec
 SCC setup                      ...        0 min,  0.001 sec (  0.529%)
 Dispersion                     ...        0 min,  0.001 sec (  0.534%)
 classical contributions        ...        0 min,  0.000 sec (  0.264%)
 integral evaluation            ...        0 min,  0.013 sec ( 13.583%)
 iterations                     ...        0 min,  0.011 sec ( 11.905%)
 molecular gradient             ...        0 min,  0.070 sec ( 72.908%)
 printout                       ...        0 min,  0.000 sec (  0.270%)

         :::::::::::::::::::::::::::::::::::::::::::::::::::::
         ::                     SUMMARY                     ::
         :::::::::::::::::::::::::::::::::::::::::::::::::::::
         :: total energy             -97.789534703338 Eh    ::
         :: gradient norm              0.000438861250 Eh/a0 ::
         :: HOMO-LUMO gap              1.691149739417 eV    ::
         ::.................................................::
         :: SCC energy               -98.899399825552 Eh    ::
         :: -> isotropic ES            0.199406205820 Eh    ::
         :: -> anisotropic ES         -0.002079296619 Eh    ::
         :: -> anisotropic XC          0.013698149009 Eh    ::
         :: -> dispersion             -0.072412181331 Eh    ::
         :: repulsion energy           1.109865122214 Eh    ::
         :: add. restraining           0.000000000000 Eh    ::
         :: total charge              -0.000000000000 e     ::
         :::::::::::::::::::::::::::::::::::::::::::::::::::::

           -------------------------------------------------
          |                Property Printout                |
           -------------------------------------------------

    * Orbital Energies and Occupations

         #    Occupation            Energy/Eh            Energy/eV
      -------------------------------------------------------------
         1        2.0000           -0.7454772             -20.2855
       ...           ...                  ...                  ...
        73        2.0000           -0.4468370             -12.1591
        74        2.0000           -0.4406300             -11.9902
        75        2.0000           -0.4356248             -11.8540
        76        2.0000           -0.4317637             -11.7489
        77        2.0000           -0.4248282             -11.5602
        78        2.0000           -0.4221448             -11.4871
        79        2.0000           -0.4213797             -11.4663
        80        2.0000           -0.4183185             -11.3830
        81        2.0000           -0.4112596             -11.1909
        82        2.0000           -0.3987082             -10.8494
        83        2.0000           -0.3941238             -10.7247
        84        2.0000           -0.3909376             -10.6380
        85        2.0000           -0.3641653              -9.9094 (HOMO)
        86                         -0.3020167              -8.2183 (LUMO)
        87                         -0.2962442              -8.0612
        88                         -0.2516419              -6.8475
        89                         -0.2381336              -6.4799
        90                         -0.2270935              -6.1795
        91                         -0.1726004              -4.6967
        92                         -0.1501644              -4.0862
        93                         -0.0949598              -2.5840
        94                         -0.0038744              -0.1054
        95                         -0.0003124              -0.0085
        96                          0.0185776               0.5055
       ...                                ...                  ...
       152                          0.6592271              17.9385
      -------------------------------------------------------------
                  HL-Gap            0.0621486 Eh            1.6911 eV
             Fermi-level           -0.3330910 Eh           -9.0639 eV

     #   Z          covCN         q      C6AA      α(0)
     1   8 O        1.658    -0.381    20.483     6.110
     2   6 C        2.846     0.166    24.419     8.099
     3   6 C        2.916    -0.059    29.455     8.900
     4   6 C        2.918    -0.023    28.570     8.765
     5   6 C        2.920    -0.049    29.217     8.864
     6   6 C        2.980    -0.009    28.247     8.718
     7   6 C        2.973    -0.064    29.585     8.922
     8   6 C        2.837     0.212    23.515     7.947
     9   6 C        2.953    -0.079    29.963     8.978
    10   6 C        2.835     0.154    24.649     8.136
    11   8 O        1.655    -0.371    20.288     6.080
    12   6 C        3.792     0.117    18.678     6.155
    13   6 C        2.827     0.213    23.507     7.945
    14   6 C        2.951    -0.123    31.137     9.152
    15   6 C        2.754     0.283    22.204     7.716
    16   7 N        2.639    -0.256    26.647     7.667
    17   8 O        0.871    -0.478    23.290     6.471
    18   6 C        2.831     0.173    24.277     8.074
    19   8 O        1.646    -0.348    19.879     6.019
    20   6 C        3.805     0.023    20.190     6.397
    21   7 N        2.727    -0.154    24.333     7.326
    22   6 C        3.707    -0.039    21.415     6.615
    23   6 C        3.707    -0.040    21.436     6.618
    24   8 O        0.857    -0.404    21.753     6.253
    25   8 O        1.656    -0.439    21.627     6.278
    26   6 C        3.863    -0.037    21.197     6.547
    27   6 C        3.811    -0.073    21.890     6.660
    28   6 C        3.862    -0.028    21.036     6.522
    29   6 C        3.784     0.143    18.287     6.091
    30   8 O        1.657    -0.437    21.585     6.272
    31   6 C        3.758    -0.113    22.710     6.794
    32   8 O        0.858    -0.475    23.245     6.464
    33   1 H        0.802     0.348     0.594     1.210
    34   1 H        0.926     0.058     2.219     2.329
    35   1 H        0.926     0.046     2.365     2.405
    36   1 H        0.926     0.054     2.270     2.356
    37   1 H        0.800     0.362     0.562     1.177
    38   1 H        0.860     0.199     1.112     1.652
    39   1 H        0.860     0.234     0.949     1.526
    40   1 H        0.802     0.374     0.535     1.149
    41   1 H        0.924     0.071     2.074     2.252
    42   1 H        0.923     0.031     2.577     2.511
    43   1 H        0.925     0.047     2.357     2.401
    44   1 H        0.925     0.037     2.492     2.469
    45   1 H        0.925     0.036     2.505     2.475
    46   1 H        0.925     0.048     2.346     2.395
    47   1 H        0.924     0.038     2.482     2.464
    48   1 H        0.804     0.325     0.649     1.266
    49   1 H        0.924     0.059     2.213     2.327
    50   1 H        0.925     0.082     1.961     2.190
    51   1 H        0.925     0.062     2.174     2.306
    52   1 H        0.923     0.027     2.632     2.537
    53   1 H        0.805     0.287     0.761     1.370
    54   1 H        0.925     0.047     2.355     2.400
    55   1 H        0.925     0.054     2.267     2.354
    56   1 H        0.925     0.068     2.107     2.270

 Mol. C6AA /au·bohr⁶  :      34860.523621
 Mol. C8AA /au·bohr⁸  :     817762.795833
 Mol. α(0) /au        :        283.344741


Wiberg/Mayer (AO) data.
largest (>0.10) Wiberg bond orders for each atom

 ---------------------------------------------------------------------------
     #   Z sym  total        # sym  WBO       # sym  WBO       # sym  WBO
 ---------------------------------------------------------------------------
     1   8 O    2.187 --     2 C    1.160    33 H    0.800
     2   6 C    3.946 --     3 C    1.334     7 C    1.285     1 O    1.160
     3   6 C    3.986 --     4 C    1.483     2 C    1.334    34 H    0.966
                             6 C    0.103
     4   6 C    3.983 --     3 C    1.483     5 C    1.385    35 H    0.970
     5   6 C    3.988 --     6 C    1.463     4 C    1.385    36 H    0.965
     6   6 C    3.985 --     5 C    1.463     7 C    1.317    29 C    0.973
                             3 C    0.103
     7   6 C    3.979 --     6 C    1.317     2 C    1.285     8 C    1.100
     8   6 C    3.941 --    32 O    1.547     9 C    1.136     7 C    1.100
     9   6 C    3.972 --    10 C    1.567     8 C    1.136    28 C    0.998
                            11 O    0.112
    10   6 C    3.937 --     9 C    1.567    11 O    1.200    12 C    0.938
    11   8 O    2.219 --    10 C    1.200    37 H    0.766     9 C    0.112
    12   6 C    3.963 --    25 O    0.994    26 C    0.953    13 C    0.938
                            10 C    0.938
    13   6 C    3.937 --    24 O    1.703    14 C    1.153    12 C    0.938
    14   6 C    3.958 --    18 C    1.453    13 C    1.153    15 C    1.035
                            19 O    0.102
    15   6 C    3.952 --    17 O    1.528    16 N    1.332    14 C    1.035
    16   7 N    3.428 --    15 C    1.332    38 H    0.938    39 H    0.892
                            17 O    0.180
    17   8 O    2.024 --    15 C    1.528    16 N    0.180    40 H    0.142
    18   6 C    3.933 --    14 C    1.453    19 O    1.291    20 C    0.979
    19   8 O    2.270 --    18 C    1.291    40 H    0.696    14 C    0.102
    20   6 C    3.987 --    21 N    0.995    18 C    0.979    26 C    0.974
                            41 H    0.927
    21   7 N    3.154 --    23 C    1.013    22 C    1.013    20 C    0.995
    22   6 C    3.983 --    21 N    1.013    43 H    0.981    44 H    0.980
                            42 H    0.974
    23   6 C    3.981 --    21 N    1.013    45 H    0.981    46 H    0.981
                            47 H    0.973
    24   8 O    2.067 --    13 C    1.703
    25   8 O    1.968 --    12 C    0.994    48 H    0.851
    26   6 C    3.990 --    27 C    0.994    20 C    0.974    49 H    0.959
                            12 C    0.953
    27   6 C    3.988 --    28 C    0.997    26 C    0.994    51 H    0.972
                            50 H    0.964
    28   6 C    3.994 --     9 C    0.998    27 C    0.997    52 H    0.948
                            29 C    0.946
    29   6 C    3.953 --    30 O    0.985    31 C    0.978     6 C    0.973
                            28 C    0.946
    30   8 O    1.975 --    29 C    0.985    53 H    0.898
    31   6 C    3.991 --    55 H    0.984    54 H    0.983    29 C    0.978
                            56 H    0.976
    32   8 O    2.039 --     8 C    1.547
    33   1 H    0.879 --     1 O    0.800
    34   1 H    0.996 --     3 C    0.966
    35   1 H    0.997 --     4 C    0.970
    36   1 H    0.997 --     5 C    0.965
    37   1 H    0.869 --    11 O    0.766
    38   1 H    0.959 --    16 N    0.938
    39   1 H    0.945 --    16 N    0.892
    40   1 H    0.859 --    19 O    0.696    17 O    0.142
    41   1 H    0.994 --    20 C    0.927
    42   1 H    0.999 --    22 C    0.974
    43   1 H    0.998 --    22 C    0.981
    44   1 H    0.999 --    22 C    0.980
    45   1 H    0.999 --    23 C    0.981
    46   1 H    0.997 --    23 C    0.981
    47   1 H    0.998 --    23 C    0.973
    48   1 H    0.894 --    25 O    0.851
    49   1 H    0.995 --    26 C    0.959
    50   1 H    0.993 --    27 C    0.964
    51   1 H    0.995 --    27 C    0.972
    52   1 H    0.999 --    28 C    0.948
    53   1 H    0.918 --    30 O    0.898
    54   1 H    0.998 --    31 C    0.983
    55   1 H    0.997 --    31 C    0.984
    56   1 H    0.994 --    31 C    0.976
 ---------------------------------------------------------------------------

Topologies differ in total number of bonds
Writing topology from bond orders to xtbtopo.mol

molecular dipole:
                 x           y           z       tot (Debye)
 q only:        0.068      -1.288      -0.280
   full:        0.427      -0.890      -0.428       2.735
molecular quadrupole (traceless):
                xx          xy          yy          xz          yz          zz
 q only:        1.237       3.454      -0.316       7.728      10.571      -0.921
  q+dip:        4.672       6.019      -1.882      12.594      13.938      -2.790
   full:        3.520       4.118      -2.179      10.382      14.179      -1.341

           -------------------------------------------------
          |                Geometry Summary                 |
           -------------------------------------------------

      molecular mass/u    :      444.4354136
   center of mass at/Å    :       -0.0034180       0.4063606       0.0699346
  moments of inertia/u·Å² :        0.2026887E+04   0.5260012E+04   0.5707152E+04
rotational constants/cm⁻¹ :        0.8317008E-02   0.3204866E-02   0.2953773E-02

 * 47 selected distances

     #   Z          #   Z                                           value/Å
     1   8 O        2   6 C                                       1.3346624
     2   6 C        3   6 C                                       1.3974095
     3   6 C        4   6 C                                       1.3753948
     4   6 C        5   6 C                                       1.3900483
     5   6 C        6   6 C                                       1.3795546
     2   6 C        7   6 C                                       1.4131326
     6   6 C        7   6 C                                       1.4056214
     9   6 C       10   6 C                                       1.3603233
    10   6 C       11   8 O                                       1.3252312
    15   6 C       16   7 N                                       1.3321210
    15   6 C       17   8 O                                       1.2417508
    14   6 C       18   6 C                                       1.3811351
    18   6 C       19   8 O                                       1.3051841
    20   6 C       21   7 N                                       1.4554283
    21   7 N       22   6 C                                       1.4491704
    21   7 N       23   6 C                                       1.4475219
    13   6 C       24   8 O                                       1.2254560
    12   6 C       25   8 O                                       1.4069431
    12   6 C       26   6 C                                       1.5291434
    20   6 C       26   6 C                                       1.5357930 (max)
    26   6 C       27   6 C                                       1.5273158
    27   6 C       28   6 C                                       1.5298619
    29   6 C       30   8 O                                       1.4120749
    29   6 C       31   6 C                                       1.5325667
     1   8 O       33   1 H                                       0.9861758
     3   6 C       34   1 H                                       1.0782266
     4   6 C       35   1 H                                       1.0795793
     5   6 C       36   1 H                                       1.0792469
    11   8 O       37   1 H                                       0.9992460
    16   7 N       38   1 H                                       1.0064397
    16   7 N       39   1 H                                       1.0135208
    20   6 C       41   1 H                                       1.0959613
    22   6 C       42   1 H                                       1.0984410
    22   6 C       43   1 H                                       1.0900662
    22   6 C       44   1 H                                       1.0879913
    23   6 C       45   1 H                                       1.0893372
    23   6 C       46   1 H                                       1.0895933
    23   6 C       47   1 H                                       1.0971636
    25   8 O       48   1 H                                       0.9755471
    26   6 C       49   1 H                                       1.0933013
    27   6 C       50   1 H                                       1.0884579
    27   6 C       51   1 H                                       1.0891264
    28   6 C       52   1 H                                       1.1030488
    30   8 O       53   1 H                                       0.9638912 (min)
    31   6 C       54   1 H                                       1.0852019
    31   6 C       55   1 H                                       1.0867116
    31   6 C       56   1 H                                       1.0851707

 * 6 distinct bonds (by element types)

   Z      Z             #   av. dist./Å        max./Å        min./Å
   1 H    6 C          17     1.0892133     1.1030488     1.0782266
   6 C    6 C          13     1.4428693     1.5357930     1.3603233
   1 H    7 N           2     1.0099802     1.0135208     1.0064397
   6 C    7 N           4     1.4210604     1.4554283     1.3321210
   1 H    8 O           4     0.9812150     0.9992460     0.9638912
   6 C    8 O           7     1.3216147     1.4120749     1.2254560


optimized geometry written to: xtbopt.xyz


           -------------------------------------------------
          | TOTAL ENERGY              -97.789534703338 Eh   |
          | GRADIENT NORM               0.000438861250 Eh/α |
          | HOMO-LUMO GAP               1.691149739417 eV   |
           -------------------------------------------------

------------------------------------------------------------------------
 * finished run on 2025/05/15 at 16:14:43.234     
------------------------------------------------------------------------
 total:
 * wall-time:     0 d,  0 h,  0 min,  2.943 sec
 *  cpu-time:     0 d,  0 h,  0 min,  2.081 sec
 * ratio c/w:     0.707 speedup
 SCF:
 * wall-time:     0 d,  0 h,  0 min,  0.140 sec
 *  cpu-time:     0 d,  0 h,  0 min,  0.109 sec
 * ratio c/w:     0.775 speedup
 ANC optimizer:
 * wall-time:     0 d,  0 h,  0 min,  2.782 sec
 *  cpu-time:     0 d,  0 h,  0 min,  1.954 sec
 * ratio c/w:     0.702 speedup



----- Single-point -----
      -----------------------------------------------------------      
     |                   =====================                   |     
     |                           x T B                           |     
     |                   =====================                   |     
     |                         S. Grimme                         |     
     |          Mulliken Center for Theoretical Chemistry        |     
     |                    University of Bonn                     |     
      -----------------------------------------------------------      

   * xtb version 6.7.1 (edcfbbe) compiled by 'conda@3ef47c1a292c' on 2024-11-25

   xtb is free software: you can redistribute it and/or modify it under
   the terms of the GNU Lesser General Public License as published by
   the Free Software Foundation, either version 3 of the License, or
   (at your option) any later version.
   
   xtb is distributed in the hope that it will be useful,
   but WITHOUT ANY WARRANTY; without even the implied warranty of
   MERCHANTABILITY or FITNESS FOR A PARTICULAR PURPOSE.  See the
   GNU Lesser General Public License for more details.
   
   Cite this work as:
   * C. Bannwarth, E. Caldeweyher, S. Ehlert, A. Hansen, P. Pracht,
     J. Seibert, S. Spicher, S. Grimme, WIREs Comput. Mol. Sci., 2020, 11,
     e01493. DOI: 10.1002/wcms.1493
   
   for GFN2-xTB:
   * C. Bannwarth, S. Ehlert and S. Grimme., J. Chem. Theory Comput., 2019,
     15, 1652-1671. DOI: 10.1021/acs.jctc.8b01176
   for GFN1-xTB:
   * S. Grimme, C. Bannwarth, P. Shushkov, J. Chem. Theory Comput., 2017,
     13, 1989-2009. DOI: 10.1021/acs.jctc.7b00118
   for GFN0-xTB:
   * P. Pracht, E. Caldeweyher, S. Ehlert, S. Grimme, ChemRxiv, 2019, preprint.
     DOI: 10.26434/chemrxiv.8326202.v1
   for GFN-FF:
   * S. Spicher and S. Grimme, Angew. Chem. Int. Ed., 2020, 59, 15665-15673.
     DOI: 10.1002/anie.202004239
   
   for ALPB and GBSA implicit solvation:
   * S. Ehlert, M. Stahn, S. Spicher, S. Grimme, J. Chem. Theory Comput.,
     2021, 17, 4250-4261. DOI: 10.1021/acs.jctc.1c00471
   
   for ddCOSMO and CPCM-X implicit solvation:
   * M. Stahn, S. Ehlert, S. Grimme, J. Phys. Chem. A,
     2023, XX, XXXX-XXXX. DOI: 10.1021/acs.jpca.3c04382
   
   for DFT-D4:
   * E. Caldeweyher, C. Bannwarth and S. Grimme, J. Chem. Phys., 2017,
     147, 034112. DOI: 10.1063/1.4993215
   * E. Caldeweyher, S. Ehlert, A. Hansen, H. Neugebauer, S. Spicher,
     C. Bannwarth and S. Grimme, J. Chem. Phys., 2019, 150, 154122.
     DOI: 10.1063/1.5090222
   * E. Caldeweyher, J.-M. Mewes, S. Ehlert and S. Grimme, Phys. Chem. Chem. Phys.
     2020, 22, 8499-8512. DOI: 10.1039/D0CP00502A
   
   for sTDA-xTB:
   * S. Grimme and C. Bannwarth, J. Chem. Phys., 2016, 145, 054103.
     DOI: 10.1063/1.4959605
   
   in the mass-spec context:
   * V. Asgeirsson, C. Bauer and S. Grimme, Chem. Sci., 2017, 8, 4879.
     DOI: 10.1039/c7sc00601b
   * J. Koopman and S. Grimme, ACS Omega 2019, 4, 12, 15120-15133.
     DOI: 10.1021/acsomega.9b02011
   
   for metadynamics refer to:
   * S. Grimme, J. Chem. Theory Comput., 2019, 155, 2847-2862
     DOI: 10.1021/acs.jctc.9b00143
   
   for SPH calculations refer to:
   * S. Spicher and S. Grimme, J. Chem. Theory Comput., 2021, 17, 1701-1714
     DOI: 10.1021/acs.jctc.0c01306
   
   for ONIOM refer to:
   * C. Plett, A. Katbashev, S. Ehlert, S. Grimme, M. Bursch,
     Phys. Chem. Chem. Phys., 2023, 25, 17860-17868. DOI: 10.1039/D3CP02178E
   
   for DIPRO refer to:
   * J. Kohn, N. Gildemeister, S. Grimme, D. Fazzi, A. Hansen,
     J. Chem. Phys., 2023, just accepted.
   
   for PTB refer to:
   * S. Grimme, M. Mueller, A. Hansen, J. Chem. Phys., 2023, 158, 124111.
     DOI: 10.1063/5.0137838
   
   with help from (in alphabetical order)
   P. Atkinson, C. Bannwarth, F. Bohle, G. Brandenburg, E. Caldeweyher
   M. Checinski, S. Dohm, S. Ehlert, S. Ehrlich, I. Gerasimov, C. Hölzer
   A. Katbashev, J. Kohn, J. Koopman, C. Lavigne, S. Lehtola, F. März, M. Müller,
   F. Musil, H. Neugebauer, J. Pisarek, C. Plett, P. Pracht, F. Pultar,
   J. Seibert, P. Shushkov, S. Spicher, M. Stahn, M. Steiner, T. Strunk,
   J. Stückrath, T. Rose, and J. Unsleber
   
 * started run on 2025/05/15 at 16:14:43.247     
   ID    Z sym.   atoms
    1    8 O      1, 11, 17, 19, 24, 25, 30, 32
    2    6 C      2-10, 12-15, 18, 20, 22, 23, 26-29, 31
    3    7 N      16, 21
    4    1 H      33-56

           -------------------------------------------------
          |                Calculation Setup                |
           -------------------------------------------------

          program call               : xtb /rds/general/user/hgt20/home/callum/QDESCP/Tetracycline_rdkit_conf_2/Tetracycline_rdkit_conf_2.xyz --acc 1 --gfn 2 --chrg 0 --uhf 0 --etemp 300 --input /rds/general/user/hgt20/home/callum/QDESCP/Tetracycline_rdkit_conf_2/Tetracycline_rdkit_conf_2_xtb.inp -P 1
          hostname                   : login-c
          coordinate file            : /rds/general/user/hgt20/home/callum/QDESCP/Tetracycline_rdkit_conf_2/Tetracycline_rdkit_conf_2.xyz
          omp threads                :                     1


           -------------------------------------------------
          |                 G F N 2 - x T B                 |
           -------------------------------------------------

        Reference                      10.1021/acs.jctc.8b01176
      * Hamiltonian:
        H0-scaling (s, p, d)           1.850000    2.230000    2.230000
        zeta-weighting                 0.500000
      * Dispersion:
        s8                             2.700000
        a1                             0.520000
        a2                             5.000000
        s9                             5.000000
      * Repulsion:
        kExp                           1.500000    1.000000
        rExp                           1.000000
      * Coulomb:
        alpha                          2.000000
        third order                    shell-resolved
        anisotropic                    true
        a3                             3.000000
        a5                             4.000000
        cn-shift                       1.200000
        cn-exp                         4.000000
        max-rad                        5.000000

q/qsh data taken from xtbrestart
CAMM data taken from xtbrestart

          ...................................................
          :                      SETUP                      :
          :.................................................:
          :  # basis functions                 152          :
          :  # atomic orbitals                 152          :
          :  # shells                           88          :
          :  # electrons                       170          :
          :  max. iterations                   250          :
          :  Hamiltonian                  GFN2-xTB          :
          :  restarted?                       true          :
          :  GBSA solvation                  false          :
          :  PC potential                    false          :
          :  electronic temp.          300.0000000     K    :
          :  accuracy                    1.0000000          :
          :  -> integral cutoff          0.2500000E+02      :
          :  -> integral neglect         0.1000000E-07      :
          :  -> SCF convergence          0.1000000E-05 Eh   :
          :  -> wf. convergence          0.1000000E-03 e    :
          :  Broyden damping             0.4000000          :
          :  net charge                          0          :
          :  unpaired electrons                  0          :
          ...................................................

 iter      E             dE          RMSdq      gap      omega  full diag
   1    -98.9011280 -0.989011E+02  0.469E-06    1.69       0.0  T
   2    -98.9011280 -0.696332E-12  0.380E-06    1.69    3515.9  T
   3    -98.9011280 -0.112266E-11  0.132E-06    1.69   10155.0  T

   *** convergence criteria satisfied after 3 iterations ***

         #    Occupation            Energy/Eh            Energy/eV
      -------------------------------------------------------------
         1        2.0000           -0.7454773             -20.2855
       ...           ...                  ...                  ...
        79        2.0000           -0.4213797             -11.4663
        80        2.0000           -0.4183185             -11.3830
        81        2.0000           -0.4112595             -11.1909
        82        2.0000           -0.3987083             -10.8494
        83        2.0000           -0.3941238             -10.7247
        84        2.0000           -0.3909376             -10.6380
[...]
   M. Checinski, S. Dohm, S. Ehlert, S. Ehrlich, I. Gerasimov, C. Hölzer
   A. Katbashev, J. Kohn, J. Koopman, C. Lavigne, S. Lehtola, F. März, M. Müller,
   F. Musil, H. Neugebauer, J. Pisarek, C. Plett, P. Pracht, F. Pultar,
   J. Seibert, P. Shushkov, S. Spicher, M. Stahn, M. Steiner, T. Strunk,
   J. Stückrath, T. Rose, and J. Unsleber
   
 * started run on 2025/05/15 at 16:14:46.589     
   ID    Z sym.   atoms
    1    8 O      1, 11, 17, 19, 24, 25, 30, 32
    2    6 C      2-10, 12-15, 18, 20, 22, 23, 26-29, 31
    3    7 N      16, 21
    4    1 H      33-56

           -------------------------------------------------
          |                Calculation Setup                |
           -------------------------------------------------

          program call               : xtb /rds/general/user/hgt20/home/callum/QDESCP/Tetracycline_rdkit_conf_2/Tetracycline_rdkit_conf_2.xyz --acc 1 --gfn 2 --chrg 0 --uhf 2 --etemp 300 --input /rds/general/user/hgt20/home/callum/QDESCP/Tetracycline_rdkit_conf_2/Tetracycline_rdkit_conf_2_xtb.inp -P 1
          hostname                   : login-c
          coordinate file            : /rds/general/user/hgt20/home/callum/QDESCP/Tetracycline_rdkit_conf_2/Tetracycline_rdkit_conf_2.xyz
          omp threads                :                     1


           -------------------------------------------------
          |                 G F N 2 - x T B                 |
           -------------------------------------------------

        Reference                      10.1021/acs.jctc.8b01176
      * Hamiltonian:
        H0-scaling (s, p, d)           1.850000    2.230000    2.230000
        zeta-weighting                 0.500000
      * Dispersion:
        s8                             2.700000
        a1                             0.520000
        a2                             5.000000
        s9                             5.000000
      * Repulsion:
        kExp                           1.500000    1.000000
        rExp                           1.000000
      * Coulomb:
        alpha                          2.000000
        third order                    shell-resolved
        anisotropic                    true
        a3                             3.000000
        a5                             4.000000
        cn-shift                       1.200000
        cn-exp                         4.000000
        max-rad                        5.000000


          ...................................................
          :                      SETUP                      :
          :.................................................:
          :  # basis functions                 152          :
          :  # atomic orbitals                 152          :
          :  # shells                           88          :
          :  # electrons                       170          :
          :  max. iterations                   250          :
          :  Hamiltonian                  GFN2-xTB          :
          :  restarted?                      false          :
          :  GBSA solvation                  false          :
          :  PC potential                    false          :
          :  electronic temp.          300.0000000     K    :
          :  accuracy                    1.0000000          :
          :  -> integral cutoff          0.2500000E+02      :
          :  -> integral neglect         0.1000000E-07      :
          :  -> SCF convergence          0.1000000E-05 Eh   :
          :  -> wf. convergence          0.1000000E-03 e    :
          :  Broyden damping             0.4000000          :
          :  net charge                          0          :
          :  unpaired electrons                  2          :
          ...................................................

 iter      E             dE          RMSdq      gap      omega  full diag
   1    -98.4678107 -0.984678E+02  0.413E+00    0.62       0.0  T
   2    -98.4002977  0.675129E-01  0.306E+00    1.80       1.0  T
   3    -98.5462703 -0.145973E+00  0.212E+00    1.93       1.0  T
   4    -98.5926620 -0.463917E-01  0.143E+00    0.80       1.0  T
   5    -98.5743684  0.182936E-01  0.148E+00    1.29       1.0  T
   6    -98.6962082 -0.121840E+00  0.880E-01    0.63       1.0  T
   7    -98.6779753  0.182329E-01  0.930E-01    0.18       1.0  T
   8    -98.8000813 -0.122106E+00  0.508E-01    0.13       1.0  T
   9    -98.7991585  0.922769E-03  0.516E-01    0.20       1.0  T
  10    -98.7905366  0.862185E-02  0.461E-01    0.21       1.0  T
  11    -98.8074774 -0.169408E-01  0.310E-01    0.12       1.0  T
  12    -98.8117798 -0.430240E-02  0.918E-02    0.07       1.0  T
  13    -98.8110854  0.694451E-03  0.145E-01    0.06       1.0  T
  14    -98.8126353 -0.154997E-02  0.443E-02    0.07       1.0  T
  15    -98.8127937 -0.158348E-03  0.153E-02    0.07       1.0  T
  16    -98.8127772  0.164955E-04  0.165E-02    0.07       1.0  T
  17    -98.8127948 -0.175556E-04  0.103E-02    0.08       1.3  T
  18    -98.8127828  0.119697E-04  0.135E-02    0.07       1.0  T
  19    -98.8128053 -0.224805E-04  0.643E-03    0.08       2.1  T
  20    -98.8128123 -0.703959E-05  0.991E-04    0.07      13.5  T
  21    -98.8128125 -0.150490E-06  0.188E-04    0.07      71.2  T
  22    -98.8128124  0.139770E-07  0.329E-04    0.07      40.6  T

   *** convergence criteria satisfied after 22 iterations ***

         #    Occupation            Energy/Eh            Energy/eV
      -------------------------------------------------------------
         1        2.0000           -0.7369580             -20.0536
       ...           ...                  ...                  ...
        80        2.0000           -0.4109231             -11.1818
        81        2.0000           -0.4064239             -11.0594
        82        1.9992           -0.3912073             -10.6453
        83        1.9420           -0.3870891             -10.5332
        84        1.7917           -0.3857092             -10.4957
        85        1.2672           -0.3834824             -10.4351
        86        0.8087           -0.2879030              -7.8342 (HOMO)
        87        0.1913           -0.2851645              -7.7597 (LUMO)
        88                         -0.2446030              -6.6560
        89                         -0.2287162              -6.2237
        90                         -0.2194578              -5.9718
        91                         -0.1603086              -4.3622
       ...                                ...                  ...
       152                          0.6689591              18.2033
      -------------------------------------------------------------
                  HL-Gap            0.0027386 Eh            0.0745 eV
             Fermi-level           -0.3354874 Eh           -9.1291 eV

 transition dipole moment (au) for excitation:          85          86
     X       Y       Z   
  -0.1791   0.0837  -0.0635  total (au/Debye):    0.208   0.528
 dE (eV)             :    2.601
 oscillator strength :  0.38867E-02

 SCC (total)                   0 d,  0 h,  0 min,  0.235 sec
 SCC setup                      ...        0 min,  0.001 sec (  0.238%)
 Dispersion                     ...        0 min,  0.001 sec (  0.365%)
 classical contributions        ...        0 min,  0.000 sec (  0.108%)
 integral evaluation            ...        0 min,  0.014 sec (  5.844%)
 iterations                     ...        0 min,  0.118 sec ( 50.436%)
 molecular gradient             ...        0 min,  0.089 sec ( 37.732%)
 printout                       ...        0 min,  0.012 sec (  5.275%)

         :::::::::::::::::::::::::::::::::::::::::::::::::::::
         ::                     SUMMARY                     ::
         :::::::::::::::::::::::::::::::::::::::::::::::::::::
         :: total energy             -97.701219171417 Eh    ::
         :: gradient norm              0.058744965875 Eh/a0 ::
         :: HOMO-LUMO gap              0.074520144605 eV    ::
         ::.................................................::
         :: SCC energy               -98.811084293631 Eh    ::
         :: -> isotropic ES            0.197174081404 Eh    ::
         :: -> anisotropic ES         -0.002460331738 Eh    ::
         :: -> anisotropic XC          0.010327063179 Eh    ::
         :: -> dispersion             -0.072318339167 Eh    ::
         :: repulsion energy           1.109865122214 Eh    ::
         :: add. restraining           0.000000000000 Eh    ::
         :: total charge              -0.000000000000 e     ::
         :::::::::::::::::::::::::::::::::::::::::::::::::::::

           -------------------------------------------------
          |                Property Printout                |
           -------------------------------------------------

    * Orbital Energies and Occupations

         #    Occupation            Energy/Eh            Energy/eV
      -------------------------------------------------------------
         1        2.0000           -0.7369580             -20.0536
       ...           ...                  ...                  ...
        74        2.0000           -0.4381000             -11.9213
        75        2.0000           -0.4328062             -11.7773
        76        2.0000           -0.4306676             -11.7191
        77        2.0000           -0.4211361             -11.4597
        78        2.0000           -0.4189626             -11.4006
        79        2.0000           -0.4135593             -11.2535
        80        2.0000           -0.4109231             -11.1818
        81        2.0000           -0.4064239             -11.0594
        82        1.9992           -0.3912073             -10.6453
        83        1.9420           -0.3870891             -10.5332
        84        1.7917           -0.3857092             -10.4957
        85        1.2672           -0.3834824             -10.4351
        86        0.8087           -0.2879030              -7.8342 (HOMO)
        87        0.1913           -0.2851645              -7.7597 (LUMO)
        88                         -0.2446030              -6.6560
        89                         -0.2287162              -6.2237
        90                         -0.2194578              -5.9718
        91                         -0.1603086              -4.3622
        92                         -0.1427144              -3.8835
        93                         -0.0859355              -2.3384
        94                         -0.0162221              -0.4414
        95                          0.0013503               0.0367
        96                          0.0189716               0.5162
        97                          0.0215500               0.5864
       ...                                ...                  ...
       152                          0.6689591              18.2033
      -------------------------------------------------------------
                  HL-Gap            0.0027386 Eh            0.0745 eV
             Fermi-level           -0.3354874 Eh           -9.1291 eV

     #   Z          covCN         q      C6AA      α(0)
     1   8 O        1.658    -0.377    20.404     6.098
     2   6 C        2.846     0.159    24.548     8.120
     3   6 C        2.916    -0.057    29.427     8.895
     4   6 C        2.918    -0.039    28.960     8.825
     5   6 C        2.920    -0.045    29.110     8.848
     6   6 C        2.980    -0.022    28.543     8.764
     7   6 C        2.973    -0.055    29.358     8.888
     8   6 C        2.837     0.175    24.247     8.069
     9   6 C        2.953    -0.072    29.802     8.954
    10   6 C        2.835     0.130    25.150     8.218
    11   8 O        1.655    -0.375    20.378     6.094
    12   6 C        3.792     0.126    18.550     6.134
    13   6 C        2.827     0.197    23.809     7.996
    14   6 C        2.951    -0.124    31.146     9.153
    15   6 C        2.754     0.284    22.185     7.713
    16   7 N        2.639    -0.255    26.622     7.663
    17   8 O        0.871    -0.472    23.164     6.453
    18   6 C        2.831     0.150    24.747     8.152
    19   8 O        1.646    -0.372    20.324     6.086
    20   6 C        3.805     0.020    20.229     6.403
    21   7 N        2.727    -0.102    23.236     7.159
    22   6 C        3.707    -0.049    21.596     6.643
    23   6 C        3.707    -0.050    21.612     6.645
    24   8 O        0.857    -0.423    22.139     6.308
    25   8 O        1.656    -0.428    21.406     6.246
    26   6 C        3.863    -0.035    21.162     6.542
    27   6 C        3.811    -0.069    21.812     6.648
    28   6 C        3.862    -0.025    20.970     6.512
    29   6 C        3.784     0.147    18.227     6.081
    30   8 O        1.657    -0.431    21.467     6.255
    31   6 C        3.758    -0.114    22.737     6.798
    32   8 O        0.858    -0.471    23.158     6.452
    33   1 H        0.802     0.346     0.598     1.215
    34   1 H        0.926     0.058     2.228     2.334
    35   1 H        0.926     0.043     2.405     2.425
    36   1 H        0.926     0.050     2.325     2.385
    37   1 H        0.800     0.356     0.575     1.191
    38   1 H        0.860     0.198     1.117     1.655
    39   1 H        0.860     0.235     0.944     1.522
    40   1 H        0.802     0.371     0.542     1.157
    41   1 H        0.924     0.072     2.065     2.247
    42   1 H        0.923     0.054     2.268     2.355
    43   1 H        0.925     0.057     2.240     2.340
    44   1 H        0.925     0.050     2.315     2.380
    45   1 H        0.925     0.049     2.334     2.389
    46   1 H        0.925     0.057     2.233     2.337
    47   1 H        0.924     0.061     2.184     2.311
    48   1 H        0.804     0.331     0.636     1.253
    49   1 H        0.924     0.060     2.203     2.321
    50   1 H        0.925     0.084     1.941     2.179
    51   1 H        0.925     0.057     2.238     2.339
    52   1 H        0.923     0.024     2.668     2.555
    53   1 H        0.805     0.288     0.757     1.367
    54   1 H        0.925     0.052     2.301     2.372
    55   1 H        0.925     0.056     2.244     2.343
    56   1 H        0.925     0.065     2.138     2.287

 Mol. C6AA /au·bohr⁶  :      34790.870657
 Mol. C8AA /au·bohr⁸  :     817206.555010
 Mol. α(0) /au        :        283.070846


Wiberg/Mayer (AO) data.
largest (>0.10) Wiberg bond orders for each atom

 ---------------------------------------------------------------------------
     #   Z sym  total        # sym  WBO       # sym  WBO       # sym  WBO
 ---------------------------------------------------------------------------
     1   8 O    2.139 --     2 C    1.145    33 H    0.795
     2   6 C    3.883 --     3 C    1.338     7 C    1.241     1 O    1.145
     3   6 C    3.942 --     4 C    1.449     2 C    1.338    34 H    0.962
     4   6 C    3.927 --     3 C    1.449     5 C    1.380    35 H    0.963
     5   6 C    3.949 --     6 C    1.439     4 C    1.380    36 H    0.964
     6   6 C    3.929 --     5 C    1.439     7 C    1.303    29 C    0.958
     7   6 C    3.905 --     6 C    1.303     2 C    1.241     8 C    1.088
     8   6 C    3.802 --    32 O    1.419     9 C    1.111     7 C    1.088
     9   6 C    3.904 --    10 C    1.511     8 C    1.111    28 C    1.006
    10   6 C    3.819 --     9 C    1.511    11 O    1.163    12 C    0.908
    11   8 O    2.145 --    10 C    1.163    37 H    0.765
    12   6 C    3.931 --    25 O    1.000    26 C    0.958    13 C    0.919
                            10 C    0.908
    13   6 C    3.863 --    24 O    1.641    14 C    1.162    12 C    0.919
    14   6 C    3.923 --    18 C    1.422    13 C    1.162    15 C    1.034
    15   6 C    3.937 --    17 O    1.517    16 N    1.329    14 C    1.034
    16   7 N    3.416 --    15 C    1.329    38 H    0.938    39 H    0.891
                            17 O    0.172
    17   8 O    2.006 --    15 C    1.517    16 N    0.172    40 H    0.142
    18   6 C    3.784 --    14 C    1.422    19 O    1.239    20 C    0.962
    19   8 O    2.178 --    18 C    1.239    40 H    0.699
    20   6 C    3.970 --    21 N    0.997    26 C    0.972    18 C    0.962
                            41 H    0.931
    21   7 N    3.127 --    23 C    1.017    22 C    1.014    20 C    0.997
    22   6 C    3.968 --    21 N    1.014    44 H    0.979    43 H    0.977
                            42 H    0.962
    23   6 C    3.966 --    21 N    1.017    45 H    0.979    46 H    0.978
                            47 H    0.959
    24   8 O    1.979 --    13 C    1.641
    25   8 O    1.980 --    12 C    1.000    48 H    0.847
    26   6 C    3.977 --    27 C    0.988    20 C    0.972    12 C    0.958
                            49 H    0.953
    27   6 C    3.975 --    26 C    0.988    28 C    0.986    51 H    0.972
                            50 H    0.963
    28   6 C    3.983 --     9 C    1.006    27 C    0.986    52 H    0.949
                            29 C    0.932
    29   6 C    3.936 --    30 O    0.988    31 C    0.981     6 C    0.958
                            28 C    0.932
    30   8 O    1.980 --    29 C    0.988    53 H    0.897
    31   6 C    3.988 --    54 H    0.982    55 H    0.982    29 C    0.981
                            56 H    0.976
    32   8 O    1.895 --     8 C    1.419
    33   1 H    0.880 --     1 O    0.795
    34   1 H    0.991 --     3 C    0.962
    35   1 H    0.989 --     4 C    0.963
    36   1 H    0.996 --     5 C    0.964
    37   1 H    0.873 --    11 O    0.765
    38   1 H    0.958 --    16 N    0.938
    39   1 H    0.945 --    16 N    0.891
    40   1 H    0.861 --    19 O    0.699    17 O    0.142
    41   1 H    0.988 --    20 C    0.931
    42   1 H    0.979 --    22 C    0.962
    43   1 H    0.992 --    22 C    0.977
    44   1 H    0.997 --    22 C    0.979
    45   1 H    0.996 --    23 C    0.979
    46   1 H    0.992 --    23 C    0.978
    47   1 H    0.976 --    23 C    0.959
    48   1 H    0.889 --    25 O    0.847
    49   1 H    0.990 --    26 C    0.953
    50   1 H    0.992 --    27 C    0.963
    51   1 H    0.995 --    27 C    0.972
    52   1 H    0.998 --    28 C    0.949
    53   1 H    0.917 --    30 O    0.897
    54   1 H    0.997 --    31 C    0.982
    55   1 H    0.996 --    31 C    0.982
    56   1 H    0.994 --    31 C    0.976
 ---------------------------------------------------------------------------

Topologies differ in total number of bonds
Writing topology from bond orders to xtbtopo.mol

molecular dipole:
                 x           y           z       tot (Debye)
 q only:        0.688      -2.034      -0.457
   full:        0.991      -1.757      -0.584       5.337
molecular quadrupole (traceless):
                xx          xy          yy          xz          yz          zz
 q only:       -0.200      -0.925       0.612       4.029      11.426      -0.412
  q+dip:        2.359       1.417      -0.128       8.851      14.463      -2.230
   full:        1.348      -0.250      -0.276       7.007      14.691      -1.072


           -------------------------------------------------
          | TOTAL ENERGY              -97.701219171417 Eh   |
          | GRADIENT NORM               0.058744965875 Eh/α |
          | HOMO-LUMO GAP               0.074520144605 eV   |
           -------------------------------------------------

------------------------------------------------------------------------
 * finished run on 2025/05/15 at 16:14:46.886     
------------------------------------------------------------------------
 total:
 * wall-time:     0 d,  0 h,  0 min,  0.297 sec
 *  cpu-time:     0 d,  0 h,  0 min,  0.172 sec
 * ratio c/w:     0.580 speedup
 SCF:
 * wall-time:     0 d,  0 h,  0 min,  0.235 sec
 *  cpu-time:     0 d,  0 h,  0 min,  0.155 sec
 * ratio c/w:     0.660 speedup


