42
 energy: -71.307150133054 gnorm: 0.000347038301 xtb: 6.7.1 (edcfbbe)
O           -6.00326734137023       -0.18213901451978       -0.07071229977111
C           -5.30129216347953        0.80560202311108       -0.01446331135755
O           -5.80740153779179        2.03004750024395        0.09291218675460
C           -3.82918258071418        0.75504977660460       -0.07170800406921
C           -3.28292945822168       -0.45141070226254       -0.39008718870622
N           -1.96546973170832       -0.69743876770793       -0.48995601891680
C           -1.06356933804746        0.34425796533211       -0.32516788229223
C            0.30407054924240        0.14038227344996       -0.49579647452309
C            1.24581714423830        1.16094183904345       -0.33607724674000
N            2.58444422441208        0.97479696257615       -0.57813177296143
C            3.07502376035677       -0.24023764003625       -1.19032126170233
C            3.46361509981746       -1.28063098280063       -0.13360858972846
N            4.48785317009381       -0.68695608705056        0.70457955356766
C            3.99247120375457        0.50851677663978        1.36188229408377
C            3.60152778949433        1.53479658372233        0.29140832302171
C            0.71834675914720        2.42895360035004        0.00101705476958
F            1.54374604148448        3.50019180025513        0.11586332964841
C           -0.61851489525404        2.64479986847537        0.18604538365937
C           -1.54659772657753        1.61260118381085        0.02815505759739
C           -2.97750959231361        1.90844102077379        0.21852786681493
O           -3.36752286021869        3.00150917045108        0.58703920844487
C           -1.51327957341484       -2.01932751116466       -0.81039021063864
C           -0.75759167012818       -2.80737381673722        0.22293189417773
C           -2.15514757787601       -3.19763586213518       -0.14303947752798
H           -6.77492103691940        1.98830979354481        0.14274855908844
H           -3.94701293172352       -1.28265026820229       -0.58627179990833
H            0.64438256023838       -0.84716415066358       -0.75037787287931
H            3.97907936279199        0.02679061914094       -1.74657478073343
H            2.34331331112880       -0.63424146177201       -1.89453851282602
H            3.87533189286453       -2.16879796099790       -0.61737423231967
H            2.56721125409599       -1.57454320561778        0.44283873747664
H            4.82862394779194       -1.35611682695620        1.38673666137019
H            4.78612463667963        0.91772293554772        1.98909470330918
H            3.11021321349143        0.30477206325158        1.99706846795416
H            4.47956797436248        1.76421060328338       -0.31881600454020
H            3.25880294201028        2.44669466696037        0.76978438318611
H           -0.98262120500820        3.62894672429914        0.43745876052662
H           -1.21231467020590       -2.12818092069453       -1.84878810953535
H           -0.60414818894471       -2.34466143729801        1.18586674438787
H            0.06344628569531       -3.42772927441086       -0.10329945549577
H           -2.31055434949089       -4.08789927534192       -0.73206621819803
H           -2.93196469378334       -3.01310058449747        0.58220755553244
