----- Optimization -----
      -----------------------------------------------------------      
     |                   =====================                   |     
     |                           x T B                           |     
     |                   =====================                   |     
     |                         S. Grimme                         |     
     |          Mulliken Center for Theoretical Chemistry        |     
     |                    University of Bonn                     |     
      -----------------------------------------------------------      

   * xtb version 6.7.1 (edcfbbe) compiled by 'conda@3ef47c1a292c' on 2024-11-25

   xtb is free software: you can redistribute it and/or modify it under
   the terms of the GNU Lesser General Public License as published by
   the Free Software Foundation, either version 3 of the License, or
   (at your option) any later version.
   
   xtb is distributed in the hope that it will be useful,
   but WITHOUT ANY WARRANTY; without even the implied warranty of
   MERCHANTABILITY or FITNESS FOR A PARTICULAR PURPOSE.  See the
   GNU Lesser General Public License for more details.
   
   Cite this work as:
   * C. Bannwarth, E. Caldeweyher, S. Ehlert, A. Hansen, P. Pracht,
     J. Seibert, S. Spicher, S. Grimme, WIREs Comput. Mol. Sci., 2020, 11,
     e01493. DOI: 10.1002/wcms.1493
   
   for GFN2-xTB:
   * C. Bannwarth, S. Ehlert and S. Grimme., J. Chem. Theory Comput., 2019,
     15, 1652-1671. DOI: 10.1021/acs.jctc.8b01176
   for GFN1-xTB:
   * S. Grimme, C. Bannwarth, P. Shushkov, J. Chem. Theory Comput., 2017,
     13, 1989-2009. DOI: 10.1021/acs.jctc.7b00118
   for GFN0-xTB:
   * P. Pracht, E. Caldeweyher, S. Ehlert, S. Grimme, ChemRxiv, 2019, preprint.
     DOI: 10.26434/chemrxiv.8326202.v1
   for GFN-FF:
   * S. Spicher and S. Grimme, Angew. Chem. Int. Ed., 2020, 59, 15665-15673.
     DOI: 10.1002/anie.202004239
   
   for ALPB and GBSA implicit solvation:
   * S. Ehlert, M. Stahn, S. Spicher, S. Grimme, J. Chem. Theory Comput.,
     2021, 17, 4250-4261. DOI: 10.1021/acs.jctc.1c00471
   
   for ddCOSMO and CPCM-X implicit solvation:
   * M. Stahn, S. Ehlert, S. Grimme, J. Phys. Chem. A,
     2023, XX, XXXX-XXXX. DOI: 10.1021/acs.jpca.3c04382
   
   for DFT-D4:
   * E. Caldeweyher, C. Bannwarth and S. Grimme, J. Chem. Phys., 2017,
     147, 034112. DOI: 10.1063/1.4993215
   * E. Caldeweyher, S. Ehlert, A. Hansen, H. Neugebauer, S. Spicher,
     C. Bannwarth and S. Grimme, J. Chem. Phys., 2019, 150, 154122.
     DOI: 10.1063/1.5090222
   * E. Caldeweyher, J.-M. Mewes, S. Ehlert and S. Grimme, Phys. Chem. Chem. Phys.
     2020, 22, 8499-8512. DOI: 10.1039/D0CP00502A
   
   for sTDA-xTB:
   * S. Grimme and C. Bannwarth, J. Chem. Phys., 2016, 145, 054103.
     DOI: 10.1063/1.4959605
   
   in the mass-spec context:
   * V. Asgeirsson, C. Bauer and S. Grimme, Chem. Sci., 2017, 8, 4879.
     DOI: 10.1039/c7sc00601b
   * J. Koopman and S. Grimme, ACS Omega 2019, 4, 12, 15120-15133.
     DOI: 10.1021/acsomega.9b02011
   
   for metadynamics refer to:
   * S. Grimme, J. Chem. Theory Comput., 2019, 155, 2847-2862
     DOI: 10.1021/acs.jctc.9b00143
   
   for SPH calculations refer to:
   * S. Spicher and S. Grimme, J. Chem. Theory Comput., 2021, 17, 1701-1714
     DOI: 10.1021/acs.jctc.0c01306
   
   for ONIOM refer to:
   * C. Plett, A. Katbashev, S. Ehlert, S. Grimme, M. Bursch,
     Phys. Chem. Chem. Phys., 2023, 25, 17860-17868. DOI: 10.1039/D3CP02178E
   
   for DIPRO refer to:
   * J. Kohn, N. Gildemeister, S. Grimme, D. Fazzi, A. Hansen,
     J. Chem. Phys., 2023, just accepted.
   
   for PTB refer to:
   * S. Grimme, M. Mueller, A. Hansen, J. Chem. Phys., 2023, 158, 124111.
     DOI: 10.1063/5.0137838
   
   with help from (in alphabetical order)
   P. Atkinson, C. Bannwarth, F. Bohle, G. Brandenburg, E. Caldeweyher
   M. Checinski, S. Dohm, S. Ehlert, S. Ehrlich, I. Gerasimov, C. Hölzer
   A. Katbashev, J. Kohn, J. Koopman, C. Lavigne, S. Lehtola, F. März, M. Müller,
   F. Musil, H. Neugebauer, J. Pisarek, C. Plett, P. Pracht, F. Pultar,
   J. Seibert, P. Shushkov, S. Spicher, M. Stahn, M. Steiner, T. Strunk,
   J. Stückrath, T. Rose, and J. Unsleber
   
 * started run on 2025/05/15 at 16:11:40.533     
   ID    Z sym.   atoms
    1    8 O      1, 3, 21
    2    6 C      2, 4, 5, 7-9, 11, 12, 14-16, 18-20, 22-24
    3    7 N      6, 10, 13
    4    9 F      17
    5    1 H      25-42

           -------------------------------------------------
          |                Calculation Setup                |
           -------------------------------------------------

          program call               : xtb /rds/general/user/hgt20/home/callum/QDESCP/Ciprofloxacin_rdkit_conf_20/Ciprofloxacin_rdkit_conf_20.xyz --opt normal --acc 1 --gfn 2 --chrg 0 --uhf 0 -P 1
          hostname                   : login-c
          coordinate file            : /rds/general/user/hgt20/home/callum/QDESCP/Ciprofloxacin_rdkit_conf_20/Ciprofloxacin_rdkit_conf_20.xyz
          omp threads                :                     1


           -------------------------------------------------
          |                 G F N 2 - x T B                 |
           -------------------------------------------------

        Reference                      10.1021/acs.jctc.8b01176
      * Hamiltonian:
        H0-scaling (s, p, d)           1.850000    2.230000    2.230000
        zeta-weighting                 0.500000
      * Dispersion:
        s8                             2.700000
        a1                             0.520000
        a2                             5.000000
        s9                             5.000000
      * Repulsion:
        kExp                           1.500000    1.000000
        rExp                           1.000000
      * Coulomb:
        alpha                          2.000000
        third order                    shell-resolved
        anisotropic                    true
        a3                             3.000000
        a5                             4.000000
        cn-shift                       1.200000
        cn-exp                         4.000000
        max-rad                        5.000000


          ...................................................
          :                      SETUP                      :
          :.................................................:
          :  # basis functions                 114          :
          :  # atomic orbitals                 114          :
          :  # shells                           66          :
          :  # electrons                       126          :
          :  max. iterations                   250          :
          :  Hamiltonian                  GFN2-xTB          :
          :  restarted?                      false          :
          :  GBSA solvation                  false          :
          :  PC potential                    false          :
          :  electronic temp.          300.0000000     K    :
          :  accuracy                    1.0000000          :
          :  -> integral cutoff          0.2500000E+02      :
          :  -> integral neglect         0.1000000E-07      :
          :  -> SCF convergence          0.1000000E-05 Eh   :
          :  -> wf. convergence          0.1000000E-03 e    :
          :  Broyden damping             0.4000000          :
          :  net charge                          0          :
          :  unpaired electrons                  0          :
          ...................................................

 iter      E             dE          RMSdq      gap      omega  full diag
   1    -71.9769428 -0.719769E+02  0.416E+00    2.42       0.0  T
   2    -72.0957590 -0.118816E+00  0.254E+00    2.34       1.0  T
   3    -72.1067440 -0.109850E-01  0.146E+00    2.54       1.0  T
   4    -72.1241812 -0.174372E-01  0.469E-01    2.48       1.0  T
   5    -72.1310538 -0.687257E-02  0.111E-01    2.47       1.0  T
   6    -72.1312715 -0.217712E-03  0.522E-02    2.47       1.0  T
   7    -72.1313009 -0.294811E-04  0.229E-02    2.48       1.0  T
   8    -72.1313035 -0.255690E-05  0.911E-03    2.48       1.7  T
   9    -72.1313051 -0.162085E-05  0.407E-03    2.48       3.8  T
  10    -72.1313052 -0.113834E-06  0.158E-03    2.48       9.8  T
  11    -72.1313053 -0.547883E-07  0.698E-04    2.48      22.1  T
  12    -72.1313053 -0.601636E-08  0.284E-04    2.48      54.3  T

   *** convergence criteria satisfied after 12 iterations ***

         #    Occupation            Energy/Eh            Energy/eV
      -------------------------------------------------------------
         1        2.0000           -0.8207695             -22.3343
       ...           ...                  ...                  ...
        57        2.0000           -0.4366603             -11.8821
        58        2.0000           -0.4243978             -11.5485
        59        2.0000           -0.4178779             -11.3710
        60        2.0000           -0.3886428             -10.5755
        61        2.0000           -0.3782873             -10.2937
        62        2.0000           -0.3776299             -10.2758
        63        2.0000           -0.3674698              -9.9994 (HOMO)
        64                         -0.2763612              -7.5202 (LUMO)
        65                         -0.2635660              -7.1720
        66                         -0.2329317              -6.3384
        67                         -0.2112543              -5.7485
        68                         -0.1486486              -4.0449
       ...                                ...                  ...
       114                          0.6942781              18.8923
      -------------------------------------------------------------
                  HL-Gap            0.0911086 Eh            2.4792 eV
             Fermi-level           -0.3219155 Eh           -8.7598 eV

 SCC (total)                   0 d,  0 h,  0 min,  0.107 sec
 SCC setup                      ...        0 min,  0.000 sec (  0.348%)
 Dispersion                     ...        0 min,  0.000 sec (  0.452%)
 classical contributions        ...        0 min,  0.000 sec (  0.138%)
 integral evaluation            ...        0 min,  0.008 sec (  7.568%)
 iterations                     ...        0 min,  0.027 sec ( 25.112%)
 molecular gradient             ...        0 min,  0.071 sec ( 66.211%)
 printout                       ...        0 min,  0.000 sec (  0.163%)

         :::::::::::::::::::::::::::::::::::::::::::::::::::::
         ::                     SUMMARY                     ::
         :::::::::::::::::::::::::::::::::::::::::::::::::::::
         :: total energy             -71.288528436165 Eh    ::
         :: gradient norm              0.083921905606 Eh/a0 ::
         :: HOMO-LUMO gap              2.479191299164 eV    ::
         ::.................................................::
         :: SCC energy               -72.130904384964 Eh    ::
         :: -> isotropic ES            0.107433013226 Eh    ::
         :: -> anisotropic ES          0.007806478813 Eh    ::
         :: -> anisotropic XC          0.020581398443 Eh    ::
         :: -> dispersion             -0.046004150513 Eh    ::
         :: repulsion energy           0.842375948799 Eh    ::
         :: add. restraining           0.000000000000 Eh    ::
         :: total charge              -0.000000000000 e     ::
         :::::::::::::::::::::::::::::::::::::::::::::::::::::

      ----------------------------------------------------------- 
     |                   =====================                   |
     |                        A N C O P T                        |
     |                   =====================                   |
     |               Approximate Normal Coordinate               |
     |                Rational Function Optimizer                |
      ----------------------------------------------------------- 
      ----------------------------------------------------------- 
     |                   =====================                   |
     |                        A N C O P T                        |
     |                   =====================                   |
     |               Approximate Normal Coordinate               |
     |                Rational Function Optimizer                |
      ----------------------------------------------------------- 

          ...................................................
          :                      SETUP                      :
          :.................................................:
          :   optimization level            normal          :
          :   max. optcycles                   200          :
          :   ANC micro-cycles                  20          :
          :   degrees of freedom               120          :
          :.................................................:
          :   RF solver                   davidson          :
          :   write xtbopt.log                true          :
          :   linear?                        false          :
          :   energy convergence         0.5000000E-05 Eh   :
          :   grad. convergence          0.1000000E-02 Eh/α :
          :   maxmium RF displ.          1.0000000          :
          :   Hlow (freq-cutoff)         0.1000000E-01      :
          :   Hmax (freq-cutoff)         5.0000000          :
          :   S6 in model hess.         20.0000000          :
          ...................................................

generating ANC from exact Hessian ...
Using Lindh-Hessian (1995)
 Shifting diagonal of input Hessian by    9.6796789474500790E-003
 Lowest  eigenvalues of input Hessian
    0.000000    0.000000    0.000000    0.000000    0.000000    0.000000
    0.010000    0.010217    0.011048    0.011697    0.011800    0.012036
    0.013010    0.014478    0.015701    0.016901    0.019031    0.021227
 Highest eigenvalues
    1.866181    1.984874    2.026017    2.094706    2.212351    2.341007


........................................................................
.............................. CYCLE    1 ..............................
........................................................................

 iter      E             dE          RMSdq      gap      omega  full diag
   1    -72.1313053 -0.721313E+02  0.121E-04    2.48       0.0  T
   2    -72.1313053 -0.107804E-09  0.777E-05    2.48     198.7  T
   3    -72.1313053 -0.754454E-10  0.468E-05    2.48     329.5  T
     SCC iter.                  ...        0 min,  0.007 sec
     gradient                   ...        0 min,  0.079 sec
 * total energy  :   -71.2885284 Eh     change       -0.1085240E-08 Eh
   gradient norm :     0.0839239 Eh/α   predicted     0.0000000E+00 (-100.00%)
   displ. norm   :     0.4000684 α      lambda       -0.1852058E-01
   maximum displ.:     0.1257979 α      in ANC's #47, #22, #38, ...

........................................................................
.............................. CYCLE    2 ..............................
........................................................................

 iter      E             dE          RMSdq      gap      omega  full diag
   1    -72.1697130 -0.721697E+02  0.252E-01    2.50       0.0  T
   2    -72.1701090 -0.395992E-03  0.171E-01    2.54       1.0  T
   3    -72.1702423 -0.133288E-03  0.958E-02    2.53       1.0  T
   4    -72.1703392 -0.968906E-04  0.282E-02    2.52       1.0  T
   5    -72.1703629 -0.236960E-04  0.563E-03    2.53       2.7  T
   6    -72.1703634 -0.538085E-06  0.272E-03    2.53       5.7  T
   7    -72.1703635 -0.565974E-07  0.102E-03    2.53      15.1  T
   8    -72.1703635 -0.582385E-08  0.398E-04    2.53      38.8  T
   9    -72.1703635 -0.244867E-08  0.140E-04    2.53     110.2  T
     SCC iter.                  ...        0 min,  0.019 sec
     gradient                   ...        0 min,  0.073 sec
 * total energy  :   -71.3013280 Eh     change       -0.1279955E-01 Eh
   gradient norm :     0.0361344 Eh/α   predicted    -0.1074686E-01 ( -16.04%)
   displ. norm   :     0.3626811 α      lambda       -0.6329650E-02
   maximum displ.:     0.1355243 α      in ANC's #14, #22, #18, ...

........................................................................
.............................. CYCLE    3 ..............................
........................................................................

 iter      E             dE          RMSdq      gap      omega  full diag
   1    -72.1953771 -0.721954E+02  0.172E-01    2.51       0.0  T
   2    -72.1956551 -0.278025E-03  0.121E-01    2.55       1.0  T
   3    -72.1957798 -0.124689E-03  0.666E-02    2.55       1.0  T
   4    -72.1957981 -0.182274E-04  0.234E-02    2.55       1.0  T
   5    -72.1958133 -0.152489E-04  0.459E-03    2.55       3.4  T
   6    -72.1958138 -0.455261E-06  0.195E-03    2.55       7.9  T
   7    -72.1958138 -0.280222E-07  0.718E-04    2.55      21.5  T
   8    -72.1958138 -0.371315E-08  0.311E-04    2.55      49.6  T
     SCC iter.                  ...        0 min,  0.067 sec
     gradient                   ...        0 min,  0.026 sec
 * total energy  :   -71.3051013 Eh     change       -0.3773283E-02 Eh
   gradient norm :     0.0124919 Eh/α   predicted    -0.3584626E-02 (  -5.00%)
   displ. norm   :     0.2134307 α      lambda       -0.1020356E-02
   maximum displ.:     0.1015240 α      in ANC's #6, #14, #21, ...

........................................................................
.............................. CYCLE    4 ..............................
........................................................................

 iter      E             dE          RMSdq      gap      omega  full diag
   1    -72.2004887 -0.722005E+02  0.646E-02    2.53       0.0  T
   2    -72.2005087 -0.200887E-04  0.385E-02    2.55       1.0  T
   3    -72.2005084  0.323150E-06  0.222E-02    2.55       1.0  T
   4    -72.2005158 -0.738914E-05  0.521E-03    2.55       3.0  T
   5    -72.2005167 -0.862971E-06  0.157E-03    2.55       9.8  T
   6    -72.2005167 -0.457015E-07  0.770E-04    2.55      20.0  T
   7    -72.2005167 -0.495396E-08  0.239E-04    2.55      64.6  T
     SCC iter.                  ...        0 min,  0.072 sec
     gradient                   ...        0 min,  0.025 sec
 * total energy  :   -71.3058447 Eh     change       -0.7434195E-03 Eh
   gradient norm :     0.0094195 Eh/α   predicted    -0.5334432E-03 ( -28.24%)
   displ. norm   :     0.2803319 α      lambda       -0.7761907E-03
   maximum displ.:     0.1733656 α      in ANC's #6, #4, #14, ...

........................................................................
.............................. CYCLE    5 ..............................
........................................................................

 iter      E             dE          RMSdq      gap      omega  full diag
   1    -72.2016607 -0.722017E+02  0.759E-02    2.53       0.0  T
   2    -72.2016722 -0.114798E-04  0.436E-02    2.55       1.0  T
   3    -72.2016650  0.715694E-05  0.204E-02    2.54       1.0  T
   4    -72.2016756 -0.105839E-04  0.345E-03    2.55       4.5  T
   5    -72.2016759 -0.335723E-06  0.138E-03    2.55      11.2  T
   6    -72.2016759 -0.150316E-07  0.699E-04    2.55      22.1  T
   7    -72.2016759 -0.876065E-08  0.250E-04    2.55      61.6  T
     SCC iter.                  ...        0 min,  0.060 sec
     gradient                   ...        0 min,  0.026 sec
 * total energy  :   -71.3063604 Eh     change       -0.5156642E-03 Eh
   gradient norm :     0.0061328 Eh/α   predicted    -0.4185984E-03 ( -18.82%)
   displ. norm   :     0.2289365 α      lambda       -0.3299477E-03
   maximum displ.:     0.1664898 α      in ANC's #6, #4, #5, ...

........................................................................
.............................. CYCLE    6 ..............................
........................................................................

 iter      E             dE          RMSdq      gap      omega  full diag
   1    -72.2012817 -0.722013E+02  0.543E-02    2.54       0.0  T
   2    -72.2012837 -0.201294E-05  0.316E-02    2.54       1.0  T
   3    -72.2012818  0.192698E-05  0.809E-03    2.54       1.9  T
   4    -72.2012843 -0.251702E-05  0.178E-03    2.54       8.6  T
   5    -72.2012843 -0.610203E-07  0.892E-04    2.54      17.3  T
   6    -72.2012843 -0.528622E-08  0.401E-04    2.54      38.5  T
     SCC iter.                  ...        0 min,  0.013 sec
     gradient                   ...        0 min,  0.071 sec
 * total energy  :   -71.3065912 Eh     change       -0.2308153E-03 Eh
   gradient norm :     0.0047063 Eh/α   predicted    -0.1736543E-03 ( -24.76%)
   displ. norm   :     0.1831090 α      lambda       -0.1966528E-03
   maximum displ.:     0.1335998 α      in ANC's #6, #4, #5, ...

........................................................................
.............................. CYCLE    7 ..............................
........................................................................

 iter      E             dE          RMSdq      gap      omega  full diag
   1    -72.2011689 -0.722012E+02  0.429E-02    2.54       0.0  T
   2    -72.2011700 -0.114432E-05  0.253E-02    2.54       1.0  T
   3    -72.2011693  0.727336E-06  0.557E-03    2.54       2.8  T
   4    -72.2011703 -0.102463E-05  0.142E-03    2.54      10.8  T
   5    -72.2011704 -0.349104E-07  0.734E-04    2.54      21.0  T
   6    -72.2011704 -0.337612E-08  0.307E-04    2.54      50.2  T
     SCC iter.                  ...        0 min,  0.013 sec
     gradient                   ...        0 min,  0.065 sec
 * total energy  :   -71.3067378 Eh     change       -0.1465978E-03 Eh
   gradient norm :     0.0036013 Eh/α   predicted    -0.1016241E-03 ( -30.68%)
   displ. norm   :     0.1856942 α      lambda       -0.1524482E-03
   maximum displ.:     0.1311231 α      in ANC's #6, #4, #5, ...

........................................................................
.............................. CYCLE    8 ..............................
........................................................................

 iter      E             dE          RMSdq      gap      omega  full diag
   1    -72.2011610 -0.722012E+02  0.402E-02    2.54       0.0  T
   2    -72.2011621 -0.114200E-05  0.239E-02    2.54       1.0  T
   3    -72.2011597  0.245534E-05  0.870E-03    2.54       1.8  T
   4    -72.2011627 -0.302264E-05  0.158E-03    2.54       9.8  T
   5    -72.2011627 -0.435242E-07  0.795E-04    2.54      19.4  T
   6    -72.2011627 -0.204871E-08  0.361E-04    2.54      42.7  T
     SCC iter.                  ...        0 min,  0.013 sec
     gradient                   ...        0 min,  0.026 sec
 * total energy  :   -71.3068499 Eh     change       -0.1121123E-03 Eh
   gradient norm :     0.0035020 Eh/α   predicted    -0.7885604E-04 ( -29.66%)
   displ. norm   :     0.1866027 α      lambda       -0.1109821E-03
   maximum displ.:     0.1263479 α      in ANC's #6, #4, #5, ...

........................................................................
.............................. CYCLE    9 ..............................
........................................................................

 iter      E             dE          RMSdq      gap      omega  full diag
   1    -72.2010718 -0.722011E+02  0.421E-02    2.53       0.0  T
   2    -72.2010738 -0.204330E-05  0.248E-02    2.53       1.0  T
   3    -72.2010712  0.262536E-05  0.988E-03    2.54       1.6  T
   4    -72.2010744 -0.323438E-05  0.210E-03    2.54       7.4  T
   5    -72.2010746 -0.114783E-06  0.824E-04    2.54      18.7  T
   6    -72.2010745  0.441290E-09  0.430E-04    2.54      35.9  T
     SCC iter.                  ...        0 min,  0.046 sec
     gradient                   ...        0 min,  0.026 sec
 * total energy  :   -71.3069311 Eh     change       -0.8125403E-04 Eh
   gradient norm :     0.0032699 Eh/α   predicted    -0.5742426E-04 ( -29.33%)
   displ. norm   :     0.1825245 α      lambda       -0.8428202E-04
   maximum displ.:     0.1174337 α      in ANC's #6, #4, #5, ...

........................................................................
.............................. CYCLE   10 ..............................
........................................................................

 iter      E             dE          RMSdq      gap      omega  full diag
   1    -72.2011972 -0.722012E+02  0.413E-02    2.53       0.0  T
   2    -72.2011995 -0.226458E-05  0.242E-02    2.54       1.0  T
   3    -72.2011969  0.259293E-05  0.103E-02    2.54       1.5  T
   4    -72.2012002 -0.331596E-05  0.216E-03    2.54       7.2  T
   5    -72.2012003 -0.113371E-06  0.911E-04    2.54      16.9  T
   6    -72.2012003 -0.288479E-08  0.520E-04    2.54      29.7  T
     SCC iter.                  ...        0 min,  0.057 sec
     gradient                   ...        0 min,  0.026 sec
 * total energy  :   -71.3069908 Eh     change       -0.5962123E-04 Eh
   gradient norm :     0.0033926 Eh/α   predicted    -0.4354788E-04 ( -26.96%)
   displ. norm   :     0.1351258 α      lambda       -0.5593342E-04
   maximum displ.:     0.0769480 α      in ANC's #6, #4, #12, ...

........................................................................
.............................. CYCLE   11 ..............................
........................................................................

 iter      E             dE          RMSdq      gap      omega  full diag
   1    -72.2016340 -0.722016E+02  0.330E-02    2.53       0.0  T
   2    -72.2016366 -0.256532E-05  0.191E-02    2.54       1.0  T
   3    -72.2016354  0.117921E-05  0.854E-03    2.54       1.8  T
   4    -72.2016371 -0.165734E-05  0.219E-03    2.54       7.0  T
   5    -72.2016372 -0.152985E-06  0.780E-04    2.54      19.8  T
   6    -72.2016372 -0.437046E-08  0.461E-04    2.54      33.5  T
     SCC iter.                  ...        0 min,  0.013 sec
     gradient                   ...        0 min,  0.065 sec
 * total energy  :   -71.3070306 Eh     change       -0.3985739E-04 Eh
   gradient norm :     0.0027808 Eh/α   predicted    -0.2848451E-04 ( -28.53%)
   displ. norm   :     0.0990991 α      lambda       -0.3783474E-04
   maximum displ.:     0.0452182 α      in ANC's #4, #6, #2, ...

........................................................................
.............................. CYCLE   12 ..............................
........................................................................

 iter      E             dE          RMSdq      gap      omega  full diag
   1    -72.2019673 -0.722020E+02  0.258E-02    2.54       0.0  T
   2    -72.2019688 -0.148607E-05  0.149E-02    2.54       1.0  T
   3    -72.2019679  0.893691E-06  0.692E-03    2.54       2.2  T
   4    -72.2019692 -0.128833E-05  0.155E-03    2.54      10.0  T
   5    -72.2019693 -0.716486E-07  0.630E-04    2.54      24.5  T
   6    -72.2019693 -0.268273E-08  0.365E-04    2.54      42.2  T
     SCC iter.                  ...        0 min,  0.013 sec
     gradient                   ...        0 min,  0.066 sec
 * total energy  :   -71.3070576 Eh     change       -0.2697437E-04 Eh
   gradient norm :     0.0022604 Eh/α   predicted    -0.1910422E-04 ( -29.18%)
   displ. norm   :     0.0741633 α      lambda       -0.2525368E-04
   maximum displ.:     0.0341197 α      in ANC's #2, #4, #12, ...

........................................................................
.............................. CYCLE   13 ..............................
........................................................................

 iter      E             dE          RMSdq      gap      omega  full diag
   1    -72.2020128 -0.722020E+02  0.206E-02    2.54       0.0  T
   2    -72.2020134 -0.631194E-06  0.120E-02    2.55       1.3  T
   3    -72.2020129  0.577014E-06  0.488E-03    2.55       3.2  T
   4    -72.2020136 -0.777218E-06  0.105E-03    2.55      14.7  T
   5    -72.2020137 -0.288378E-07  0.493E-04    2.55      31.3  T
   6    -72.2020137 -0.100275E-08  0.275E-04    2.55      56.2  T
     SCC iter.                  ...        0 min,  0.013 sec
     gradient                   ...        0 min,  0.026 sec
 * total energy  :   -71.3070757 Eh     change       -0.1810508E-04 Eh
   gradient norm :     0.0018606 Eh/α   predicted    -0.1270026E-04 ( -29.85%)
   displ. norm   :     0.0977719 α      lambda       -0.1838399E-04
   maximum displ.:     0.0477390 α      in ANC's #2, #8, #12, ...

........................................................................
.............................. CYCLE   14 ..............................
........................................................................

 iter      E             dE          RMSdq      gap      omega  full diag
   1    -72.2016699 -0.722017E+02  0.281E-02    2.55       0.0  T
   2    -72.2016703 -0.393164E-06  0.165E-02    2.55       1.0  T
   3    -72.2016695  0.820418E-06  0.502E-03    2.55       3.1  T
   4    -72.2016705 -0.107854E-05  0.106E-03    2.55      14.5  T
   5    -72.2016706 -0.705222E-08  0.607E-04    2.55      25.4  T
   6    -72.2016706 -0.121040E-08  0.227E-04    2.55      68.1  T
     SCC iter.                  ...        0 min,  0.046 sec
     gradient                   ...        0 min,  0.026 sec
 * total energy  :   -71.3070918 Eh     change       -0.1614880E-04 Eh
   gradient norm :     0.0019786 Eh/α   predicted    -0.9235503E-05 ( -42.81%)
   displ. norm   :     0.0430156 α      lambda       -0.1069683E-04
   maximum displ.:     0.0190872 α      in ANC's #2, #8, #3, ...

........................................................................
.............................. CYCLE   15 ..............................
........................................................................

 iter      E             dE          RMSdq      gap      omega  full diag
   1    -72.2019318 -0.722019E+02  0.127E-02    2.55       0.0  T
   2    -72.2019322 -0.385236E-06  0.754E-03    2.55       2.0  T
   3    -72.2019321  0.131230E-06  0.327E-03    2.55       4.7  T
   4    -72.2019323 -0.226474E-06  0.710E-04    2.55      21.7  T
   5    -72.2019323 -0.136638E-07  0.297E-04    2.55      52.0  T
     SCC iter.                  ...        0 min,  0.011 sec
     gradient                   ...        0 min,  0.060 sec
 * total energy  :   -71.3071028 Eh     change       -0.1096722E-04 Eh
   gradient norm :     0.0014305 Eh/α   predicted    -0.5353285E-05 ( -51.19%)
   displ. norm   :     0.1727300 α      lambda       -0.2741507E-04
   maximum displ.:     0.0782348 α      in ANC's #2, #8, #12, ...

........................................................................
.............................. CYCLE   16 ..............................
........................................................................

 iter      E             dE          RMSdq      gap      omega  full diag
   1    -72.2002106 -0.722002E+02  0.546E-02    2.54       0.0  T
   2    -72.2002139 -0.325336E-05  0.326E-02    2.54       1.0  T
   3    -72.2002095  0.439860E-05  0.123E-02    2.54       1.3  T
   4    -72.2002152 -0.574374E-05  0.277E-03    2.54       5.6  T
   5    -72.2002154 -0.151599E-06  0.136E-03    2.54      11.3  T
   6    -72.2002154 -0.739348E-08  0.609E-04    2.54      25.3  T
   7    -72.2002154 -0.201200E-08  0.213E-04    2.54      72.3  T
     SCC iter.                  ...        0 min,  0.015 sec
     gradient                   ...        0 min,  0.026 sec
 * total energy  :   -71.3071074 Eh     change       -0.4543672E-05 Eh
   gradient norm :     0.0048682 Eh/α   predicted    -0.1389038E-04 ( 205.71%)
   displ. norm   :     0.0357622 α      lambda       -0.2668386E-04
   maximum displ.:     0.0185469 α      in ANC's #6, #4, #8, ...

........................................................................
.............................. CYCLE   17 ..............................
........................................................................

 iter      E             dE          RMSdq      gap      omega  full diag
   1    -72.2011582 -0.722012E+02  0.120E-02    2.54       0.0  T
   2    -72.2011587 -0.472607E-06  0.743E-03    2.54       2.1  T
   3    -72.2011585  0.166532E-06  0.354E-03    2.54       4.4  T
   4    -72.2011588 -0.291382E-06  0.974E-04    2.54      15.8  T
   5    -72.2011588 -0.281844E-07  0.322E-04    2.54      48.0  T
     SCC iter.                  ...        0 min,  0.038 sec
     gradient                   ...        0 min,  0.026 sec
 * total energy  :   -71.3071255 Eh     change       -0.1813525E-04 Eh
   gradient norm :     0.0019770 Eh/α   predicted    -0.1336271E-04 ( -26.32%)
   displ. norm   :     0.0551156 α      lambda       -0.1544486E-04
   maximum displ.:     0.0286895 α      in ANC's #2, #12, #1, ...

........................................................................
.............................. CYCLE   18 ..............................
........................................................................

 iter      E             dE          RMSdq      gap      omega  full diag
   1    -72.2020992 -0.722021E+02  0.180E-02    2.54       0.0  T
   2    -72.2021004 -0.115443E-05  0.106E-02    2.54       1.5  T
   3    -72.2021003  0.518553E-07  0.416E-03    2.54       3.7  T
   4    -72.2021005 -0.178078E-06  0.105E-03    2.54      14.7  T
   5    -72.2021005 -0.333888E-07  0.449E-04    2.54      34.4  T
   6    -72.2021005 -0.325807E-08  0.256E-04    2.54      60.4  T
     SCC iter.                  ...        0 min,  0.013 sec
     gradient                   ...        0 min,  0.054 sec
 * total energy  :   -71.3071376 Eh     change       -0.1213082E-04 Eh
   gradient norm :     0.0011650 Eh/α   predicted    -0.7736610E-05 ( -36.22%)
   displ. norm   :     0.0871525 α      lambda       -0.7139132E-05
   maximum displ.:     0.0397677 α      in ANC's #2, #12, #8, ...

........................................................................
.............................. CYCLE   19 ..............................
........................................................................

 iter      E             dE          RMSdq      gap      omega  full diag
   1    -72.2017649 -0.722018E+02  0.251E-02    2.54       0.0  T
   2    -72.2017654 -0.479028E-06  0.148E-02    2.54       1.0  T
   3    -72.2017644  0.985600E-06  0.571E-03    2.54       2.7  T
   4    -72.2017656 -0.127608E-05  0.117E-03    2.54      13.2  T
   5    -72.2017657 -0.189393E-07  0.636E-04    2.54      24.3  T
   6    -72.2017657 -0.145312E-08  0.188E-04    2.54      82.1  T
     SCC iter.                  ...        0 min,  0.013 sec
     gradient                   ...        0 min,  0.026 sec
 * total energy  :   -71.3071451 Eh     change       -0.7475174E-05 Eh
   gradient norm :     0.0008226 Eh/α   predicted    -0.3582359E-05 ( -52.08%)
   displ. norm   :     0.1038186 α      lambda       -0.5658093E-05
   maximum displ.:     0.0470706 α      in ANC's #2, #12, #8, ...

........................................................................
.............................. CYCLE   20 ..............................
........................................................................

 iter      E             dE          RMSdq      gap      omega  full diag
   1    -72.2011225 -0.722011E+02  0.329E-02    2.54       0.0  T
   2    -72.2011240 -0.150481E-05  0.192E-02    2.54       1.0  T
   3    -72.2011230  0.948143E-06  0.628E-03    2.54       2.5  T
   4    -72.2011242 -0.121912E-05  0.194E-03    2.54       7.9  T
   5    -72.2011243 -0.109389E-06  0.747E-04    2.54      20.7  T
   6    -72.2011243 -0.836948E-09  0.375E-04    2.54      41.2  T
     SCC iter.                  ...        0 min,  0.013 sec
     gradient                   ...        0 min,  0.026 sec
 * total energy  :   -71.3071456 Eh     change       -0.5476559E-06 Eh
   gradient norm :     0.0028690 Eh/α   predicted    -0.2844704E-05 ( 419.43%)
   displ. norm   :     0.0254507 α      lambda       -0.5035399E-05
   maximum displ.:     0.0139493 α      in ANC's #2, #12, #8, ...
 * RMSD in coord.:     0.3237718 α      energy gain  -0.1861721E-01 Eh

generating ANC from exact Hessian ...
Using Lindh-Hessian (1995)
 Shifting diagonal of input Hessian by    9.6296347904154273E-003
 Lowest  eigenvalues of input Hessian
    0.000000    0.000000    0.000000    0.000000    0.000000    0.000000
    0.010000    0.010252    0.011166    0.011879    0.012183    0.012348
    0.013635    0.015216    0.015848    0.017411    0.020412    0.021198
 Highest eigenvalues
    1.969893    2.069258    2.113230    2.200390    2.298524    2.396823


........................................................................
.............................. CYCLE   21 ..............................
........................................................................

 iter      E             dE          RMSdq      gap      omega  full diag
   1    -72.2014403 -0.722014E+02  0.845E-03    2.54       0.0  T
   2    -72.2014405 -0.218114E-06  0.498E-03    2.54       3.1  T
   3    -72.2014405  0.540857E-07  0.189E-03    2.54       8.1  T
   4    -72.2014405 -0.733190E-07  0.654E-04    2.54      23.6  T
   5    -72.2014406 -0.139714E-07  0.211E-04    2.54      73.2  T
     SCC iter.                  ...        0 min,  0.011 sec
     gradient                   ...        0 min,  0.026 sec
 * total energy  :   -71.3071488 Eh     change       -0.3203190E-05 Eh
   gradient norm :     0.0011723 Eh/α   predicted     0.0000000E+00 (-100.00%)
   displ. norm   :     0.0082334 α      lambda       -0.1275135E-05
   maximum displ.:     0.0038374 α      in ANC's #2, #1, #5, ...

........................................................................
.............................. CYCLE   22 ..............................
........................................................................

 iter      E             dE          RMSdq      gap      omega  full diag
   1    -72.2017886 -0.722018E+02  0.277E-03    2.54       0.0  T
   2    -72.2017887 -0.809825E-07  0.179E-03    2.54       8.6  T
   3    -72.2017887 -0.775694E-08  0.960E-04    2.54      16.1  T
   4    -72.2017887 -0.414627E-08  0.292E-04    2.54      52.9  T
     SCC iter.                  ...        0 min,  0.009 sec
     gradient                   ...        0 min,  0.047 sec
 * total energy  :   -71.3071501 Eh     change       -0.1285250E-05 Eh
   gradient norm :     0.0003456 Eh/α   predicted    -0.8280661E-06 ( -35.57%)
   displ. norm   :     0.0096720 α      lambda        0.1874662E-06
   maximum displ.:     0.0047988 α      in ANC's #2, #1, #8, ...

   *** GEOMETRY OPTIMIZATION CONVERGED AFTER 22 ITERATIONS ***

------------------------------------------------------------------------
 total energy gain   :        -0.0186217 Eh      -11.6853 kcal/mol
 total RMSD          :         0.3239392 a0        0.1714 Å
 total power (kW/mol):        -2.2223296 (step)  -27.1716 (real)
------------------------------------------------------------------------

 ANCopt (total)                0 d,  0 h,  0 min,  1.799 sec
 optimizer setup                ...        0 min,  0.000 sec (  0.004%)
 model hessian                  ...        0 min,  0.032 sec (  1.782%)
 ANC generation                 ...        0 min,  0.003 sec (  0.164%)
 coordinate transformation      ...        0 min,  0.000 sec (  0.008%)
 single point calculation       ...        0 min,  1.757 sec ( 97.618%)
 optimization log               ...        0 min,  0.004 sec (  0.209%)
 hessian update                 ...        0 min,  0.000 sec (  0.015%)
 rational function              ...        0 min,  0.002 sec (  0.087%)

================
 final structure:
================
42
 xtb: 6.7.1 (edcfbbe)
O           -6.00326734137023       -0.18213901451978       -0.07071229977111
C           -5.30129216347953        0.80560202311108       -0.01446331135755
O           -5.80740153779179        2.03004750024395        0.09291218675460
C           -3.82918258071418        0.75504977660460       -0.07170800406921
C           -3.28292945822168       -0.45141070226254       -0.39008718870622
N           -1.96546973170832       -0.69743876770793       -0.48995601891680
C           -1.06356933804746        0.34425796533211       -0.32516788229223
C            0.30407054924240        0.14038227344996       -0.49579647452309
C            1.24581714423830        1.16094183904345       -0.33607724674000
N            2.58444422441208        0.97479696257615       -0.57813177296143
C            3.07502376035677       -0.24023764003625       -1.19032126170233
C            3.46361509981746       -1.28063098280063       -0.13360858972846
N            4.48785317009381       -0.68695608705056        0.70457955356766
C            3.99247120375457        0.50851677663978        1.36188229408377
C            3.60152778949433        1.53479658372233        0.29140832302171
C            0.71834675914720        2.42895360035004        0.00101705476958
F            1.54374604148448        3.50019180025513        0.11586332964841
C           -0.61851489525404        2.64479986847537        0.18604538365937
C           -1.54659772657753        1.61260118381085        0.02815505759739
C           -2.97750959231361        1.90844102077379        0.21852786681493
O           -3.36752286021869        3.00150917045108        0.58703920844487
C           -1.51327957341484       -2.01932751116466       -0.81039021063864
C           -0.75759167012818       -2.80737381673722        0.22293189417773
C           -2.15514757787601       -3.19763586213518       -0.14303947752798
H           -6.77492103691940        1.98830979354481        0.14274855908844
H           -3.94701293172352       -1.28265026820229       -0.58627179990833
H            0.64438256023838       -0.84716415066358       -0.75037787287931
H            3.97907936279199        0.02679061914094       -1.74657478073343
H            2.34331331112880       -0.63424146177201       -1.89453851282602
H            3.87533189286453       -2.16879796099790       -0.61737423231967
H            2.56721125409599       -1.57454320561778        0.44283873747664
H            4.82862394779194       -1.35611682695620        1.38673666137019
H            4.78612463667963        0.91772293554772        1.98909470330918
H            3.11021321349143        0.30477206325158        1.99706846795416
H            4.47956797436248        1.76421060328338       -0.31881600454020
H            3.25880294201028        2.44669466696037        0.76978438318611
H           -0.98262120500820        3.62894672429914        0.43745876052662
H           -1.21231467020590       -2.12818092069453       -1.84878810953535
H           -0.60414818894471       -2.34466143729801        1.18586674438787
H            0.06344628569531       -3.42772927441086       -0.10329945549577
H           -2.31055434949089       -4.08789927534192       -0.73206621819803
H           -2.93196469378334       -3.01310058449747        0.58220755553244

 Bond Distances (Angstroems)
 ---------------------------
O1-C2=1.2131         C2-O1=1.2131         C2-O3=1.3293         C2-C4=1.4741         O3-C2=1.3293         O3-H25=0.9697        
C4-C2=1.4741         C4-C5=1.3621         C4-C20=1.4628        C5-C4=1.3621         C5-N6=1.3440         C5-H26=1.0819        
N6-C5=1.3440         N6-C7=1.3877         N6-C22=1.4334        C7-N6=1.3877         C7-C8=1.3932         C7-C19=1.4024        
C8-C7=1.3932         C8-C9=1.3978         C8-H27=1.0751        C9-C8=1.3978         C9-N10=1.3730        C9-C16=1.4141        
N10-C9=1.3730        N10-C11=1.4463       N10-C15=1.4506       C11-N10=1.4463       C11-C12=1.5330       C11-H28=1.0945       
C11-H29=1.0893       C12-C11=1.5330       C12-N13=1.4505       C12-H30=1.0920       C12-H31=1.1055       N13-C12=1.4505       
N13-C14=1.4514       N13-H32=1.0145       C14-N13=1.4514       C14-C15=1.5336       C14-H33=1.0912       C14-H34=1.1061       
C15-N10=1.4506       C15-C14=1.5336       C15-H35=1.0936       C15-H36=1.0853       C16-C9=1.4141        C16-F17=1.3572       
C16-C18=1.3668       F17-C16=1.3572       C18-C16=1.3668       C18-C19=1.3970       C18-H37=1.0790       C19-C7=1.4024        
C19-C18=1.3970       C19-C20=1.4735       C20-C4=1.4628        C20-C19=1.4735       C20-O21=1.2177       O21-C20=1.2177       
C22-N6=1.4334        C22-C23=1.5033       C22-C24=1.4986       C22-H38=1.0866       C23-C22=1.5033       C23-C24=1.4965       
C23-H39=1.0793       C23-H40=1.0795       C24-C22=1.4986       C24-C23=1.4965       C24-H41=1.0787       C24-H42=1.0786       
H25-O3=0.9697        H26-C5=1.0819        H27-C8=1.0751        H28-C11=1.0945       H29-C11=1.0893       H30-C12=1.0920       
H31-C12=1.1055       H32-N13=1.0145       H33-C14=1.0912       H34-C14=1.1061       H35-C15=1.0936       H36-C15=1.0853       
H37-C18=1.0790       H38-C22=1.0866       H39-C23=1.0793       H40-C23=1.0795       H41-C24=1.0787       H42-C24=1.0786       
 C  H  Rav=1.0873 sigma=0.0092  Rmin=1.0751  Rmax=1.1061    16
 C  C  Rav=1.4473 sigma=0.0574  Rmin=1.3621  Rmax=1.5336    15
 N  H  Rav=1.0145 sigma=0.0000  Rmin=1.0145  Rmax=1.0145     1
 N  C  Rav=1.4171 sigma=0.0398  Rmin=1.3440  Rmax=1.4514     8
 O  H  Rav=0.9697 sigma=0.0000  Rmin=0.9697  Rmax=0.9697     1
 O  C  Rav=1.2533 sigma=0.0537  Rmin=1.2131  Rmax=1.3293     3
 F  C  Rav=1.3572 sigma=0.0000  Rmin=1.3572  Rmax=1.3572     1

 selected bond angles (degree)
 --------------------
O3-C2-O1=122.24                C4-C2-O1=123.24                C4-C2-O3=114.52                H25-O3-C2=110.14               
C5-C4-C2=116.10                C20-C4-C2=123.14               C20-C4-C5=120.75               N6-C5-C4=124.94                
H26-C5-C4=118.47               H26-C5-N6=116.59               C7-N6-C5=119.40                C22-N6-C5=119.65               
C22-N6-C7=120.92               C8-C7-N6=120.90                C19-C7-N6=119.01               C19-C7-C8=120.09               
C9-C8-C7=122.72                H27-C8-C7=118.30               H27-C8-C9=118.98               N10-C9-C8=122.53               
C16-C9-C8=115.51               C16-C9-N10=121.82              C11-N10-C9=121.28              C15-N10-C9=121.71              
C15-N10-C11=109.89             

 selected dihedral angles (degree)
 ---------------------------------
H25-O3-C2-O1=  1.67           H25-O3-C2-C4=181.11           C5-C4-C2-O1=  9.33            C5-C4-C2-O3=189.89            
C20-C4-C2-O1=190.57           C20-C4-C2-O3= 11.14           N6-C5-C4-C2=180.08            N6-C5-C4-C20=358.87           
H26-C5-C4-C2=  0.49           H26-C5-C4-C20=179.27          C7-N6-C5-C4=356.77            C7-N6-C5-H26=176.37           
C22-N6-C5-C4=178.92           C22-N6-C5-H26=358.52          C8-C7-N6-C5=183.62            C8-C7-N6-C22=  1.44           
C19-C7-N6-C5=  4.12           C19-C7-N6-C22=181.93          C9-C8-C7-N6=180.16            C9-C8-C7-C19=359.66           
H27-C8-C7-N6=359.49           H27-C8-C7-C19=178.98          N10-C9-C8-C7=183.76           N10-C9-C8-H27=  4.44          
C16-C9-C8-C7=359.45           C16-C9-C8-H27=180.13          C11-N10-C9-C8=  8.64          C11-N10-C9-C16=193.21         
C15-N10-C9-C8=221.15          C15-N10-C9-C16= 45.73         
           -------------------------------------------------
          |                Final Singlepoint                |
           -------------------------------------------------

          ...................................................
          :                      SETUP                      :
          :.................................................:
          :  # basis functions                 114          :
          :  # atomic orbitals                 114          :
          :  # shells                           66          :
          :  # electrons                       126          :
          :  max. iterations                   250          :
          :  Hamiltonian                  GFN2-xTB          :
          :  restarted?                      false          :
          :  GBSA solvation                  false          :
          :  PC potential                    false          :
          :  electronic temp.          300.0000000     K    :
          :  accuracy                    1.0000000          :
          :  -> integral cutoff          0.2500000E+02      :
          :  -> integral neglect         0.1000000E-07      :
          :  -> SCF convergence          0.1000000E-05 Eh   :
          :  -> wf. convergence          0.1000000E-03 e    :
          :  Broyden damping             0.4000000          :
          :  net charge                          0          :
          :  unpaired electrons                  0          :
          ...................................................

 iter      E             dE          RMSdq      gap      omega  full diag
   1    -72.2017887 -0.722018E+02  0.103E-04    2.54       0.0  T
   2    -72.2017887 -0.928679E-10  0.762E-05    2.54     202.4  T
   3    -72.2017887 -0.164761E-09  0.369E-05    2.54     418.4  T

   *** convergence criteria satisfied after 3 iterations ***

         #    Occupation            Energy/Eh            Energy/eV
      -------------------------------------------------------------
         1        2.0000           -0.8160026             -22.2046
       ...           ...                  ...                  ...
        57        2.0000           -0.4359860             -11.8638
        58        2.0000           -0.4233700             -11.5205
        59        2.0000           -0.4115787             -11.1996
        60        2.0000           -0.3869741             -10.5301
        61        2.0000           -0.3819633             -10.3937
        62        2.0000           -0.3714546             -10.1078
        63        2.0000           -0.3652163              -9.9380 (HOMO)
        64                         -0.2718610              -7.3977 (LUMO)
        65                         -0.2590663              -7.0496
        66                         -0.2236064              -6.0846
        67                         -0.2018199              -5.4918
        68                         -0.1362841              -3.7085
       ...                                ...                  ...
       114                          0.7155463              19.4710
      -------------------------------------------------------------
                  HL-Gap            0.0933553 Eh            2.5403 eV
             Fermi-level           -0.3185386 Eh           -8.6679 eV

 SCC (total)                   0 d,  0 h,  0 min,  0.041 sec
 SCC setup                      ...        0 min,  0.000 sec (  0.777%)
 Dispersion                     ...        0 min,  0.000 sec (  0.711%)
 classical contributions        ...        0 min,  0.000 sec (  0.340%)
 integral evaluation            ...        0 min,  0.008 sec ( 19.018%)
 iterations                     ...        0 min,  0.006 sec ( 15.729%)
 molecular gradient             ...        0 min,  0.026 sec ( 63.042%)
 printout                       ...        0 min,  0.000 sec (  0.366%)

         :::::::::::::::::::::::::::::::::::::::::::::::::::::
         ::                     SUMMARY                     ::
         :::::::::::::::::::::::::::::::::::::::::::::::::::::
         :: total energy             -71.307150133054 Eh    ::
         :: gradient norm              0.000347038301 Eh/a0 ::
         :: HOMO-LUMO gap              2.540326091186 eV    ::
         ::.................................................::
         :: SCC energy               -72.201412847150 Eh    ::
         :: -> isotropic ES            0.108317811461 Eh    ::
         :: -> anisotropic ES          0.007138479924 Eh    ::
         :: -> anisotropic XC          0.018901853154 Eh    ::
         :: -> dispersion             -0.047037320329 Eh    ::
         :: repulsion energy           0.894262714096 Eh    ::
         :: add. restraining           0.000000000000 Eh    ::
         :: total charge              -0.000000000000 e     ::
         :::::::::::::::::::::::::::::::::::::::::::::::::::::

           -------------------------------------------------
          |                Property Printout                |
           -------------------------------------------------

    * Orbital Energies and Occupations

         #    Occupation            Energy/Eh            Energy/eV
      -------------------------------------------------------------
         1        2.0000           -0.8160026             -22.2046
       ...           ...                  ...                  ...
        51        2.0000           -0.4640877             -12.6285
        52        2.0000           -0.4613486             -12.5539
        53        2.0000           -0.4597248             -12.5097
        54        2.0000           -0.4572899             -12.4435
        55        2.0000           -0.4562537             -12.4153
        56        2.0000           -0.4433488             -12.0641
        57        2.0000           -0.4359860             -11.8638
        58        2.0000           -0.4233700             -11.5205
        59        2.0000           -0.4115787             -11.1996
        60        2.0000           -0.3869741             -10.5301
        61        2.0000           -0.3819633             -10.3937
        62        2.0000           -0.3714546             -10.1078
        63        2.0000           -0.3652163              -9.9380 (HOMO)
        64                         -0.2718610              -7.3977 (LUMO)
        65                         -0.2590663              -7.0496
        66                         -0.2236064              -6.0846
        67                         -0.2018199              -5.4918
        68                         -0.1362841              -3.7085
        69                         -0.0970661              -2.6413
        70                         -0.0760887              -2.0705
        71                         -0.0289051              -0.7865
        72                         -0.0123645              -0.3365
        73                          0.0280186               0.7624
        74                          0.0381884               1.0392
       ...                                ...                  ...
       114                          0.7155463              19.4710
      -------------------------------------------------------------
                  HL-Gap            0.0933553 Eh            2.5403 eV
             Fermi-level           -0.3185386 Eh           -8.6679 eV

     #   Z          covCN         q      C6AA      α(0)
     1   8 O        0.857    -0.454    22.784     6.400
     2   6 C        2.704     0.360    20.895     7.482
     3   8 O        1.660    -0.349    19.886     6.020
     4   6 C        2.956    -0.079    29.971     8.979
     5   6 C        2.883     0.030    27.340     8.572
     6   7 N        2.745    -0.007    21.394     6.870
     7   6 C        2.933     0.050    26.875     8.502
     8   6 C        2.929    -0.092    30.310     9.029
     9   6 C        2.903     0.056    26.734     8.478
    10   7 N        2.738    -0.084    22.883     7.105
    11   6 C        3.768    -0.009    20.780     6.497
    12   6 C        3.749     0.015    20.386     6.439
    13   7 N        2.684    -0.254    26.610     7.661
    14   6 C        3.750     0.014    20.403     6.442
    15   6 C        3.765    -0.010    20.797     6.500
    16   6 C        2.784     0.140    24.943     8.181
    17   9 F        0.787    -0.232    11.569     4.018
    18   6 C        2.922    -0.041    29.018     8.834
    19   6 C        2.983    -0.042    29.040     8.840
    20   6 C        2.830     0.223    23.315     7.912
    21   8 O        0.857    -0.397    21.619     6.234
    22   6 C        3.811     0.029    20.080     6.378
    23   6 C        3.806    -0.067    21.785     6.644
    24   6 C        3.806    -0.070    21.838     6.652
    25   1 H        0.805     0.327     0.645     1.262
    26   1 H        0.925     0.082     1.956     2.187
    27   1 H        0.926     0.046     2.364     2.404
    28   1 H        0.924     0.062     2.180     2.309
    29   1 H        0.925     0.046     2.370     2.407
    30   1 H        0.924     0.036     2.496     2.471
    31   1 H        0.922     0.008     2.926     2.675
    32   1 H        0.860     0.134     1.513     1.927
    33   1 H        0.924     0.041     2.438     2.442
    34   1 H        0.922     0.008     2.917     2.671
    35   1 H        0.924     0.058     2.228     2.334
    36   1 H        0.925     0.072     2.064     2.246
    37   1 H        0.926     0.092     1.861     2.133
    38   1 H        0.925     0.047     2.360     2.403
    39   1 H        0.926     0.052     2.292     2.368
    40   1 H        0.926     0.046     2.365     2.405
    41   1 H        0.926     0.054     2.270     2.356
    42   1 H        0.926     0.060     2.195     2.317

 Mol. C6AA /au·bohr⁶  :      20045.302977
 Mol. C8AA /au·bohr⁸  :     469364.767998
 Mol. α(0) /au        :        215.986059


Wiberg/Mayer (AO) data.
largest (>0.10) Wiberg bond orders for each atom

 ---------------------------------------------------------------------------
     #   Z sym  total        # sym  WBO       # sym  WBO       # sym  WBO
 ---------------------------------------------------------------------------
     1   8 O    1.984 --     2 C    1.684     3 O    0.169
     2   6 C    3.919 --     1 O    1.684     3 O    1.150     4 C    1.029
     3   8 O    2.227 --     2 C    1.150    25 H    0.868     1 O    0.169
     4   6 C    3.970 --     5 C    1.547    20 C    1.079     2 C    1.029
     5   6 C    3.962 --     4 C    1.547     6 N    1.263    26 H    0.951
     6   7 N    3.618 --     5 C    1.263     7 C    1.100    22 C    0.982
     7   6 C    3.962 --     8 C    1.365    19 C    1.302     6 N    1.100
     8   6 C    3.970 --     7 C    1.365     9 C    1.360    27 H    0.957
     9   6 C    3.977 --     8 C    1.360    16 C    1.249    10 N    1.176
    10   7 N    3.397 --     9 C    1.176    11 C    0.999    15 C    0.987
    11   6 C    3.979 --    10 N    0.999    12 C    0.990    29 H    0.968
                            28 H    0.966
    12   6 C    3.987 --    13 N    1.018    11 C    0.990    30 H    0.974
                            31 H    0.963
    13   7 N    3.066 --    12 C    1.018    14 C    1.016    32 H    0.957
    14   6 C    3.985 --    13 N    1.016    15 C    0.990    33 H    0.973
                            34 H    0.965
    15   6 C    3.972 --    14 C    0.990    10 N    0.987    35 H    0.969
                            36 H    0.967
    16   6 C    3.875 --    18 C    1.484     9 C    1.249    17 F    0.945
    17   9 F    1.076 --    16 C    0.945
    18   6 C    3.983 --    16 C    1.484    19 C    1.335    37 H    0.957
    19   6 C    3.977 --    18 C    1.335     7 C    1.302    20 C    1.054
    20   6 C    3.954 --    21 O    1.715     4 C    1.079    19 C    1.054
    21   8 O    2.024 --    20 C    1.715
    22   6 C    3.920 --     6 N    0.982    24 C    0.974    23 C    0.962
                            38 H    0.959
    23   6 C    3.940 --    24 C    0.984    40 H    0.979    39 H    0.979
                            22 C    0.962
    24   6 C    3.943 --    23 C    0.984    41 H    0.979    42 H    0.975
                            22 C    0.974
    25   1 H    0.892 --     3 O    0.868
    26   1 H    0.993 --     5 C    0.951
    27   1 H    0.997 --     8 C    0.957
    28   1 H    0.994 --    11 C    0.966
    29   1 H    0.998 --    11 C    0.968
    30   1 H    0.998 --    12 C    0.974
    31   1 H    1.000 --    12 C    0.963
    32   1 H    0.981 --    13 N    0.957
    33   1 H    0.998 --    14 C    0.973
    34   1 H    1.000 --    14 C    0.965
    35   1 H    0.996 --    15 C    0.969
    36   1 H    0.995 --    15 C    0.967
    37   1 H    0.990 --    18 C    0.957
    38   1 H    0.995 --    22 C    0.959
    39   1 H    0.997 --    23 C    0.979
    40   1 H    0.997 --    23 C    0.979
    41   1 H    0.997 --    24 C    0.979
    42   1 H    0.996 --    24 C    0.975
 ---------------------------------------------------------------------------

Topologies differ in total number of bonds
Writing topology from bond orders to xtbtopo.mol

molecular dipole:
                 x           y           z       tot (Debye)
 q only:        2.432      -2.372      -0.518
   full:        2.147      -2.807      -0.326       9.020
molecular quadrupole (traceless):
                xx          xy          yy          xz          yz          zz
 q only:       -8.063       5.802      -2.332       3.632      -0.599      10.395
  q+dip:       -8.170       3.341      -4.940       5.768       0.200      13.110
   full:      -10.315       3.417      -5.919       7.064      -1.174      16.234

           -------------------------------------------------
          |                Geometry Summary                 |
           -------------------------------------------------

      molecular mass/u    :      331.3421713
   center of mass at/Å    :       -0.6232190       0.5211577      -0.0363069
  moments of inertia/u·Å² :        0.1149586E+04   0.3468559E+04   0.4431299E+04
rotational constants/cm⁻¹ :        0.1466408E-01   0.4860125E-02   0.3804219E-02

 * 41 selected distances

     #   Z          #   Z                                           value/Å
     1   8 O        2   6 C                                       1.2130811
     2   6 C        3   8 O                                       1.3292642
     4   6 C        5   6 C                                       1.3620958
     5   6 C        6   7 N                                       1.3439509
     6   7 N        7   6 C                                       1.3877002
     7   6 C        8   6 C                                       1.3932403
     8   6 C        9   6 C                                       1.3978337
     9   6 C       10   7 N                                       1.3730124
    10   7 N       11   6 C                                       1.4462896
    11   6 C       12   6 C                                       1.5329917
    12   6 C       13   7 N                                       1.4505424
    13   7 N       14   6 C                                       1.4514152
    10   7 N       15   6 C                                       1.4505719
    14   6 C       15   6 C                                       1.5336238 (max)
     9   6 C       16   6 C                                       1.4141117
    16   6 C       18   6 C                                       1.3667569
     7   6 C       19   6 C                                       1.4024437
    18   6 C       19   6 C                                       1.3970331
    20   6 C       21   8 O                                       1.2176655
     6   7 N       22   6 C                                       1.4333681
    22   6 C       23   6 C                                       1.5032752
    22   6 C       24   6 C                                       1.4985868
    23   6 C       24   6 C                                       1.4964633
     3   8 O       25   1 H                                       0.9697009 (min)
     5   6 C       26   1 H                                       1.0818755
     8   6 C       27   1 H                                       1.0751149
    11   6 C       28   1 H                                       1.0945496
    11   6 C       29   1 H                                       1.0892940
    12   6 C       30   1 H                                       1.0919619
    12   6 C       31   1 H                                       1.1055388
    13   7 N       32   1 H                                       1.0145143
    14   6 C       33   1 H                                       1.0912062
    14   6 C       34   1 H                                       1.1060528
    15   6 C       35   1 H                                       1.0935992
    15   6 C       36   1 H                                       1.0852937
    18   6 C       37   1 H                                       1.0790400
    22   6 C       38   1 H                                       1.0865999
    23   6 C       39   1 H                                       1.0793013
    23   6 C       40   1 H                                       1.0795237
    24   6 C       41   1 H                                       1.0787367
    24   6 C       42   1 H                                       1.0786480

 * 6 distinct bonds (by element types)

   Z      Z             #   av. dist./Å        max./Å        min./Å
   1 H    6 C          16     1.0872710     1.1060528     1.0751149
   6 C    6 C          12     1.4415380     1.5336238     1.3620958
   1 H    7 N           1     1.0145143     1.0145143     1.0145143
   6 C    7 N           8     1.4171064     1.4514152     1.3439509
   1 H    8 O           1     0.9697009     0.9697009     0.9697009
   6 C    8 O           3     1.2533369     1.3292642     1.2130811


optimized geometry written to: xtbopt.xyz


           -------------------------------------------------
          | TOTAL ENERGY              -71.307150133054 Eh   |
          | GRADIENT NORM               0.000347038301 Eh/α |
          | HOMO-LUMO GAP               2.540326091186 eV   |
           -------------------------------------------------

------------------------------------------------------------------------
 * finished run on 2025/05/15 at 16:11:42.540     
------------------------------------------------------------------------
 total:
 * wall-time:     0 d,  0 h,  0 min,  2.007 sec
 *  cpu-time:     0 d,  0 h,  0 min,  1.202 sec
 * ratio c/w:     0.599 speedup
 SCF:
 * wall-time:     0 d,  0 h,  0 min,  0.108 sec
 *  cpu-time:     0 d,  0 h,  0 min,  0.062 sec
 * ratio c/w:     0.579 speedup
 ANC optimizer:
 * wall-time:     0 d,  0 h,  0 min,  1.842 sec
 *  cpu-time:     0 d,  0 h,  0 min,  1.126 sec
 * ratio c/w:     0.611 speedup



----- Single-point -----
      -----------------------------------------------------------      
     |                   =====================                   |     
     |                           x T B                           |     
     |                   =====================                   |     
     |                         S. Grimme                         |     
     |          Mulliken Center for Theoretical Chemistry        |     
     |                    University of Bonn                     |     
      -----------------------------------------------------------      

   * xtb version 6.7.1 (edcfbbe) compiled by 'conda@3ef47c1a292c' on 2024-11-25

   xtb is free software: you can redistribute it and/or modify it under
   the terms of the GNU Lesser General Public License as published by
   the Free Software Foundation, either version 3 of the License, or
   (at your option) any later version.
   
   xtb is distributed in the hope that it will be useful,
   but WITHOUT ANY WARRANTY; without even the implied warranty of
   MERCHANTABILITY or FITNESS FOR A PARTICULAR PURPOSE.  See the
   GNU Lesser General Public License for more details.
   
   Cite this work as:
   * C. Bannwarth, E. Caldeweyher, S. Ehlert, A. Hansen, P. Pracht,
     J. Seibert, S. Spicher, S. Grimme, WIREs Comput. Mol. Sci., 2020, 11,
     e01493. DOI: 10.1002/wcms.1493
   
   for GFN2-xTB:
   * C. Bannwarth, S. Ehlert and S. Grimme., J. Chem. Theory Comput., 2019,
     15, 1652-1671. DOI: 10.1021/acs.jctc.8b01176
   for GFN1-xTB:
   * S. Grimme, C. Bannwarth, P. Shushkov, J. Chem. Theory Comput., 2017,
     13, 1989-2009. DOI: 10.1021/acs.jctc.7b00118
   for GFN0-xTB:
   * P. Pracht, E. Caldeweyher, S. Ehlert, S. Grimme, ChemRxiv, 2019, preprint.
     DOI: 10.26434/chemrxiv.8326202.v1
   for GFN-FF:
   * S. Spicher and S. Grimme, Angew. Chem. Int. Ed., 2020, 59, 15665-15673.
     DOI: 10.1002/anie.202004239
   
   for ALPB and GBSA implicit solvation:
   * S. Ehlert, M. Stahn, S. Spicher, S. Grimme, J. Chem. Theory Comput.,
     2021, 17, 4250-4261. DOI: 10.1021/acs.jctc.1c00471
   
   for ddCOSMO and CPCM-X implicit solvation:
   * M. Stahn, S. Ehlert, S. Grimme, J. Phys. Chem. A,
     2023, XX, XXXX-XXXX. DOI: 10.1021/acs.jpca.3c04382
   
   for DFT-D4:
   * E. Caldeweyher, C. Bannwarth and S. Grimme, J. Chem. Phys., 2017,
     147, 034112. DOI: 10.1063/1.4993215
   * E. Caldeweyher, S. Ehlert, A. Hansen, H. Neugebauer, S. Spicher,
     C. Bannwarth and S. Grimme, J. Chem. Phys., 2019, 150, 154122.
     DOI: 10.1063/1.5090222
   * E. Caldeweyher, J.-M. Mewes, S. Ehlert and S. Grimme, Phys. Chem. Chem. Phys.
     2020, 22, 8499-8512. DOI: 10.1039/D0CP00502A
   
   for sTDA-xTB:
   * S. Grimme and C. Bannwarth, J. Chem. Phys., 2016, 145, 054103.
     DOI: 10.1063/1.4959605
   
   in the mass-spec context:
   * V. Asgeirsson, C. Bauer and S. Grimme, Chem. Sci., 2017, 8, 4879.
     DOI: 10.1039/c7sc00601b
   * J. Koopman and S. Grimme, ACS Omega 2019, 4, 12, 15120-15133.
     DOI: 10.1021/acsomega.9b02011
   
   for metadynamics refer to:
   * S. Grimme, J. Chem. Theory Comput., 2019, 155, 2847-2862
     DOI: 10.1021/acs.jctc.9b00143
   
   for SPH calculations refer to:
   * S. Spicher and S. Grimme, J. Chem. Theory Comput., 2021, 17, 1701-1714
     DOI: 10.1021/acs.jctc.0c01306
   
   for ONIOM refer to:
   * C. Plett, A. Katbashev, S. Ehlert, S. Grimme, M. Bursch,
     Phys. Chem. Chem. Phys., 2023, 25, 17860-17868. DOI: 10.1039/D3CP02178E
   
   for DIPRO refer to:
   * J. Kohn, N. Gildemeister, S. Grimme, D. Fazzi, A. Hansen,
     J. Chem. Phys., 2023, just accepted.
   
   for PTB refer to:
   * S. Grimme, M. Mueller, A. Hansen, J. Chem. Phys., 2023, 158, 124111.
     DOI: 10.1063/5.0137838
   
   with help from (in alphabetical order)
   P. Atkinson, C. Bannwarth, F. Bohle, G. Brandenburg, E. Caldeweyher
   M. Checinski, S. Dohm, S. Ehlert, S. Ehrlich, I. Gerasimov, C. Hölzer
   A. Katbashev, J. Kohn, J. Koopman, C. Lavigne, S. Lehtola, F. März, M. Müller,
   F. Musil, H. Neugebauer, J. Pisarek, C. Plett, P. Pracht, F. Pultar,
   J. Seibert, P. Shushkov, S. Spicher, M. Stahn, M. Steiner, T. Strunk,
   J. Stückrath, T. Rose, and J. Unsleber
   
 * started run on 2025/05/15 at 16:11:42.560     
   ID    Z sym.   atoms
    1    8 O      1, 3, 21
    2    6 C      2, 4, 5, 7-9, 11, 12, 14-16, 18-20, 22-24
    3    7 N      6, 10, 13
    4    9 F      17
    5    1 H      25-42

           -------------------------------------------------
          |                Calculation Setup                |
           -------------------------------------------------

          program call               : xtb /rds/general/user/hgt20/home/callum/QDESCP/Ciprofloxacin_rdkit_conf_20/Ciprofloxacin_rdkit_conf_20.xyz --acc 1 --gfn 2 --chrg 0 --uhf 0 --etemp 300 --input /rds/general/user/hgt20/home/callum/QDESCP/Ciprofloxacin_rdkit_conf_20/Ciprofloxacin_rdkit_conf_20_xtb.inp -P 1
          hostname                   : login-c
          coordinate file            : /rds/general/user/hgt20/home/callum/QDESCP/Ciprofloxacin_rdkit_conf_20/Ciprofloxacin_rdkit_conf_20.xyz
          omp threads                :                     1


           -------------------------------------------------
          |                 G F N 2 - x T B                 |
           -------------------------------------------------

        Reference                      10.1021/acs.jctc.8b01176
      * Hamiltonian:
        H0-scaling (s, p, d)           1.850000    2.230000    2.230000
        zeta-weighting                 0.500000
      * Dispersion:
        s8                             2.700000
        a1                             0.520000
        a2                             5.000000
        s9                             5.000000
      * Repulsion:
        kExp                           1.500000    1.000000
        rExp                           1.000000
      * Coulomb:
        alpha                          2.000000
        third order                    shell-resolved
        anisotropic                    true
        a3                             3.000000
        a5                             4.000000
        cn-shift                       1.200000
        cn-exp                         4.000000
        max-rad                        5.000000

q/qsh data taken from xtbrestart
CAMM data taken from xtbrestart

          ...................................................
          :                      SETUP                      :
          :.................................................:
          :  # basis functions                 114          :
          :  # atomic orbitals                 114          :
          :  # shells                           66          :
          :  # electrons                       126          :
          :  max. iterations                   250          :
          :  Hamiltonian                  GFN2-xTB          :
          :  restarted?                       true          :
          :  GBSA solvation                  false          :
          :  PC potential                    false          :
          :  electronic temp.          300.0000000     K    :
          :  accuracy                    1.0000000          :
          :  -> integral cutoff          0.2500000E+02      :
          :  -> integral neglect         0.1000000E-07      :
          :  -> SCF convergence          0.1000000E-05 Eh   :
          :  -> wf. convergence          0.1000000E-03 e    :
          :  Broyden damping             0.4000000          :
          :  net charge                          0          :
          :  unpaired electrons                  0          :
          ...................................................

 iter      E             dE          RMSdq      gap      omega  full diag
   1    -72.2017887 -0.722018E+02  0.893E-06    2.54       0.0  T
   2    -72.2017887 -0.483169E-12  0.550E-06    2.54    2808.0  T
   3    -72.2017887  0.852651E-13  0.345E-06    2.54    4469.6  T

   *** convergence criteria satisfied after 3 iterations ***

         #    Occupation            Energy/Eh            Energy/eV
      -------------------------------------------------------------
         1        2.0000           -0.8160026             -22.2046
       ...           ...                  ...                  ...
        57        2.0000           -0.4359859             -11.8638
        58        2.0000           -0.4233699             -11.5205
        59        2.0000           -0.4115785             -11.1996
        60        2.0000           -0.3869740             -10.5301
        61        2.0000           -0.3819633             -10.3938
        62        2.0000           -0.3714546             -10.1078
        63        2.0000           -0.3652163              -9.9380 (HOMO)
        64                         -0.2718608              -7.3977 (LUMO)
        65                         -0.2590663              -7.0496
        66                         -0.2236062              -6.0846
        67                         -0.2018199              -5.4918
        68                         -0.1362840              -3.7085
       ...                                ...                  ...
       114                          0.7155463              19.4710
      -------------------------------------------------------------
                  HL-Gap            0.0933554 Eh            2.5403 eV
             Fermi-level           -0.3185386 Eh           -8.6679 eV

 SCC (total)                   0 d,  0 h,  0 min,  0.044 sec
 SCC setup                      ...        0 min,  0.000 sec (  0.926%)
 Dispersion                     ...        0 min,  0.001 sec (  1.145%)
 classical contributions        ...        0 min,  0.000 sec (  0.337%)
 integral evaluation            ...        0 min,  0.008 sec ( 19.063%)
 iterations                     ...        0 min,  0.008 sec ( 17.844%)
 molecular gradient             ...        0 min,  0.026 sec ( 60.178%)
 printout                       ...        0 min,  0.000 sec (  0.490%)

         :::::::::::::::::::::::::::::::::::::::::::::::::::::
         ::                     SUMMARY                     ::
         :::::::::::::::::::::::::::::::::::::::::::::::::::::
         :: total energy             -71.307150133061 Eh    ::
         :: gradient norm              0.000346700472 Eh/a0 ::
         :: HOMO-LUMO gap              2.540330311288 eV    ::
         ::.................................................::
         :: SCC energy               -72.201412847157 Eh    ::
         :: -> isotropic ES            0.108317710818 Eh    ::
         :: -> anisotropic ES          0.007138481211 Eh    ::
         :: -> anisotropic XC          0.018901831076 Eh    ::
         :: -> dispersion             -0.047037323221 Eh    ::
         :: repulsion energy           0.894262714096 Eh    ::
         :: add. restraining           0.000000000000 Eh    ::
         :: total charge               0.000000000000 e     ::
         :::::::::::::::::::::::::::::::::::::::::::::::::::::

           -------------------------------------------------
          |                Property Printout                |
           -------------------------------------------------

    * Orbital Energies and Occupations

         #    Occupation            Energy/Eh            Energy/eV
      -------------------------------------------------------------
         1        2.0000           -0.8160026             -22.2046
       ...           ...                  ...                  ...
        51        2.0000           -0.4640876             -12.6285
        52        2.0000           -0.4613486             -12.5539
        53        2.0000           -0.4597247             -12.5097
        54        2.0000           -0.4572898             -12.4435
        55        2.0000           -0.4562535             -12.4153
        56        2.0000           -0.4433487             -12.0641
        57        2.0000           -0.4359859             -11.8638
        58        2.0000           -0.4233699             -11.5205
        59        2.0000           -0.4115785             -11.1996
        60        2.0000           -0.3869740             -10.5301
        61        2.0000           -0.3819633             -10.3938
        62        2.0000           -0.3714546             -10.1078
        63        2.0000           -0.3652163              -9.9380 (HOMO)
        64                         -0.2718608              -7.3977 (LUMO)
        65                         -0.2590663              -7.0496
        66                         -0.2236062              -6.0846
        67                         -0.2018199              -5.4918
        68                         -0.1362840              -3.7085
        69                         -0.0970660              -2.6413
        70                         -0.0760886              -2.0705
        71                         -0.0289049              -0.7865
        72                         -0.0123644              -0.3365
        73                          0.0280185               0.7624
        74                          0.0381885               1.0392
       ...                                ...                  ...
       114                          0.7155463              19.4710
      -------------------------------------------------------------
                  HL-Gap            0.0933554 Eh            2.5403 eV
             Fermi-level           -0.3185386 Eh           -8.6679 eV

     #   Z          covCN         q      C6AA      α(0)
     1   8 O        0.857    -0.454    22.784     6.400
     2   6 C        2.704     0.360    20.895     7.482
[...]
   
   for ALPB and GBSA implicit solvation:
   * S. Ehlert, M. Stahn, S. Spicher, S. Grimme, J. Chem. Theory Comput.,
     2021, 17, 4250-4261. DOI: 10.1021/acs.jctc.1c00471
   
   for ddCOSMO and CPCM-X implicit solvation:
   * M. Stahn, S. Ehlert, S. Grimme, J. Phys. Chem. A,
     2023, XX, XXXX-XXXX. DOI: 10.1021/acs.jpca.3c04382
   
   for DFT-D4:
   * E. Caldeweyher, C. Bannwarth and S. Grimme, J. Chem. Phys., 2017,
     147, 034112. DOI: 10.1063/1.4993215
   * E. Caldeweyher, S. Ehlert, A. Hansen, H. Neugebauer, S. Spicher,
     C. Bannwarth and S. Grimme, J. Chem. Phys., 2019, 150, 154122.
     DOI: 10.1063/1.5090222
   * E. Caldeweyher, J.-M. Mewes, S. Ehlert and S. Grimme, Phys. Chem. Chem. Phys.
     2020, 22, 8499-8512. DOI: 10.1039/D0CP00502A
   
   for sTDA-xTB:
   * S. Grimme and C. Bannwarth, J. Chem. Phys., 2016, 145, 054103.
     DOI: 10.1063/1.4959605
   
   in the mass-spec context:
   * V. Asgeirsson, C. Bauer and S. Grimme, Chem. Sci., 2017, 8, 4879.
     DOI: 10.1039/c7sc00601b
   * J. Koopman and S. Grimme, ACS Omega 2019, 4, 12, 15120-15133.
     DOI: 10.1021/acsomega.9b02011
   
   for metadynamics refer to:
   * S. Grimme, J. Chem. Theory Comput., 2019, 155, 2847-2862
     DOI: 10.1021/acs.jctc.9b00143
   
   for SPH calculations refer to:
   * S. Spicher and S. Grimme, J. Chem. Theory Comput., 2021, 17, 1701-1714
     DOI: 10.1021/acs.jctc.0c01306
   
   for ONIOM refer to:
   * C. Plett, A. Katbashev, S. Ehlert, S. Grimme, M. Bursch,
     Phys. Chem. Chem. Phys., 2023, 25, 17860-17868. DOI: 10.1039/D3CP02178E
   
   for DIPRO refer to:
   * J. Kohn, N. Gildemeister, S. Grimme, D. Fazzi, A. Hansen,
     J. Chem. Phys., 2023, just accepted.
   
   for PTB refer to:
   * S. Grimme, M. Mueller, A. Hansen, J. Chem. Phys., 2023, 158, 124111.
     DOI: 10.1063/5.0137838
   
   with help from (in alphabetical order)
   P. Atkinson, C. Bannwarth, F. Bohle, G. Brandenburg, E. Caldeweyher
   M. Checinski, S. Dohm, S. Ehlert, S. Ehrlich, I. Gerasimov, C. Hölzer
   A. Katbashev, J. Kohn, J. Koopman, C. Lavigne, S. Lehtola, F. März, M. Müller,
   F. Musil, H. Neugebauer, J. Pisarek, C. Plett, P. Pracht, F. Pultar,
   J. Seibert, P. Shushkov, S. Spicher, M. Stahn, M. Steiner, T. Strunk,
   J. Stückrath, T. Rose, and J. Unsleber
   
 * started run on 2025/05/15 at 16:11:44.903     
   ID    Z sym.   atoms
    1    8 O      1, 3, 21
    2    6 C      2, 4, 5, 7-9, 11, 12, 14-16, 18-20, 22-24
    3    7 N      6, 10, 13
    4    9 F      17
    5    1 H      25-42

           -------------------------------------------------
          |                Calculation Setup                |
           -------------------------------------------------

          program call               : xtb /rds/general/user/hgt20/home/callum/QDESCP/Ciprofloxacin_rdkit_conf_20/Ciprofloxacin_rdkit_conf_20.xyz --acc 1 --gfn 2 --chrg 0 --uhf 2 --etemp 300 --input /rds/general/user/hgt20/home/callum/QDESCP/Ciprofloxacin_rdkit_conf_20/Ciprofloxacin_rdkit_conf_20_xtb.inp -P 1
          hostname                   : login-c
          coordinate file            : /rds/general/user/hgt20/home/callum/QDESCP/Ciprofloxacin_rdkit_conf_20/Ciprofloxacin_rdkit_conf_20.xyz
          omp threads                :                     1


           -------------------------------------------------
          |                 G F N 2 - x T B                 |
           -------------------------------------------------

        Reference                      10.1021/acs.jctc.8b01176
      * Hamiltonian:
        H0-scaling (s, p, d)           1.850000    2.230000    2.230000
        zeta-weighting                 0.500000
      * Dispersion:
        s8                             2.700000
        a1                             0.520000
        a2                             5.000000
        s9                             5.000000
      * Repulsion:
        kExp                           1.500000    1.000000
        rExp                           1.000000
      * Coulomb:
        alpha                          2.000000
        third order                    shell-resolved
        anisotropic                    true
        a3                             3.000000
        a5                             4.000000
        cn-shift                       1.200000
        cn-exp                         4.000000
        max-rad                        5.000000


          ...................................................
          :                      SETUP                      :
          :.................................................:
          :  # basis functions                 114          :
          :  # atomic orbitals                 114          :
          :  # shells                           66          :
          :  # electrons                       126          :
          :  max. iterations                   250          :
          :  Hamiltonian                  GFN2-xTB          :
          :  restarted?                      false          :
          :  GBSA solvation                  false          :
          :  PC potential                    false          :
          :  electronic temp.          300.0000000     K    :
          :  accuracy                    1.0000000          :
          :  -> integral cutoff          0.2500000E+02      :
          :  -> integral neglect         0.1000000E-07      :
          :  -> SCF convergence          0.1000000E-05 Eh   :
          :  -> wf. convergence          0.1000000E-03 e    :
          :  Broyden damping             0.4000000          :
          :  net charge                          0          :
          :  unpaired electrons                  2          :
          ...................................................

 iter      E             dE          RMSdq      gap      omega  full diag
   1    -71.8172237 -0.718172E+02  0.400E+00    0.20       0.0  T
   2    -71.8199865 -0.276278E-02  0.306E+00    0.10       1.0  T
   3    -71.9269034 -0.106917E+00  0.228E+00    0.56       1.0  T
   4    -71.9712664 -0.443630E-01  0.142E+00    0.28       1.0  T
   5    -71.9588712  0.123952E-01  0.139E+00    0.32       1.0  T
   6    -72.0701876 -0.111316E+00  0.570E-01    0.23       1.0  T
   7    -72.0542070  0.159806E-01  0.696E-01    0.16       1.0  T
   8    -72.0795834 -0.253764E-01  0.506E-01    0.12       1.0  T
   9    -72.0875717 -0.798832E-02  0.318E-01    0.14       1.0  T
  10    -72.0938564 -0.628472E-02  0.113E-01    0.14       1.0  T
  11    -72.0944707 -0.614313E-03  0.609E-02    0.13       1.0  T
  12    -72.0946110 -0.140272E-03  0.391E-02    0.13       1.0  T
  13    -72.0946655 -0.544532E-04  0.257E-02    0.13       1.0  T
  14    -72.0946846 -0.190911E-04  0.217E-02    0.13       1.0  T
  15    -72.0947154 -0.308414E-04  0.939E-03    0.13       1.6  T
  16    -72.0947216 -0.618750E-05  0.198E-03    0.13       7.8  T
  17    -72.0947219 -0.359226E-06  0.245E-04    0.13      63.0  T
  18    -72.0947218  0.963944E-07  0.110E-03    0.13      14.1  T
  19    -72.0947219 -0.903274E-07  0.290E-04    0.13      53.2  T

   *** convergence criteria satisfied after 19 iterations ***

         #    Occupation            Energy/Eh            Energy/eV
      -------------------------------------------------------------
         1        2.0000           -0.8154896             -22.1906
       ...           ...                  ...                  ...
        58        2.0000           -0.4137274             -11.2581
        59        2.0000           -0.4047518             -11.0139
        60        2.0000           -0.3974605             -10.8154
        61        1.9730           -0.3771970             -10.2641
        62        1.6778           -0.3744972             -10.1906
        63        1.3492           -0.3731992             -10.1553
        64        0.9251           -0.2574823              -7.0065 (HOMO)
        65        0.0749           -0.2527061              -6.8765 (LUMO)
        66                         -0.2117581              -5.7622
        67                         -0.1959392              -5.3318
        68                         -0.1266656              -3.4467
        69                         -0.0871833              -2.3724
       ...                                ...                  ...
       114                          0.7220375              19.6476
      -------------------------------------------------------------
                  HL-Gap            0.0047763 Eh            0.1300 eV
             Fermi-level           -0.3144424 Eh           -8.5564 eV

 transition dipole moment (au) for excitation:          63          64
     X       Y       Z   
   1.2462  -0.3354  -0.1926  total (au/Debye):    1.305   3.317
 dE (eV)             :    3.149
 oscillator strength :  0.18575E+00

 SCC (total)                   0 d,  0 h,  0 min,  0.136 sec
 SCC setup                      ...        0 min,  0.000 sec (  0.264%)
 Dispersion                     ...        0 min,  0.000 sec (  0.337%)
 classical contributions        ...        0 min,  0.000 sec (  0.112%)
 integral evaluation            ...        0 min,  0.008 sec (  6.005%)
 iterations                     ...        0 min,  0.093 sec ( 68.228%)
 molecular gradient             ...        0 min,  0.027 sec ( 19.551%)
 printout                       ...        0 min,  0.007 sec (  5.495%)

         :::::::::::::::::::::::::::::::::::::::::::::::::::::
         ::                     SUMMARY                     ::
         :::::::::::::::::::::::::::::::::::::::::::::::::::::
         :: total energy             -71.200083400135 Eh    ::
         :: gradient norm              0.085924692951 Eh/a0 ::
         :: HOMO-LUMO gap              0.129968509062 eV    ::
         ::.................................................::
         :: SCC energy               -72.094346114232 Eh    ::
         :: -> isotropic ES            0.101730166714 Eh    ::
         :: -> anisotropic ES          0.006091125810 Eh    ::
         :: -> anisotropic XC          0.017068757553 Eh    ::
         :: -> dispersion             -0.047021613498 Eh    ::
         :: repulsion energy           0.894262714096 Eh    ::
         :: add. restraining           0.000000000000 Eh    ::
         :: total charge               0.000000000211 e     ::
         :::::::::::::::::::::::::::::::::::::::::::::::::::::

           -------------------------------------------------
          |                Property Printout                |
           -------------------------------------------------

    * Orbital Energies and Occupations

         #    Occupation            Energy/Eh            Energy/eV
      -------------------------------------------------------------
         1        2.0000           -0.8154896             -22.1906
       ...           ...                  ...                  ...
        52        2.0000           -0.4586795             -12.4813
        53        2.0000           -0.4538897             -12.3510
        54        2.0000           -0.4508442             -12.2681
        55        2.0000           -0.4472857             -12.1713
        56        2.0000           -0.4393684             -11.9558
        57        2.0000           -0.4328865             -11.7794
        58        2.0000           -0.4137274             -11.2581
        59        2.0000           -0.4047518             -11.0139
        60        2.0000           -0.3974605             -10.8154
        61        1.9730           -0.3771970             -10.2641
        62        1.6778           -0.3744972             -10.1906
        63        1.3492           -0.3731992             -10.1553
        64        0.9251           -0.2574823              -7.0065 (HOMO)
        65        0.0749           -0.2527061              -6.8765 (LUMO)
        66                         -0.2117581              -5.7622
        67                         -0.1959392              -5.3318
        68                         -0.1266656              -3.4467
        69                         -0.0871833              -2.3724
        70                         -0.0673682              -1.8332
        71                         -0.0249030              -0.6776
        72                         -0.0129003              -0.3510
        73                          0.0155514               0.4232
        74                          0.0420102               1.1432
        75                          0.0461183               1.2549
       ...                                ...                  ...
       114                          0.7220375              19.6476
      -------------------------------------------------------------
                  HL-Gap            0.0047763 Eh            0.1300 eV
             Fermi-level           -0.3144424 Eh           -8.5564 eV

     #   Z          covCN         q      C6AA      α(0)
     1   8 O        0.857    -0.450    22.713     6.390
     2   6 C        2.704     0.357    20.948     7.491
     3   8 O        1.660    -0.359    20.071     6.048
     4   6 C        2.956    -0.070    29.754     8.947
     5   6 C        2.883    -0.009    28.231     8.711
     6   7 N        2.745    -0.021    21.658     6.912
     7   6 C        2.933     0.053    26.807     8.491
     8   6 C        2.929    -0.105    30.659     9.081
     9   6 C        2.903     0.033    27.257     8.560
    10   7 N        2.738    -0.052    22.239     7.004
    11   6 C        3.768    -0.011    20.814     6.502
    12   6 C        3.749     0.013    20.423     6.445
    13   7 N        2.684    -0.240    26.268     7.612
    14   6 C        3.750     0.012    20.434     6.447
    15   6 C        3.765    -0.013    20.850     6.508
    16   6 C        2.784     0.142    24.900     8.173
    17   9 F        0.787    -0.232    11.567     4.018
    18   6 C        2.922    -0.072    29.794     8.951
    19   6 C        2.983    -0.015    28.374     8.738
    20   6 C        2.830     0.196    23.823     7.998
    21   8 O        0.857    -0.351    20.721     6.103
    22   6 C        3.811     0.032    20.035     6.371
    23   6 C        3.806    -0.068    21.799     6.647
    24   6 C        3.806    -0.069    21.824     6.650
    25   1 H        0.805     0.326     0.648     1.264
    26   1 H        0.925     0.070     2.081     2.256
    27   1 H        0.926     0.038     2.482     2.464
    28   1 H        0.924     0.067     2.115     2.274
    29   1 H        0.925     0.058     2.222     2.331
    30   1 H        0.924     0.044     2.396     2.420
    31   1 H        0.922     0.021     2.716     2.577
    32   1 H        0.860     0.144     1.443     1.882
    33   1 H        0.924     0.048     2.348     2.396
    34   1 H        0.922     0.021     2.726     2.582
    35   1 H        0.924     0.064     2.149     2.292
    36   1 H        0.925     0.081     1.970     2.195
    37   1 H        0.926     0.076     2.019     2.222
    38   1 H        0.925     0.041     2.431     2.438
    39   1 H        0.926     0.049     2.329     2.386
    40   1 H        0.926     0.041     2.441     2.443
    41   1 H        0.926     0.050     2.315     2.379
    42   1 H        0.926     0.061     2.193     2.316

 Mol. C6AA /au·bohr⁶  :      20025.937103
 Mol. C8AA /au·bohr⁸  :     469360.777192
 Mol. α(0) /au        :        215.916233


Wiberg/Mayer (AO) data.
largest (>0.10) Wiberg bond orders for each atom

 ---------------------------------------------------------------------------
     #   Z sym  total        # sym  WBO       # sym  WBO       # sym  WBO
 ---------------------------------------------------------------------------
     1   8 O    1.960 --     2 C    1.660     3 O    0.158
     2   6 C    3.891 --     1 O    1.660     3 O    1.136     4 C    1.035
     3   8 O    2.205 --     2 C    1.136    25 H    0.868     1 O    0.158
     4   6 C    3.859 --     5 C    1.451    20 C    1.077     2 C    1.035
     5   6 C    3.858 --     4 C    1.451     6 N    1.187    26 H    0.948
     6   7 N    3.552 --     5 C    1.187     7 C    1.115    22 C    0.988
     7   6 C    3.939 --     8 C    1.377    19 C    1.266     6 N    1.115
     8   6 C    3.877 --     7 C    1.377     9 C    1.254    27 H    0.956
     9   6 C    3.902 --    16 C    1.277     8 C    1.254    10 N    1.149
    10   7 N    3.307 --     9 C    1.149    11 C    1.006    15 C    0.996
    11   6 C    3.971 --    10 N    1.006    12 C    0.978    29 H    0.967
                            28 H    0.962
    12   6 C    3.971 --    13 N    1.021    11 C    0.978    30 H    0.973
                            31 H    0.960
    13   7 N    3.075 --    12 C    1.021    14 C    1.020    32 H    0.951
    14   6 C    3.967 --    13 N    1.020    15 C    0.976    33 H    0.972
                            34 H    0.963
    15   6 C    3.960 --    10 N    0.996    14 C    0.976    36 H    0.965
                            35 H    0.964
    16   6 C    3.796 --    18 C    1.393     9 C    1.277    17 F    0.945
    17   9 F    1.069 --    16 C    0.945
    18   6 C    3.920 --    16 C    1.393    19 C    1.292    37 H    0.960
    19   6 C    3.831 --    18 C    1.292     7 C    1.266    20 C    1.040
    20   6 C    3.879 --    21 O    1.565     4 C    1.077    19 C    1.040
    21   8 O    1.873 --    20 C    1.565
    22   6 C    3.924 --     6 N    0.988    24 C    0.975    23 C    0.960
                            38 H    0.959
    23   6 C    3.938 --    24 C    0.983    40 H    0.980    39 H    0.979
                            22 C    0.960
    24   6 C    3.943 --    23 C    0.983    41 H    0.980    42 H    0.975
                            22 C    0.975
    25   1 H    0.892 --     3 O    0.868
    26   1 H    0.987 --     5 C    0.948
    27   1 H    0.997 --     8 C    0.956
    28   1 H    0.988 --    11 C    0.962
    29   1 H    0.996 --    11 C    0.967
    30   1 H    0.997 --    12 C    0.973
    31   1 H    0.995 --    12 C    0.960
    32   1 H    0.974 --    13 N    0.951
    33   1 H    0.997 --    14 C    0.972
    34   1 H    0.996 --    14 C    0.963
    35   1 H    0.989 --    15 C    0.964
    36   1 H    0.993 --    15 C    0.965
    37   1 H    0.993 --    18 C    0.960
    38   1 H    0.995 --    22 C    0.959
    39   1 H    0.998 --    23 C    0.979
    40   1 H    0.998 --    23 C    0.980
    41   1 H    0.997 --    24 C    0.980
    42   1 H    0.996 --    24 C    0.975
 ---------------------------------------------------------------------------

Topologies differ in total number of bonds
Writing topology from bond orders to xtbtopo.mol

molecular dipole:
                 x           y           z       tot (Debye)
 q only:        3.424      -2.270      -0.369
   full:        3.175      -2.627      -0.176      10.484
molecular quadrupole (traceless):
                xx          xy          yy          xz          yz          zz
 q only:       -4.989       3.893      -4.494       3.496      -0.642       9.483
  q+dip:       -4.685       0.946      -7.072       5.225       0.109      11.757
   full:       -6.420       1.070      -7.843       6.477      -1.088      14.263


           -------------------------------------------------
          | TOTAL ENERGY              -71.200083400135 Eh   |
          | GRADIENT NORM               0.085924692951 Eh/α |
          | HOMO-LUMO GAP               0.129968509062 eV   |
           -------------------------------------------------

------------------------------------------------------------------------
 * finished run on 2025/05/15 at 16:11:45.085     
------------------------------------------------------------------------
 total:
 * wall-time:     0 d,  0 h,  0 min,  0.181 sec
 *  cpu-time:     0 d,  0 h,  0 min,  0.099 sec
 * ratio c/w:     0.548 speedup
 SCF:
 * wall-time:     0 d,  0 h,  0 min,  0.136 sec
 *  cpu-time:     0 d,  0 h,  0 min,  0.087 sec
 * ratio c/w:     0.637 speedup


