62
 energy: -94.881658061746 gnorm: 0.000499535995 xtb: 6.7.1 (edcfbbe)
C           -7.32472043213803       -1.21526325748763       -0.29475353255825
C           -6.29848522548885       -1.17927364277182       -1.38951602583689
C           -4.91366900757318       -0.81027322998681       -0.95766537469490
C           -3.83230809956782       -1.55276433563658       -1.33320308988951
C           -3.93295295427445       -2.79126172725971       -2.16516760332762
C           -2.53972236103771       -1.15002507400228       -0.87496777557680
C           -1.34072991390272       -1.81804365772948       -1.15303323393129
N           -0.16814438713277       -1.42165460766515       -0.72154204317724
C           -0.14329539855458       -0.31011914721834        0.02954126790402
N            1.02339810778388        0.15750584591351        0.51647439433406
C            2.32216068667249       -0.31302235440417        0.38795683527049
N            3.21298004067050        0.41928579525178        1.04708032836533
C            4.48788904344286        0.09158614163199        0.99395873990436
C            4.99182519293771       -1.00021081253246        0.27137559665542
C            4.02808172777527       -1.77095257380077       -0.40188260446507
C            2.69345940158501       -1.43618679168949       -0.35059755247258
N            6.32268982542586       -1.36947672437843        0.27688545474192
C            7.28939257068658       -0.63842176170944        1.06858645004867
C            7.86245749657940        0.54993565958696        0.28903905904156
N            8.48654406458177        0.02663568827834       -0.91369004056257
C            7.51857597146845       -0.67020261070248       -1.74052677710010
C            6.94909150001027       -1.84854350834406       -0.93954755345649
N           -1.21344219272711        0.41522458671956        0.35794365888351
C           -2.40134034425730        0.01798957561608       -0.08332136178868
N           -3.49358764721734        0.76107821049678        0.23990574479515
C           -3.29977585657720        1.97435117123446        1.03420871162141
C           -3.97196916916273        1.90652958097021        2.41535699237233
C           -4.33561511877424        3.35812841148327        2.70981658131629
C           -4.83034785619881        3.85757462592494        1.35561765790201
C           -3.84134059000824        3.25149990514641        0.35693080029990
C           -4.78229076389345        0.40131834148879       -0.14701162730846
O           -5.72783563838389        1.09904542456367        0.17544424491897
O           -6.56101938709951       -1.44567422848524       -2.53976702873428
H           -8.25030970832994       -1.64410333624170       -0.66824801505996
H           -6.95459427161900       -1.78604114771419        0.55381433485466
H           -7.49803803580379       -0.19411234435061        0.04003488873066
H           -3.52310144437704       -3.64246368336561       -1.62229815509448
H           -3.35880191065207       -2.66345999960820       -3.08170090975305
H           -4.96004466877392       -3.00369018593532       -2.43890571571392
H           -1.32646992471120       -2.71583333203074       -1.75552039901785
H            0.94838037874040        0.99340026869264        1.08327143757151
H            5.13152755781586        0.75089550256820        1.55833497699734
H            4.32141460207322       -2.65088817354378       -0.95346165024323
H            1.94470000280094       -2.01939029442598       -0.85724861633782
H            6.84418111528395       -0.32092646622240        2.01021834594079
H            8.10942133567883       -1.32901738685157        1.28952318948036
H            8.62199525870975        1.05905203766705        0.88545651600195
H            7.05005405657878        1.26389792284900        0.06436835241454
H            8.93179512041481        0.77233060243324       -1.43837389032752
H            6.68017695824691       -0.01851603644961       -2.05007343055995
H            8.02324905930175       -1.03881954886462       -2.63571235068852
H            7.76861756000498       -2.51594984782165       -0.65804905103495
H            6.23959726606659       -2.40007131256262       -1.55219338931184
H           -2.21869590788671        2.05078581142214        1.15655910201923
H           -4.88263266619373        1.31273032282557        2.35469660985216
H           -3.31318236392953        1.46691907145355        3.16348022917383
H           -5.08893660688056        3.44628374377649        3.49076445322810
H           -3.44752813952821        3.91397004329797        3.01709533878662
H           -5.82514880408658        3.45727620575279        1.16517190525456
H           -4.86707473572015        4.94399389899987        1.29247253784357
H           -4.32053513449114        3.02746959969042       -0.59367163332911
H           -3.01596923437840        3.93825914605301        0.16576569482768
