33
 energy: -45.171869472195 gnorm: 0.000890233915 xtb: 6.7.1 (edcfbbe)
C           -4.53183308043341       -0.70447696529061       -0.74427907671624
C           -3.09018050219879       -0.20371489096588       -0.71742330463155
C           -2.28708848507260       -0.96239929734475        0.35311638273907
C           -0.82845606558248       -0.61155465131711        0.31531176560511
C           -0.25992505863910        0.21427034030625        1.27535793418596
C            1.08191258330466        0.54771409031266        1.22150878795806
C            1.88950837856162        0.05913702965535        0.20507764539488
C            3.36535630869317        0.39703561190522        0.16364977353723
C            3.63443063239712        1.05741495378221       -1.17122555739869
O            3.52481304505364        2.39029502364415       -1.09138406524431
O            3.88451113522242        0.49127536746719       -2.20105349034708
C            4.22644142838588       -0.85549941149455        0.33196821577799
C            1.32369931932482       -0.76020993674357       -0.76445143063061
C           -0.01638199891359       -1.09052663559810       -0.70667146944556
C           -3.05193430818971        1.29921596156553       -0.45705522767988
H           -5.10348298096962       -0.17942228276056       -1.50626982242877
H           -5.00982114532342       -0.53599400461101        0.21874903437961
H           -4.56758842714342       -1.76960637320498       -0.96297996122089
H           -2.63201887369454       -0.39862458842735       -1.69324592184355
H           -2.40381973860172       -2.03554026531162        0.18172207870348
H           -2.69992140335939       -0.72925460714899        1.33674483275905
H           -0.87211620581425        0.60095056909182        2.07771551422067
H            1.50422115555782        1.19102748676246        1.98038558265973
H            3.58555419660061        1.12311400366193        0.95056178111587
H            3.65834700627944        2.79583270223377       -1.96318125245080
H            4.11945874660012       -1.49969421468575       -0.53603726216180
H            5.27474442963314       -0.58368834672256        0.43117316309050
H            3.91750410679692       -1.40230831903795        1.21911877066348
H            1.93593305970340       -1.13317502688139       -1.57178997587504
H           -0.43984064201206       -1.73408840397011       -1.46464124476437
H           -3.59394631370627        1.83368057457498       -1.23401022981826
H           -3.51218034868276        1.52981520100054        0.50173210276639
H           -2.02579995377761        1.65929930555378       -0.44309407289875
