42
 energy: -62.291848126697 gnorm: 0.000635887447 xtb: 6.7.1 (edcfbbe)
C            3.09222821601159        2.04821581434334        1.46760499954097
C            3.14343614168491        1.78294125967633       -0.03893914597922
C            2.83781015632049        0.34373395091117       -0.34594159258719
C            3.82485870028768       -0.57330137760157       -0.65098805977579
C            3.53716268201912       -1.91719656641215       -0.90526190616270
C            2.24873243142216       -2.39639636755701       -0.85941932032885
C            1.22296597563409       -1.50263626643926       -0.55158752484544
C            1.53139199608332       -0.14262580208248       -0.29915329890741
N            0.36143670623562        0.51486452012172       -0.03940802207439
C           -0.66965931024754       -0.38449369147044       -0.09435030673122
C           -0.18890374796643       -1.62523289346163       -0.40667369378266
C           -1.09954111122904       -2.80131815719220       -0.51492951593579
C           -2.36795488482659       -2.44773145577736        0.26875448774351
O           -2.91149488355287       -1.20467478714423       -0.12404857856824
C           -2.11212764398955       -0.05967820253531        0.13454982115560
C           -2.60946320667283        1.02814759181547       -0.83612612173381
C           -2.42352294383124        0.61480175963779       -2.29084399271942
C           -2.35163067102893        0.38517223730481        1.62190043242786
C           -2.21988293229118        1.86001748475058        1.85890786393664
O           -0.93660396028816        2.27942871234912        1.88530334467242
O           -3.12832794333462        2.62592037719710        2.02689010538998
H            2.10885881161089        1.81466020901804        1.86994362411250
H            3.82338092890764        1.42729700224549        1.97992486124459
H            3.31618779051960        3.09190552736278        1.67878125911728
H            4.13883210823959        2.02993430919895       -0.41231730780753
H            2.42447939825071        2.43076894803131       -0.54818694601662
H            4.85226232223766       -0.24120980053671       -0.69765370933963
H            4.35078740384678       -2.58718028935532       -1.14220109867017
H            2.03065244246202       -3.43519195768602       -1.05678723480163
H            0.27536879069759        1.47063233270722        0.25817131790322
H           -1.35113646308510       -2.99454348776365       -1.56190028041152
H           -0.64045390697775       -3.70038728387903       -0.10116099123644
H           -2.14249534617930       -2.44257183737036        1.34491078545433
H           -3.16469905240394       -3.17071939464716        0.08068144071778
H           -3.66741374815272        1.19772068161620       -0.63278042600557
H           -2.06945677805590        1.95723145855162       -0.64511431218153
H           -2.94531993353862       -0.31930099013246       -2.47572323937428
H           -1.36926834209307        0.47520685754255       -2.52013129248482
H           -2.82654174477424        1.37869228691966       -2.95078326705955
H           -3.37233323074627        0.09851113021735        1.87886136576027
H           -1.64529942952077       -0.13977207077540        2.26711894906955
H           -0.90710178768600        3.23025822830155        2.08010652727400
