----- Optimization -----
      -----------------------------------------------------------      
     |                   =====================                   |     
     |                           x T B                           |     
     |                   =====================                   |     
     |                         S. Grimme                         |     
     |          Mulliken Center for Theoretical Chemistry        |     
     |                    University of Bonn                     |     
      -----------------------------------------------------------      

   * xtb version 6.7.1 (edcfbbe) compiled by 'conda@3ef47c1a292c' on 2024-11-25

   xtb is free software: you can redistribute it and/or modify it under
   the terms of the GNU Lesser General Public License as published by
   the Free Software Foundation, either version 3 of the License, or
   (at your option) any later version.
   
   xtb is distributed in the hope that it will be useful,
   but WITHOUT ANY WARRANTY; without even the implied warranty of
   MERCHANTABILITY or FITNESS FOR A PARTICULAR PURPOSE.  See the
   GNU Lesser General Public License for more details.
   
   Cite this work as:
   * C. Bannwarth, E. Caldeweyher, S. Ehlert, A. Hansen, P. Pracht,
     J. Seibert, S. Spicher, S. Grimme, WIREs Comput. Mol. Sci., 2020, 11,
     e01493. DOI: 10.1002/wcms.1493
   
   for GFN2-xTB:
   * C. Bannwarth, S. Ehlert and S. Grimme., J. Chem. Theory Comput., 2019,
     15, 1652-1671. DOI: 10.1021/acs.jctc.8b01176
   for GFN1-xTB:
   * S. Grimme, C. Bannwarth, P. Shushkov, J. Chem. Theory Comput., 2017,
     13, 1989-2009. DOI: 10.1021/acs.jctc.7b00118
   for GFN0-xTB:
   * P. Pracht, E. Caldeweyher, S. Ehlert, S. Grimme, ChemRxiv, 2019, preprint.
     DOI: 10.26434/chemrxiv.8326202.v1
   for GFN-FF:
   * S. Spicher and S. Grimme, Angew. Chem. Int. Ed., 2020, 59, 15665-15673.
     DOI: 10.1002/anie.202004239
   
   for ALPB and GBSA implicit solvation:
   * S. Ehlert, M. Stahn, S. Spicher, S. Grimme, J. Chem. Theory Comput.,
     2021, 17, 4250-4261. DOI: 10.1021/acs.jctc.1c00471
   
   for ddCOSMO and CPCM-X implicit solvation:
   * M. Stahn, S. Ehlert, S. Grimme, J. Phys. Chem. A,
     2023, XX, XXXX-XXXX. DOI: 10.1021/acs.jpca.3c04382
   
   for DFT-D4:
   * E. Caldeweyher, C. Bannwarth and S. Grimme, J. Chem. Phys., 2017,
     147, 034112. DOI: 10.1063/1.4993215
   * E. Caldeweyher, S. Ehlert, A. Hansen, H. Neugebauer, S. Spicher,
     C. Bannwarth and S. Grimme, J. Chem. Phys., 2019, 150, 154122.
     DOI: 10.1063/1.5090222
   * E. Caldeweyher, J.-M. Mewes, S. Ehlert and S. Grimme, Phys. Chem. Chem. Phys.
     2020, 22, 8499-8512. DOI: 10.1039/D0CP00502A
   
   for sTDA-xTB:
   * S. Grimme and C. Bannwarth, J. Chem. Phys., 2016, 145, 054103.
     DOI: 10.1063/1.4959605
   
   in the mass-spec context:
   * V. Asgeirsson, C. Bauer and S. Grimme, Chem. Sci., 2017, 8, 4879.
     DOI: 10.1039/c7sc00601b
   * J. Koopman and S. Grimme, ACS Omega 2019, 4, 12, 15120-15133.
     DOI: 10.1021/acsomega.9b02011
   
   for metadynamics refer to:
   * S. Grimme, J. Chem. Theory Comput., 2019, 155, 2847-2862
     DOI: 10.1021/acs.jctc.9b00143
   
   for SPH calculations refer to:
   * S. Spicher and S. Grimme, J. Chem. Theory Comput., 2021, 17, 1701-1714
     DOI: 10.1021/acs.jctc.0c01306
   
   for ONIOM refer to:
   * C. Plett, A. Katbashev, S. Ehlert, S. Grimme, M. Bursch,
     Phys. Chem. Chem. Phys., 2023, 25, 17860-17868. DOI: 10.1039/D3CP02178E
   
   for DIPRO refer to:
   * J. Kohn, N. Gildemeister, S. Grimme, D. Fazzi, A. Hansen,
     J. Chem. Phys., 2023, just accepted.
   
   for PTB refer to:
   * S. Grimme, M. Mueller, A. Hansen, J. Chem. Phys., 2023, 158, 124111.
     DOI: 10.1063/5.0137838
   
   with help from (in alphabetical order)
   P. Atkinson, C. Bannwarth, F. Bohle, G. Brandenburg, E. Caldeweyher
   M. Checinski, S. Dohm, S. Ehlert, S. Ehrlich, I. Gerasimov, C. Hölzer
   A. Katbashev, J. Kohn, J. Koopman, C. Lavigne, S. Lehtola, F. März, M. Müller,
   F. Musil, H. Neugebauer, J. Pisarek, C. Plett, P. Pracht, F. Pultar,
   J. Seibert, P. Shushkov, S. Spicher, M. Stahn, M. Steiner, T. Strunk,
   J. Stückrath, T. Rose, and J. Unsleber
   
 * started run on 2025/05/15 at 16:15:04.783     
   ID    Z sym.   atoms
    1    8 O      1, 13, 15-17
    2    6 C      2-6, 8, 10, 11
    3    7 N      7, 9, 12, 14
    4    1 H      18-29

           -------------------------------------------------
          |                Calculation Setup                |
           -------------------------------------------------

          program call               : xtb /rds/general/user/hgt20/home/callum/QDESCP/Ribavirin_rdkit_conf_18/Ribavirin_rdkit_conf_18.xyz --opt normal --acc 1 --gfn 2 --chrg 0 --uhf 0 -P 1
          hostname                   : login-c
          coordinate file            : /rds/general/user/hgt20/home/callum/QDESCP/Ribavirin_rdkit_conf_18/Ribavirin_rdkit_conf_18.xyz
          omp threads                :                     1


           -------------------------------------------------
          |                 G F N 2 - x T B                 |
           -------------------------------------------------

        Reference                      10.1021/acs.jctc.8b01176
      * Hamiltonian:
        H0-scaling (s, p, d)           1.850000    2.230000    2.230000
        zeta-weighting                 0.500000
      * Dispersion:
        s8                             2.700000
        a1                             0.520000
        a2                             5.000000
        s9                             5.000000
      * Repulsion:
        kExp                           1.500000    1.000000
        rExp                           1.000000
      * Coulomb:
        alpha                          2.000000
        third order                    shell-resolved
        anisotropic                    true
        a3                             3.000000
        a5                             4.000000
        cn-shift                       1.200000
        cn-exp                         4.000000
        max-rad                        5.000000


          ...................................................
          :                      SETUP                      :
          :.................................................:
          :  # basis functions                  80          :
          :  # atomic orbitals                  80          :
          :  # shells                           46          :
          :  # electrons                        94          :
          :  max. iterations                   250          :
          :  Hamiltonian                  GFN2-xTB          :
          :  restarted?                      false          :
          :  GBSA solvation                  false          :
          :  PC potential                    false          :
          :  electronic temp.          300.0000000     K    :
          :  accuracy                    1.0000000          :
          :  -> integral cutoff          0.2500000E+02      :
          :  -> integral neglect         0.1000000E-07      :
          :  -> SCF convergence          0.1000000E-05 Eh   :
          :  -> wf. convergence          0.1000000E-03 e    :
          :  Broyden damping             0.4000000          :
          :  net charge                          0          :
          :  unpaired electrons                  0          :
          ...................................................

 iter      E             dE          RMSdq      gap      omega  full diag
   1    -55.5547276 -0.555547E+02  0.465E+00    3.47       0.0  T
   2    -55.7001042 -0.145377E+00  0.278E+00    3.32       1.0  T
   3    -55.7247330 -0.246288E-01  0.149E+00    3.46       1.0  T
   4    -55.7315555 -0.682248E-02  0.526E-01    3.41       1.0  T
   5    -55.7360972 -0.454171E-02  0.110E-01    3.37       1.0  T
   6    -55.7361343 -0.371482E-04  0.456E-02    3.40       1.0  T
   7    -55.7361410 -0.666979E-05  0.214E-02    3.40       1.0  T
   8    -55.7361427 -0.171160E-05  0.682E-03    3.40       2.7  T
   9    -55.7361430 -0.313345E-06  0.274E-03    3.40       6.8  T
  10    -55.7361431 -0.482859E-07  0.122E-03    3.40      15.2  T
  11    -55.7361431 -0.111450E-07  0.425E-04    3.40      43.7  T
  12    -55.7361431 -0.125064E-08  0.138E-04    3.40     134.3  T

   *** convergence criteria satisfied after 12 iterations ***

         #    Occupation            Energy/Eh            Energy/eV
      -------------------------------------------------------------
         1        2.0000           -0.7312516             -19.8984
       ...           ...                  ...                  ...
        41        2.0000           -0.4361278             -11.8676
        42        2.0000           -0.4323925             -11.7660
        43        2.0000           -0.4263035             -11.6003
        44        2.0000           -0.4244291             -11.5493
        45        2.0000           -0.4126144             -11.2278
        46        2.0000           -0.4080599             -11.1039
        47        2.0000           -0.3943089             -10.7297 (HOMO)
        48                         -0.2693080              -7.3282 (LUMO)
        49                         -0.2336066              -6.3568
        50                         -0.1478683              -4.0237
        51                         -0.0699129              -1.9024
        52                         -0.0549564              -1.4954
       ...                                ...                  ...
        80                          0.6304354              17.1550
      -------------------------------------------------------------
                  HL-Gap            0.1250010 Eh            3.4014 eV
             Fermi-level           -0.3318085 Eh           -9.0290 eV

 SCC (total)                   0 d,  0 h,  0 min,  0.032 sec
 SCC setup                      ...        0 min,  0.000 sec (  0.712%)
 Dispersion                     ...        0 min,  0.000 sec (  0.723%)
 classical contributions        ...        0 min,  0.000 sec (  0.233%)
 integral evaluation            ...        0 min,  0.005 sec ( 14.213%)
 iterations                     ...        0 min,  0.014 sec ( 44.569%)
 molecular gradient             ...        0 min,  0.013 sec ( 39.210%)
 printout                       ...        0 min,  0.000 sec (  0.322%)

         :::::::::::::::::::::::::::::::::::::::::::::::::::::
         ::                     SUMMARY                     ::
         :::::::::::::::::::::::::::::::::::::::::::::::::::::
         :: total energy             -55.268183070661 Eh    ::
         :: gradient norm              0.093836344809 Eh/a0 ::
         :: HOMO-LUMO gap              3.401449739516 eV    ::
         ::.................................................::
         :: SCC energy               -55.735875986197 Eh    ::
         :: -> isotropic ES            0.149338904395 Eh    ::
         :: -> anisotropic ES          0.003072169205 Eh    ::
         :: -> anisotropic XC          0.010896409036 Eh    ::
         :: -> dispersion             -0.026984698001 Eh    ::
         :: repulsion energy           0.467692915536 Eh    ::
         :: add. restraining           0.000000000000 Eh    ::
         :: total charge               0.000000000000 e     ::
         :::::::::::::::::::::::::::::::::::::::::::::::::::::

      ----------------------------------------------------------- 
     |                   =====================                   |
     |                        A N C O P T                        |
     |                   =====================                   |
     |               Approximate Normal Coordinate               |
     |                Rational Function Optimizer                |
      ----------------------------------------------------------- 
      ----------------------------------------------------------- 
     |                   =====================                   |
     |                        A N C O P T                        |
     |                   =====================                   |
     |               Approximate Normal Coordinate               |
     |                Rational Function Optimizer                |
      ----------------------------------------------------------- 

          ...................................................
          :                      SETUP                      :
          :.................................................:
          :   optimization level            normal          :
          :   max. optcycles                   200          :
          :   ANC micro-cycles                  20          :
          :   degrees of freedom                81          :
          :.................................................:
          :   RF solver                   davidson          :
          :   write xtbopt.log                true          :
          :   linear?                        false          :
          :   energy convergence         0.5000000E-05 Eh   :
          :   grad. convergence          0.1000000E-02 Eh/α :
          :   maxmium RF displ.          1.0000000          :
          :   Hlow (freq-cutoff)         0.1000000E-01      :
          :   Hmax (freq-cutoff)         5.0000000          :
          :   S6 in model hess.         20.0000000          :
          ...................................................

generating ANC from exact Hessian ...
Using Lindh-Hessian (1995)
 Shifting diagonal of input Hessian by    9.3929028776334172E-003
 Lowest  eigenvalues of input Hessian
    0.000000    0.000000    0.000000    0.000000    0.000000    0.000000
    0.010000    0.010945    0.011544    0.012654    0.014375    0.015301
    0.018469    0.019436    0.020068    0.022776    0.024558    0.029792
 Highest eigenvalues
    1.719206    1.762369    1.941967    2.045139    2.094315    2.325041


........................................................................
.............................. CYCLE    1 ..............................
........................................................................

 iter      E             dE          RMSdq      gap      omega  full diag
   1    -55.7361431 -0.557361E+02  0.627E-05    3.40       0.0  T
   2    -55.7361431 -0.196749E-10  0.349E-05    3.40     531.7  T
   3    -55.7361431 -0.218137E-11  0.215E-05    3.40     862.8  T
     SCC iter.                  ...        0 min,  0.004 sec
     gradient                   ...        0 min,  0.013 sec
 * total energy  :   -55.2681831 Eh     change       -0.1155556E-09 Eh
   gradient norm :     0.0938363 Eh/α   predicted     0.0000000E+00 (-100.00%)
   displ. norm   :     0.2934986 α      lambda       -0.1325034E-01
   maximum displ.:     0.1280154 α      in ANC's #12, #17, #16, ...

........................................................................
.............................. CYCLE    2 ..............................
........................................................................

 iter      E             dE          RMSdq      gap      omega  full diag
   1    -55.7681705 -0.557682E+02  0.247E-01    3.56       0.0  T
   2    -55.7682457 -0.752252E-04  0.144E-01    3.57       1.0  T
   3    -55.7682256  0.201118E-04  0.449E-02    3.59       1.0  T
   4    -55.7682595 -0.338707E-04  0.106E-02    3.58       1.8  T
   5    -55.7682611 -0.160164E-05  0.469E-03    3.58       4.0  T
   6    -55.7682612 -0.139577E-06  0.199E-03    3.58       9.3  T
   7    -55.7682612 -0.138070E-07  0.662E-04    3.58      28.1  T
   8    -55.7682612 -0.336009E-08  0.312E-04    3.58      59.5  T
     SCC iter.                  ...        0 min,  0.028 sec
     gradient                   ...        0 min,  0.013 sec
 * total energy  :   -55.2771630 Eh     change       -0.8979974E-02 Eh
   gradient norm :     0.0423732 Eh/α   predicted    -0.7198840E-02 ( -19.83%)
   displ. norm   :     0.2727945 α      lambda       -0.4204020E-02
   maximum displ.:     0.1480406 α      in ANC's #12, #5, #9, ...

........................................................................
.............................. CYCLE    3 ..............................
........................................................................

 iter      E             dE          RMSdq      gap      omega  full diag
   1    -55.7841311 -0.557841E+02  0.151E-01    3.68       0.0  T
   2    -55.7841614 -0.303331E-04  0.896E-02    3.68       1.0  T
   3    -55.7841560  0.540348E-05  0.248E-02    3.69       1.0  T
   4    -55.7841653 -0.927420E-05  0.620E-03    3.69       3.0  T
   5    -55.7841659 -0.641466E-06  0.255E-03    3.69       7.3  T
   6    -55.7841660 -0.599428E-07  0.119E-03    3.69      15.6  T
   7    -55.7841660 -0.327016E-08  0.390E-04    3.69      47.7  T
   8    -55.7841660 -0.129949E-08  0.162E-04    3.69     114.8  T
     SCC iter.                  ...        0 min,  0.009 sec
     gradient                   ...        0 min,  0.013 sec
 * total energy  :   -55.2796666 Eh     change       -0.2503573E-02 Eh
   gradient norm :     0.0140216 Eh/α   predicted    -0.2258436E-02 (  -9.79%)
   displ. norm   :     0.1879693 α      lambda       -0.8271388E-03
   maximum displ.:     0.1076405 α      in ANC's #5, #12, #4, ...

........................................................................
.............................. CYCLE    4 ..............................
........................................................................

 iter      E             dE          RMSdq      gap      omega  full diag
   1    -55.7844073 -0.557844E+02  0.717E-02    3.69       0.0  T
   2    -55.7844102 -0.288480E-05  0.432E-02    3.69       1.0  T
   3    -55.7844094  0.715773E-06  0.854E-03    3.70       2.2  T
   4    -55.7844107 -0.127077E-05  0.247E-03    3.70       7.5  T
   5    -55.7844108 -0.654834E-07  0.108E-03    3.70      17.2  T
   6    -55.7844108 -0.460049E-08  0.450E-04    3.70      41.3  T
   7    -55.7844108 -0.652278E-09  0.117E-04    3.70     158.3  T
     SCC iter.                  ...        0 min,  0.008 sec
     gradient                   ...        0 min,  0.012 sec
 * total energy  :   -55.2802678 Eh     change       -0.6011772E-03 Eh
   gradient norm :     0.0082896 Eh/α   predicted    -0.4282115E-03 ( -28.77%)
   displ. norm   :     0.2490643 α      lambda       -0.6390554E-03
   maximum displ.:     0.1449638 α      in ANC's #5, #1, #12, ...

........................................................................
.............................. CYCLE    5 ..............................
........................................................................

 iter      E             dE          RMSdq      gap      omega  full diag
   1    -55.7821043 -0.557821E+02  0.858E-02    3.69       0.0  T
   2    -55.7821082 -0.394481E-05  0.519E-02    3.69       1.0  T
   3    -55.7821076  0.662985E-06  0.962E-03    3.69       1.9  T
   4    -55.7821092 -0.162096E-05  0.295E-03    3.69       6.3  T
   5    -55.7821093 -0.561606E-07  0.149E-03    3.69      12.5  T
   6    -55.7821093 -0.151161E-07  0.415E-04    3.69      44.8  T
   7    -55.7821093 -0.112488E-08  0.124E-04    3.69     150.1  T
     SCC iter.                  ...        0 min,  0.008 sec
     gradient                   ...        0 min,  0.013 sec
 * total energy  :   -55.2806920 Eh     change       -0.4241748E-03 Eh
   gradient norm :     0.0086515 Eh/α   predicted    -0.3393616E-03 ( -19.99%)
   displ. norm   :     0.2036594 α      lambda       -0.3065846E-03
   maximum displ.:     0.1090655 α      in ANC's #1, #5, #4, ...

........................................................................
.............................. CYCLE    6 ..............................
........................................................................

 iter      E             dE          RMSdq      gap      omega  full diag
   1    -55.7812265 -0.557812E+02  0.615E-02    3.69       0.0  T
   2    -55.7812285 -0.201865E-05  0.373E-02    3.69       1.0  T
   3    -55.7812285  0.583281E-07  0.602E-03    3.69       3.1  T
   4    -55.7812291 -0.600777E-06  0.199E-03    3.69       9.3  T
   5    -55.7812291 -0.768647E-08  0.949E-04    3.69      19.6  T
   6    -55.7812291 -0.813409E-08  0.295E-04    3.69      62.9  T
     SCC iter.                  ...        0 min,  0.007 sec
     gradient                   ...        0 min,  0.013 sec
 * total energy  :   -55.2809189 Eh     change       -0.2269196E-03 Eh
   gradient norm :     0.0079524 Eh/α   predicted    -0.1596507E-03 ( -29.64%)
   displ. norm   :     0.2500835 α      lambda       -0.3016525E-03
   maximum displ.:     0.1544259 α      in ANC's #1, #5, #4, ...

........................................................................
.............................. CYCLE    7 ..............................
........................................................................

 iter      E             dE          RMSdq      gap      omega  full diag
   1    -55.7816080 -0.557816E+02  0.679E-02    3.69       0.0  T
   2    -55.7816107 -0.265774E-05  0.410E-02    3.69       1.0  T
   3    -55.7816106  0.918286E-07  0.726E-03    3.69       2.6  T
   4    -55.7816114 -0.797677E-06  0.245E-03    3.69       7.6  T
   5    -55.7816114 -0.144773E-07  0.118E-03    3.69      15.8  T
   6    -55.7816114 -0.102772E-07  0.415E-04    3.69      44.7  T
   7    -55.7816114 -0.907690E-09  0.120E-04    3.69     154.3  T
     SCC iter.                  ...        0 min,  0.008 sec
     gradient                   ...        0 min,  0.040 sec
 * total energy  :   -55.2811434 Eh     change       -0.2245093E-03 Eh
   gradient norm :     0.0052996 Eh/α   predicted    -0.1602759E-03 ( -28.61%)
   displ. norm   :     0.2700638 α      lambda       -0.2526680E-03
   maximum displ.:     0.1781225 α      in ANC's #1, #4, #5, ...

........................................................................
.............................. CYCLE    8 ..............................
........................................................................

 iter      E             dE          RMSdq      gap      omega  full diag
   1    -55.7827008 -0.557827E+02  0.655E-02    3.70       0.0  T
   2    -55.7827034 -0.262491E-05  0.395E-02    3.70       1.0  T
   3    -55.7827033  0.468432E-07  0.690E-03    3.70       2.7  T
   4    -55.7827040 -0.672876E-06  0.219E-03    3.70       8.5  T
   5    -55.7827040 -0.904672E-08  0.108E-03    3.70      17.3  T
   6    -55.7827040 -0.861127E-08  0.422E-04    3.70      44.0  T
   7    -55.7827040 -0.136951E-08  0.125E-04    3.70     148.9  T
     SCC iter.                  ...        0 min,  0.008 sec
     gradient                   ...        0 min,  0.013 sec
 * total energy  :   -55.2813403 Eh     change       -0.1968530E-03 Eh
   gradient norm :     0.0051920 Eh/α   predicted    -0.1355497E-03 ( -31.14%)
   displ. norm   :     0.3212593 α      lambda       -0.2569657E-03
   maximum displ.:     0.2128209 α      in ANC's #1, #4, #2, ...

........................................................................
.............................. CYCLE    9 ..............................
........................................................................

 iter      E             dE          RMSdq      gap      omega  full diag
   1    -55.7836930 -0.557837E+02  0.720E-02    3.70       0.0  T
   2    -55.7836959 -0.283622E-05  0.433E-02    3.70       1.0  T
   3    -55.7836959 -0.664833E-07  0.665E-03    3.70       2.8  T
   4    -55.7836966 -0.623845E-06  0.231E-03    3.70       8.0  T
   5    -55.7836966 -0.727192E-08  0.103E-03    3.70      18.0  T
   6    -55.7836966 -0.645300E-08  0.379E-04    3.70      49.0  T
   7    -55.7836966 -0.933824E-09  0.137E-04    3.70     136.0  T
     SCC iter.                  ...        0 min,  0.008 sec
     gradient                   ...        0 min,  0.014 sec
 * total energy  :   -55.2815540 Eh     change       -0.2137455E-03 Eh
   gradient norm :     0.0068999 Eh/α   predicted    -0.1417468E-03 ( -33.68%)
   displ. norm   :     0.4257861 α      lambda       -0.3290807E-03
   maximum displ.:     0.2795848 α      in ANC's #1, #2, #4, ...

........................................................................
.............................. CYCLE   10 ..............................
........................................................................

 iter      E             dE          RMSdq      gap      omega  full diag
   1    -55.7840679 -0.557841E+02  0.907E-02    3.71       0.0  T
   2    -55.7840715 -0.359083E-05  0.545E-02    3.71       1.0  T
   3    -55.7840713  0.140274E-06  0.817E-03    3.71       2.3  T
   4    -55.7840725 -0.114350E-05  0.320E-03    3.71       5.8  T
   5    -55.7840725 -0.432248E-07  0.167E-03    3.71      11.1  T
   6    -55.7840725 -0.174019E-07  0.465E-04    3.71      39.9  T
   7    -55.7840725 -0.771699E-09  0.173E-04    3.71     107.2  T
     SCC iter.                  ...        0 min,  0.008 sec
     gradient                   ...        0 min,  0.013 sec
 * total energy  :   -55.2818368 Eh     change       -0.2828209E-03 Eh
   gradient norm :     0.0082165 Eh/α   predicted    -0.1943715E-03 ( -31.27%)
   displ. norm   :     0.5197992 α      lambda       -0.4124463E-03
   maximum displ.:     0.3440686 α      in ANC's #1, #2, #3, ...

........................................................................
.............................. CYCLE   11 ..............................
........................................................................

 iter      E             dE          RMSdq      gap      omega  full diag
   1    -55.7840105 -0.557840E+02  0.108E-01    3.72       0.0  T
   2    -55.7840150 -0.444603E-05  0.645E-02    3.71       1.0  T
   3    -55.7840139  0.108507E-05  0.110E-02    3.71       1.7  T
   4    -55.7840165 -0.255902E-05  0.405E-03    3.71       4.6  T
   5    -55.7840166 -0.899080E-07  0.196E-03    3.71       9.5  T
   6    -55.7840166 -0.141850E-07  0.513E-04    3.71      36.2  T
   7    -55.7840166 -0.997041E-09  0.203E-04    3.71      91.5  T
     SCC iter.                  ...        0 min,  0.008 sec
     gradient                   ...        0 min,  0.013 sec
 * total energy  :   -55.2821787 Eh     change       -0.3419170E-03 Eh
   gradient norm :     0.0079456 Eh/α   predicted    -0.2619560E-03 ( -23.39%)
   displ. norm   :     0.5775654 α      lambda       -0.4223968E-03
   maximum displ.:     0.3850063 α      in ANC's #1, #2, #3, ...

........................................................................
.............................. CYCLE   12 ..............................
........................................................................

 iter      E             dE          RMSdq      gap      omega  full diag
   1    -55.7814910 -0.557815E+02  0.120E-01    3.73       0.0  T
   2    -55.7814967 -0.573806E-05  0.722E-02    3.72       1.0  T
   3    -55.7814953  0.138933E-05  0.125E-02    3.72       1.5  T
   4    -55.7814986 -0.324073E-05  0.461E-03    3.72       4.0  T
   5    -55.7814987 -0.144733E-06  0.222E-03    3.72       8.4  T
   6    -55.7814987 -0.141874E-07  0.526E-04    3.72      35.3  T
   7    -55.7814987 -0.106787E-08  0.223E-04    3.72      83.2  T
     SCC iter.                  ...        0 min,  0.008 sec
     gradient                   ...        0 min,  0.013 sec
 * total energy  :   -55.2824345 Eh     change       -0.2557233E-03 Eh
   gradient norm :     0.0131111 Eh/α   predicted    -0.2816516E-03 (  10.14%)
   displ. norm   :     0.4190695 α      lambda       -0.5570331E-03
   maximum displ.:     0.2857728 α      in ANC's #1, #2, #3, ...

........................................................................
.............................. CYCLE   13 ..............................
........................................................................

 iter      E             dE          RMSdq      gap      omega  full diag
   1    -55.7852813 -0.557853E+02  0.889E-02    3.74       0.0  T
   2    -55.7852867 -0.548236E-05  0.534E-02    3.73       1.0  T
   3    -55.7852845  0.220665E-05  0.129E-02    3.73       1.4  T
   4    -55.7852883 -0.377435E-05  0.398E-03    3.73       4.7  T
   5    -55.7852884 -0.117583E-06  0.201E-03    3.73       9.2  T
   6    -55.7852884 -0.149066E-07  0.675E-04    3.73      27.5  T
   7    -55.7852884 -0.147630E-08  0.238E-04    3.73      78.0  T
     SCC iter.                  ...        0 min,  0.008 sec
     gradient                   ...        0 min,  0.013 sec
 * total energy  :   -55.2825978 Eh     change       -0.1633427E-03 Eh
   gradient norm :     0.0125721 Eh/α   predicted    -0.3274311E-03 ( 100.46%)
   displ. norm   :     0.1783386 α      lambda       -0.2614201E-03
   maximum displ.:     0.1250278 α      in ANC's #1, #2, #3, ...

........................................................................
.............................. CYCLE   14 ..............................
........................................................................

 iter      E             dE          RMSdq      gap      omega  full diag
   1    -55.7832892 -0.557833E+02  0.453E-02    3.73       0.0  T
   2    -55.7832910 -0.179712E-05  0.274E-02    3.73       1.0  T
   3    -55.7832910 -0.582620E-07  0.536E-03    3.73       3.5  T
   4    -55.7832914 -0.360942E-06  0.187E-03    3.73       9.9  T
   5    -55.7832914 -0.910379E-08  0.913E-04    3.73      20.3  T
   6    -55.7832914 -0.466644E-08  0.377E-04    3.73      49.2  T
     SCC iter.                  ...        0 min,  0.007 sec
     gradient                   ...        0 min,  0.021 sec
 * total energy  :   -55.2827705 Eh     change       -0.1727130E-03 Eh
   gradient norm :     0.0066174 Eh/α   predicted    -0.1348688E-03 ( -21.91%)
   displ. norm   :     0.1040156 α      lambda       -0.1783907E-03
   maximum displ.:     0.0540953 α      in ANC's #9, #1, #4, ...

........................................................................
.............................. CYCLE   15 ..............................
........................................................................

 iter      E             dE          RMSdq      gap      omega  full diag
   1    -55.7849570 -0.557850E+02  0.336E-02    3.73       0.0  T
   2    -55.7849588 -0.179230E-05  0.197E-02    3.73       1.0  T
   3    -55.7849586  0.213704E-06  0.634E-03    3.73       2.9  T
   4    -55.7849592 -0.566309E-06  0.192E-03    3.73       9.7  T
   5    -55.7849592 -0.359673E-07  0.932E-04    3.73      19.9  T
   6    -55.7849592 -0.294974E-08  0.329E-04    3.73      56.4  T
     SCC iter.                  ...        0 min,  0.007 sec
     gradient                   ...        0 min,  0.013 sec
 * total energy  :   -55.2828689 Eh     change       -0.9833583E-04 Eh
   gradient norm :     0.0068407 Eh/α   predicted    -0.9016101E-04 (  -8.31%)
   displ. norm   :     0.3274465 α      lambda       -0.1697285E-03
   maximum displ.:     0.2526063 α      in ANC's #1, #2, #3, ...

........................................................................
.............................. CYCLE   16 ..............................
........................................................................

 iter      E             dE          RMSdq      gap      omega  full diag
   1    -55.7829457 -0.557829E+02  0.630E-02    3.73       0.0  T
   2    -55.7829480 -0.238284E-05  0.376E-02    3.73       1.0  T
   3    -55.7829479  0.128190E-06  0.718E-03    3.73       2.6  T
   4    -55.7829487 -0.756127E-06  0.238E-03    3.73       7.8  T
   5    -55.7829487 -0.162375E-07  0.121E-03    3.73      15.4  T
   6    -55.7829487 -0.110613E-07  0.413E-04    3.73      45.0  T
   7    -55.7829487 -0.952625E-09  0.118E-04    3.73     156.9  T
     SCC iter.                  ...        0 min,  0.008 sec
     gradient                   ...        0 min,  0.013 sec
 * total energy  :   -55.2829627 Eh     change       -0.9383151E-04 Eh
   gradient norm :     0.0069140 Eh/α   predicted    -0.9396423E-04 (   0.14%)
   displ. norm   :     0.1492761 α      lambda       -0.1130275E-03
   maximum displ.:     0.1111702 α      in ANC's #1, #2, #4, ...

........................................................................
.............................. CYCLE   17 ..............................
........................................................................

 iter      E             dE          RMSdq      gap      omega  full diag
   1    -55.7842261 -0.557842E+02  0.303E-02    3.73       0.0  T
   2    -55.7842266 -0.483322E-06  0.177E-02    3.73       1.0  T
   3    -55.7842266 -0.374916E-07  0.264E-03    3.72       7.0  T
   4    -55.7842267 -0.749031E-07  0.973E-04    3.72      19.1  T
   5    -55.7842267 -0.202269E-08  0.445E-04    3.72      41.7  T
     SCC iter.                  ...        0 min,  0.005 sec
     gradient                   ...        0 min,  0.013 sec
 * total energy  :   -55.2830465 Eh     change       -0.8378827E-04 Eh
   gradient norm :     0.0040306 Eh/α   predicted    -0.5777781E-04 ( -31.04%)
   displ. norm   :     0.2822991 α      lambda       -0.1190042E-03
   maximum displ.:     0.2264090 α      in ANC's #1, #2, #4, ...

........................................................................
.............................. CYCLE   18 ..............................
........................................................................

 iter      E             dE          RMSdq      gap      omega  full diag
   1    -55.7849144 -0.557849E+02  0.526E-02    3.72       0.0  T
   2    -55.7849155 -0.112202E-05  0.308E-02    3.72       1.0  T
   3    -55.7849152  0.262422E-06  0.557E-03    3.72       3.3  T
   4    -55.7849158 -0.564328E-06  0.179E-03    3.72      10.4  T
   5    -55.7849158 -0.209339E-07  0.922E-04    3.72      20.1  T
   6    -55.7849158 -0.363389E-08  0.261E-04    3.72      71.1  T
     SCC iter.                  ...        0 min,  0.007 sec
     gradient                   ...        0 min,  0.013 sec
 * total energy  :   -55.2831318 Eh     change       -0.8537307E-04 Eh
   gradient norm :     0.0030435 Eh/α   predicted    -0.6424562E-04 ( -24.75%)
   displ. norm   :     0.2598503 α      lambda       -0.9548778E-04
   maximum displ.:     0.2119811 α      in ANC's #1, #2, #4, ...

........................................................................
.............................. CYCLE   19 ..............................
........................................................................

 iter      E             dE          RMSdq      gap      omega  full diag
   1    -55.7853499 -0.557853E+02  0.572E-02    3.72       0.0  T
   2    -55.7853517 -0.182193E-05  0.334E-02    3.72       1.0  T
   3    -55.7853510  0.780075E-06  0.804E-03    3.72       2.3  T
   4    -55.7853522 -0.123976E-05  0.187E-03    3.72       9.9  T
   5    -55.7853522 -0.233220E-07  0.919E-04    3.72      20.2  T
   6    -55.7853522 -0.243197E-08  0.295E-04    3.72      62.9  T
     SCC iter.                  ...        0 min,  0.007 sec
     gradient                   ...        0 min,  0.013 sec
 * total energy  :   -55.2832032 Eh     change       -0.7131604E-04 Eh
   gradient norm :     0.0028162 Eh/α   predicted    -0.5097168E-04 ( -28.53%)
   displ. norm   :     0.3018501 α      lambda       -0.9364878E-04
   maximum displ.:     0.2475313 α      in ANC's #1, #2, #4, ...

........................................................................
.............................. CYCLE   20 ..............................
........................................................................

 iter      E             dE          RMSdq      gap      omega  full diag
   1    -55.7847003 -0.557847E+02  0.686E-02    3.72       0.0  T
   2    -55.7847034 -0.308370E-05  0.403E-02    3.72       1.0  T
   3    -55.7847014  0.197192E-05  0.123E-02    3.72       1.5  T
   4    -55.7847044 -0.293391E-05  0.230E-03    3.72       8.1  T
   5    -55.7847044 -0.268536E-07  0.112E-03    3.72      16.5  T
   6    -55.7847044 -0.399842E-08  0.376E-04    3.72      49.4  T
   7    -55.7847044 -0.816001E-09  0.160E-04    3.72     115.8  T
     SCC iter.                  ...        0 min,  0.008 sec
     gradient                   ...        0 min,  0.013 sec
 * total energy  :   -55.2832714 Eh     change       -0.6825905E-04 Eh
   gradient norm :     0.0033832 Eh/α   predicted    -0.5109199E-04 ( -25.15%)
   displ. norm   :     0.2757526 α      lambda       -0.9536899E-04
   maximum displ.:     0.2085813 α      in ANC's #1, #3, #4, ...
 * RMSD in coord.:     0.8656129 α      energy gain  -0.1508835E-01 Eh

generating ANC from exact Hessian ...
Using Lindh-Hessian (1995)
 Shifting diagonal of input Hessian by    9.1425221006846587E-003
 Lowest  eigenvalues of input Hessian
    0.000000    0.000000    0.000000    0.000000    0.000000    0.000000
    0.010000    0.010492    0.011878    0.013251    0.013931    0.015369
    0.018667    0.019725    0.020592    0.021939    0.025653    0.028400
 Highest eigenvalues
    1.811244    1.878779    2.019564    2.163749    2.200950    2.457086


........................................................................
.............................. CYCLE   21 ..............................
........................................................................

 iter      E             dE          RMSdq      gap      omega  full diag
   1    -55.7849962 -0.557850E+02  0.773E-02    3.71       0.0  T
   2    -55.7850007 -0.448426E-05  0.450E-02    3.71       1.0  T
   3    -55.7849978  0.287155E-05  0.152E-02    3.71       1.2  T
   4    -55.7850022 -0.440036E-05  0.251E-03    3.71       7.4  T
   5    -55.7850022 -0.239467E-07  0.119E-03    3.71      15.6  T
   6    -55.7850022 -0.458738E-08  0.344E-04    3.71      53.9  T
   7    -55.7850022 -0.929248E-09  0.153E-04    3.71     121.4  T
     SCC iter.                  ...        0 min,  0.023 sec
     gradient                   ...        0 min,  0.013 sec
 * total energy  :   -55.2833341 Eh     change       -0.6267824E-04 Eh
   gradient norm :     0.0041960 Eh/α   predicted     0.0000000E+00 (-100.00%)
   displ. norm   :     0.0311475 α      lambda       -0.4900250E-04
   maximum displ.:     0.0119767 α      in ANC's #9, #8, #3, ...

........................................................................
.............................. CYCLE   22 ..............................
........................................................................

 iter      E             dE          RMSdq      gap      omega  full diag
   1    -55.7851235 -0.557851E+02  0.150E-02    3.71       0.0  T
   2    -55.7851238 -0.283364E-06  0.873E-03    3.71       2.1  T
   3    -55.7851238  0.173150E-07  0.253E-03    3.71       7.3  T
   4    -55.7851238 -0.548694E-07  0.636E-04    3.71      29.2  T
   5    -55.7851238 -0.550327E-08  0.308E-04    3.71      60.3  T
     SCC iter.                  ...        0 min,  0.006 sec
     gradient                   ...        0 min,  0.013 sec
 * total energy  :   -55.2833753 Eh     change       -0.4124847E-04 Eh
   gradient norm :     0.0021538 Eh/α   predicted    -0.2483145E-04 ( -39.80%)
   displ. norm   :     0.0994057 α      lambda       -0.1013796E-03
   maximum displ.:     0.0387879 α      in ANC's #9, #3, #8, ...

........................................................................
.............................. CYCLE   23 ..............................
........................................................................

 iter      E             dE          RMSdq      gap      omega  full diag
   1    -55.7852248 -0.557852E+02  0.427E-02    3.71       0.0  T
   2    -55.7852267 -0.198107E-05  0.250E-02    3.71       1.0  T
   3    -55.7852266  0.160961E-06  0.675E-03    3.71       2.8  T
   4    -55.7852271 -0.527910E-06  0.194E-03    3.71       9.6  T
   5    -55.7852271 -0.358169E-07  0.957E-04    3.71      19.4  T
   6    -55.7852272 -0.510918E-08  0.275E-04    3.71      67.6  T
     SCC iter.                  ...        0 min,  0.007 sec
     gradient                   ...        0 min,  0.013 sec
 * total energy  :   -55.2834411 Eh     change       -0.6575230E-04 Eh
   gradient norm :     0.0028428 Eh/α   predicted    -0.5119294E-04 ( -22.14%)
   displ. norm   :     0.0784674 α      lambda       -0.4292971E-04
   maximum displ.:     0.0352073 α      in ANC's #3, #9, #8, ...

........................................................................
.............................. CYCLE   24 ..............................
........................................................................

 iter      E             dE          RMSdq      gap      omega  full diag
   1    -55.7851419 -0.557851E+02  0.316E-02    3.71       0.0  T
   2    -55.7851427 -0.895551E-06  0.187E-02    3.71       1.0  T
   3    -55.7851427  0.758239E-07  0.445E-03    3.71       4.2  T
   4    -55.7851430 -0.298317E-06  0.147E-03    3.71      12.7  T
   5    -55.7851430 -0.108599E-07  0.685E-04    3.71      27.1  T
   6    -55.7851430 -0.371575E-08  0.203E-04    3.71      91.4  T
     SCC iter.                  ...        0 min,  0.035 sec
     gradient                   ...        0 min,  0.014 sec
 * total energy  :   -55.2834749 Eh     change       -0.3380182E-04 Eh
   gradient norm :     0.0035337 Eh/α   predicted    -0.2163939E-04 ( -35.98%)
   displ. norm   :     0.1385972 α      lambda       -0.6817801E-04
   maximum displ.:     0.0673192 α      in ANC's #3, #12, #9, ...

........................................................................
.............................. CYCLE   25 ..............................
........................................................................

 iter      E             dE          RMSdq      gap      omega  full diag
   1    -55.7847902 -0.557848E+02  0.544E-02    3.71       0.0  T
   2    -55.7847928 -0.255845E-05  0.322E-02    3.71       1.0  T
   3    -55.7847927  0.104138E-06  0.718E-03    3.71       2.6  T
   4    -55.7847935 -0.774554E-06  0.255E-03    3.71       7.3  T
   5    -55.7847935 -0.225813E-07  0.111E-03    3.71      16.7  T
   6    -55.7847935 -0.113052E-07  0.353E-04    3.71      52.6  T
   7    -55.7847935 -0.605851E-09  0.902E-05    3.71     205.9  T
     SCC iter.                  ...        0 min,  0.009 sec
     gradient                   ...        0 min,  0.013 sec
 * total energy  :   -55.2835194 Eh     change       -0.4448881E-04 Eh
   gradient norm :     0.0045405 Eh/α   predicted    -0.3484876E-04 ( -21.67%)
   displ. norm   :     0.0820678 α      lambda       -0.4281176E-04
   maximum displ.:     0.0438819 α      in ANC's #3, #12, #1, ...

........................................................................
.............................. CYCLE   26 ..............................
........................................................................

 iter      E             dE          RMSdq      gap      omega  full diag
   1    -55.7850014 -0.557850E+02  0.305E-02    3.71       0.0  T
   2    -55.7850022 -0.712501E-06  0.180E-02    3.71       1.0  T
   3    -55.7850022 -0.431923E-07  0.347E-03    3.71       5.4  T
   4    -55.7850024 -0.153748E-06  0.139E-03    3.71      13.4  T
   5    -55.7850024 -0.442245E-08  0.595E-04    3.71      31.2  T
   6    -55.7850024 -0.307555E-08  0.183E-04    3.71     101.5  T
     SCC iter.                  ...        0 min,  0.007 sec
     gradient                   ...        0 min,  0.014 sec
 * total energy  :   -55.2835533 Eh     change       -0.3394293E-04 Eh
   gradient norm :     0.0039928 Eh/α   predicted    -0.2155492E-04 ( -36.50%)
   displ. norm   :     0.1311193 α      lambda       -0.7237290E-04
   maximum displ.:     0.0693615 α      in ANC's #3, #1, #12, ...

........................................................................
.............................. CYCLE   27 ..............................
........................................................................

 iter      E             dE          RMSdq      gap      omega  full diag
   1    -55.7855131 -0.557855E+02  0.466E-02    3.71       0.0  T
   2    -55.7855145 -0.142116E-05  0.276E-02    3.71       1.0  T
   3    -55.7855147 -0.182753E-06  0.462E-03    3.71       4.0  T
   4    -55.7855149 -0.229313E-06  0.199E-03    3.71       9.3  T
   5    -55.7855149 -0.694764E-08  0.817E-04    3.71      22.7  T
   6    -55.7855149 -0.542131E-08  0.260E-04    3.71      71.3  T
     SCC iter.                  ...        0 min,  0.023 sec
     gradient                   ...        0 min,  0.014 sec
 * total energy  :   -55.2836047 Eh     change       -0.5133511E-04 Eh
   gradient norm :     0.0034636 Eh/α   predicted    -0.3682913E-04 ( -28.26%)
   displ. norm   :     0.1706355 α      lambda       -0.5797098E-04
   maximum displ.:     0.0867969 α      in ANC's #3, #1, #12, ...

........................................................................
.............................. CYCLE   28 ..............................
........................................................................

 iter      E             dE          RMSdq      gap      omega  full diag
   1    -55.7848443 -0.557848E+02  0.613E-02    3.71       0.0  T
   2    -55.7848469 -0.259559E-05  0.364E-02    3.71       1.0  T
   3    -55.7848471 -0.168029E-06  0.639E-03    3.71       2.9  T
   4    -55.7848476 -0.522504E-06  0.262E-03    3.71       7.1  T
   5    -55.7848476 -0.199302E-07  0.109E-03    3.71      17.1  T
   6    -55.7848476 -0.933741E-08  0.374E-04    3.71      49.7  T
   7    -55.7848476 -0.954003E-09  0.998E-05    3.71     186.1  T
     SCC iter.                  ...        0 min,  0.008 sec
     gradient                   ...        0 min,  0.013 sec
 * total energy  :   -55.2836412 Eh     change       -0.3655352E-04 Eh
   gradient norm :     0.0063552 Eh/α   predicted    -0.2983122E-04 ( -18.39%)
   displ. norm   :     0.1555593 α      lambda       -0.9149470E-04
   maximum displ.:     0.0879896 α      in ANC's #1, #3, #5, ...

........................................................................
.............................. CYCLE   29 ..............................
........................................................................

 iter      E             dE          RMSdq      gap      omega  full diag
   1    -55.7858226 -0.557858E+02  0.501E-02    3.71       0.0  T
   2    -55.7858235 -0.941178E-06  0.298E-02    3.71       1.0  T
   3    -55.7858237 -0.197411E-06  0.372E-03    3.71       5.0  T
   4    -55.7858239 -0.147585E-06  0.183E-03    3.71      10.1  T
   5    -55.7858239 -0.446366E-08  0.585E-04    3.71      31.8  T
   6    -55.7858239 -0.298786E-08  0.227E-04    3.71      81.9  T
     SCC iter.                  ...        0 min,  0.007 sec
     gradient                   ...        0 min,  0.013 sec
 * total energy  :   -55.2836877 Eh     change       -0.4650331E-04 Eh
   gradient norm :     0.0044591 Eh/α   predicted    -0.4686605E-04 (   0.78%)
   displ. norm   :     0.1370096 α      lambda       -0.5488513E-04
   maximum displ.:     0.0716346 α      in ANC's #1, #3, #12, ...

........................................................................
.............................. CYCLE   30 ..............................
........................................................................

 iter      E             dE          RMSdq      gap      omega  full diag
   1    -55.7851267 -0.557851E+02  0.478E-02    3.71       0.0  T
   2    -55.7851285 -0.176161E-05  0.285E-02    3.71       1.0  T
   3    -55.7851284  0.346079E-07  0.546E-03    3.71       3.4  T
   4    -55.7851289 -0.447554E-06  0.205E-03    3.71       9.1  T
   5    -55.7851289 -0.188799E-07  0.879E-04    3.71      21.1  T
   6    -55.7851289 -0.653764E-08  0.328E-04    3.71      56.6  T
     SCC iter.                  ...        0 min,  0.007 sec
     gradient                   ...        0 min,  0.023 sec
 * total energy  :   -55.2837236 Eh     change       -0.3587530E-04 Eh
   gradient norm :     0.0052473 Eh/α   predicted    -0.2796845E-04 ( -22.04%)
   displ. norm   :     0.0946781 α      lambda       -0.8181032E-04
   maximum displ.:     0.0569677 α      in ANC's #1, #2, #8, ...

........................................................................
.............................. CYCLE   31 ..............................
........................................................................

 iter      E             dE          RMSdq      gap      omega  full diag
   1    -55.7862304 -0.557862E+02  0.283E-02    3.71       0.0  T
   2    -55.7862315 -0.107653E-05  0.168E-02    3.70       1.1  T
   3    -55.7862315  0.537222E-07  0.475E-03    3.70       3.9  T
   4    -55.7862317 -0.261833E-06  0.151E-03    3.70      12.3  T
   5    -55.7862317 -0.221749E-07  0.731E-04    3.70      25.4  T
   6    -55.7862317 -0.294992E-08  0.290E-04    3.70      64.0  T
     SCC iter.                  ...        0 min,  0.007 sec
     gradient                   ...        0 min,  0.014 sec
 * total energy  :   -55.2837648 Eh     change       -0.4124371E-04 Eh
   gradient norm :     0.0044813 Eh/α   predicted    -0.4128413E-04 (   0.10%)
   displ. norm   :     0.1191652 α      lambda       -0.3775031E-04
   maximum displ.:     0.0719820 α      in ANC's #1, #2, #3, ...

........................................................................
.............................. CYCLE   32 ..............................
........................................................................

 iter      E             dE          RMSdq      gap      omega  full diag
   1    -55.7854308 -0.557854E+02  0.379E-02    3.70       0.0  T
   2    -55.7854317 -0.885800E-06  0.225E-02    3.70       1.0  T
   3    -55.7854317  0.188230E-07  0.404E-03    3.70       4.6  T
   4    -55.7854320 -0.254689E-06  0.156E-03    3.70      11.9  T
   5    -55.7854320 -0.967621E-08  0.684E-04    3.70      27.1  T
   6    -55.7854320 -0.336817E-08  0.212E-04    3.70      87.5  T
     SCC iter.                  ...        0 min,  0.007 sec
     gradient                   ...        0 min,  0.013 sec
 * total energy  :   -55.2837910 Eh     change       -0.2618608E-04 Eh
   gradient norm :     0.0040508 Eh/α   predicted    -0.1914398E-04 ( -26.89%)
   displ. norm   :     0.0921992 α      lambda       -0.4193862E-04
   maximum displ.:     0.0613877 α      in ANC's #1, #2, #4, ...

........................................................................
.............................. CYCLE   33 ..............................
........................................................................

 iter      E             dE          RMSdq      gap      omega  full diag
   1    -55.7857524 -0.557858E+02  0.251E-02    3.70       0.0  T
   2    -55.7857526 -0.279855E-06  0.149E-02    3.70       1.2  T
   3    -55.7857526  0.415154E-07  0.273E-03    3.70       6.8  T
   4    -55.7857527 -0.140156E-06  0.977E-04    3.70      19.0  T
   5    -55.7857527 -0.242605E-08  0.417E-04    3.70      44.5  T
     SCC iter.                  ...        0 min,  0.006 sec
     gradient                   ...        0 min,  0.013 sec
 * total energy  :   -55.2838149 Eh     change       -0.2388120E-04 Eh
   gradient norm :     0.0028789 Eh/α   predicted    -0.2114827E-04 ( -11.44%)
   displ. norm   :     0.1340840 α      lambda       -0.2845494E-04
   maximum displ.:     0.0863831 α      in ANC's #1, #2, #12, ...

........................................................................
.............................. CYCLE   34 ..............................
........................................................................

 iter      E             dE          RMSdq      gap      omega  full diag
   1    -55.7854415 -0.557854E+02  0.400E-02    3.70       0.0  T
   2    -55.7854425 -0.971583E-06  0.237E-02    3.70       1.0  T
   3    -55.7854424  0.865440E-07  0.454E-03    3.70       4.1  T
   4    -55.7854427 -0.342423E-06  0.163E-03    3.70      11.4  T
   5    -55.7854427 -0.119868E-07  0.712E-04    3.70      26.1  T
   6    -55.7854427 -0.295881E-08  0.248E-04    3.70      74.9  T
     SCC iter.                  ...        0 min,  0.022 sec
     gradient                   ...        0 min,  0.014 sec
 * total energy  :   -55.2838310 Eh     change       -0.1608905E-04 Eh
   gradient norm :     0.0036840 Eh/α   predicted    -0.1449357E-04 (  -9.92%)
   displ. norm   :     0.0363786 α      lambda       -0.1892151E-04
   maximum displ.:     0.0258495 α      in ANC's #1, #4, #2, ...

........................................................................
.............................. CYCLE   35 ..............................
........................................................................

 iter      E             dE          RMSdq      gap      omega  full diag
   1    -55.7863098 -0.557863E+02  0.107E-02    3.71       0.0  T
   2    -55.7863098 -0.866623E-07  0.631E-03    3.71       2.9  T
   3    -55.7863098  0.195444E-07  0.153E-03    3.71      12.2  T
   4    -55.7863099 -0.451668E-07  0.492E-04    3.71      37.7  T
   5    -55.7863099 -0.114519E-08  0.240E-04    3.71      77.5  T
     SCC iter.                  ...        0 min,  0.006 sec
     gradient                   ...        0 min,  0.013 sec
 * total energy  :   -55.2838414 Eh     change       -0.1042726E-04 Eh
   gradient norm :     0.0016868 Eh/α   predicted    -0.9475581E-05 (  -9.13%)
   displ. norm   :     0.0703316 α      lambda       -0.6707059E-05
   maximum displ.:     0.0511609 α      in ANC's #1, #12, #4, ...

........................................................................
.............................. CYCLE   36 ..............................
........................................................................

 iter      E             dE          RMSdq      gap      omega  full diag
   1    -55.7862482 -0.557862E+02  0.209E-02    3.71       0.0  T
   2    -55.7862485 -0.229377E-06  0.125E-02    3.70       1.5  T
   3    -55.7862484  0.214896E-07  0.223E-03    3.70       8.3  T
   4    -55.7862485 -0.854401E-07  0.834E-04    3.70      22.3  T
   5    -55.7862485 -0.345926E-08  0.368E-04    3.70      50.5  T
     SCC iter.                  ...        0 min,  0.006 sec
     gradient                   ...        0 min,  0.013 sec
 * total energy  :   -55.2838476 Eh     change       -0.6222818E-05 Eh
   gradient norm :     0.0011109 Eh/α   predicted    -0.3367287E-05 ( -45.89%)
   displ. norm   :     0.0262595 α      lambda       -0.3769496E-05
   maximum displ.:     0.0126421 α      in ANC's #1, #8, #5, ...

........................................................................
.............................. CYCLE   37 ..............................
........................................................................

 iter      E             dE          RMSdq      gap      omega  full diag
   1    -55.7864559 -0.557865E+02  0.787E-03    3.70       0.0  T
   2    -55.7864560 -0.350849E-07  0.469E-03    3.70       4.0  T
   3    -55.7864559  0.490223E-08  0.879E-04    3.70      21.1  T
   4    -55.7864560 -0.133367E-07  0.313E-04    3.70      59.3  T
     SCC iter.                  ...        0 min,  0.027 sec
     gradient                   ...        0 min,  0.014 sec
 * total energy  :   -55.2838512 Eh     change       -0.3551181E-05 Eh
   gradient norm :     0.0007549 Eh/α   predicted    -0.1887042E-05 ( -46.86%)
   displ. norm   :     0.0449892 α      lambda       -0.2875929E-05
   maximum displ.:     0.0287084 α      in ANC's #1, #12, #3, ...

   *** GEOMETRY OPTIMIZATION CONVERGED AFTER 37 ITERATIONS ***

------------------------------------------------------------------------
 total energy gain   :        -0.0156681 Eh       -9.8319 kcal/mol
 total RMSD          :         1.0201479 a0        0.5398 Å
 total power (kW/mol):        -1.1118018 (step)  -35.0437 (real)
------------------------------------------------------------------------

 ANCopt (total)                0 d,  0 h,  0 min,  1.174 sec
 optimizer setup                ...        0 min,  0.000 sec (  0.007%)
 model hessian                  ...        0 min,  0.022 sec (  1.907%)
 ANC generation                 ...        0 min,  0.002 sec (  0.131%)
 coordinate transformation      ...        0 min,  0.000 sec (  0.021%)
 single point calculation       ...        0 min,  1.139 sec ( 97.033%)
 optimization log               ...        0 min,  0.005 sec (  0.384%)
 hessian update                 ...        0 min,  0.000 sec (  0.031%)
 rational function              ...        0 min,  0.003 sec (  0.220%)

================
 final structure:
================
29
 xtb: 6.7.1 (edcfbbe)
O           -0.94844493886837        1.34555975172192        0.83659517876838
C           -2.12948883258689        1.31670304090912        0.06994457249747
C           -2.08498498749726        0.13173157469928       -0.89888485177448
C           -1.76647284117437       -1.20402864721396       -0.19734830781987
C           -0.60397155761365       -1.80217577392024       -1.03176346546038
C           -0.02611670237446       -0.53998840024418       -1.69912473307488
N            0.95412092013214        0.07862516161438       -0.83047043636557
C            1.47906279575112        1.31552296213664       -0.93235517139044
N            2.28418095845443        1.54684634233843        0.06985390923109
C            2.22539547099309        0.39745477200551        0.79666380732821
C            2.99530021682940        0.21667267144846        2.05078629304787
N            3.73673077985678        1.31045432800774        2.33693011052753
O            2.96432465782318       -0.77876223968651        2.73855144987330
N            1.42396625386459       -0.50269570540991        0.27047698577234
O           -1.10648795168849        0.31865786448738       -1.91816924015698
O           -1.05009477482113       -2.74234079075298       -1.96107094615570
O           -2.91455103470908       -2.00930181127621       -0.22522854697322
H           -0.99274553373893        2.07573320716729        1.46233461133983
H           -2.23558322467521        2.23770941187065       -0.51812405893219
H           -3.01141358821938        1.19554347207628        0.71259291868111
H           -3.06030246718317        0.06169993711164       -1.39475908924288
H           -1.42508812489473       -1.01792492752818        0.82814001868099
H            0.15106541957580       -2.29089396979776       -0.41463663854807
H            0.43262810095124       -0.75240143762317       -2.67317388101696
H            1.24784845816381        1.99043709612497       -1.72973712956770
H            4.31531449527982        1.32067030954854        3.15938848786138
H            3.71483286951389        2.09742475695256        1.71104625969608
H           -1.88370389519795       -2.43357064033908       -2.34163115186652
H           -2.68522094195042       -2.88356231642430        0.11267304504559

 Bond Distances (Angstroems)
 ---------------------------
O1-C2=1.4084         O1-H18=0.9626        C2-O1=1.4084         C2-C3=1.5313         C2-H19=1.0979        C2-H20=1.0979        
C3-C2=1.5313         C3-C4=1.5420         C3-O15=1.4253        C3-H21=1.0964        C4-C3=1.5420         C4-C5=1.5509         
C4-O17=1.4026        C4-H22=1.0967        C5-C4=1.5509         C5-C6=1.5403         C5-O16=1.3952        C5-H23=1.0908        
C6-C5=1.5403         C6-N7=1.4485         C6-O15=1.3973        C6-H24=1.0974        N7-C6=1.4485         N7-C8=1.3475         
N7-N14=1.3307        C8-N7=1.3475         C8-N9=1.3062         C8-H25=1.0699        N9-C8=1.3062         N9-C10=1.3612        
C10-N9=1.3612        C10-C11=1.4827       C10-N14=1.3151       C11-C10=1.4827       C11-N12=1.3520       C11-O13=1.2103       
N12-C11=1.3520       N12-H26=1.0056       N12-H27=1.0057       O13-C11=1.2103       N14-N7=1.3307        N14-C10=1.3151       
O15-C3=1.4253        O15-C6=1.3973        O16-C5=1.3952        O16-H28=0.9670       O17-C4=1.4026        O17-H29=0.9649       
H18-O1=0.9626        H19-C2=1.0979        H20-C2=1.0979        H21-C3=1.0964        H22-C4=1.0967        H23-C5=1.0908        
H24-C6=1.0974        H25-C8=1.0699        H26-N12=1.0056       H27-N12=1.0057       H28-O16=0.9670       H29-O17=0.9649       
 C  H  Rav=1.0924 sigma=0.0095  Rmin=1.0699  Rmax=1.0979     7
 C  C  Rav=1.5294 sigma=0.0242  Rmin=1.4827  Rmax=1.5509     5
 N  H  Rav=1.0057 sigma=0.0001  Rmin=1.0056  Rmax=1.0057     2
 N  C  Rav=1.3551 sigma=0.0462  Rmin=1.3062  Rmax=1.4485     6
 N  N  Rav=1.3307 sigma=0.0000  Rmin=1.3307  Rmax=1.3307     1
 O  H  Rav=0.9649 sigma=0.0018  Rmin=0.9626  Rmax=0.9670     3
 O  C  Rav=1.3732 sigma=0.0735  Rmin=1.2103  Rmax=1.4253     6

 selected bond angles (degree)
 --------------------
H18-O1-C2=109.32               C3-C2-O1=109.63                H19-C2-O1=110.82               H19-C2-C3=108.25               
H20-C2-O1=110.93               H20-C2-C3=107.96               H20-C2-H19=109.18              C4-C3-C2=112.86                
O15-C3-C2=111.77               O15-C3-C4=107.29               H21-C3-C2=108.04               H21-C3-C4=109.52               
H21-C3-O15=107.20              C5-C4-C3=104.13                O17-C4-C3=108.62               O17-C4-C5=112.42               
H22-C4-C3=110.04               H22-C4-C5=109.58               H22-C4-O17=111.76              C6-C5-C4=101.44                
O16-C5-C4=112.24               O16-C5-C6=112.56               H23-C5-C4=112.78               H23-C5-C6=110.65               
H23-C5-O16=107.23              N7-C6-C5=110.12                O15-C6-C5=106.34               O15-C6-N7=110.78               
H24-C6-C5=112.51               H24-C6-N7=109.39               H24-C6-O15=107.64              C8-N7-C6=127.61                
N14-N7-C6=123.27               N14-N7-C8=109.03               N9-C8-N7=110.16                H25-C8-N7=123.45               
H25-C8-N9=126.39               C10-N9-C8=103.50               C11-C10-N9=122.15              N14-C10-N9=113.00              
N14-C10-C11=124.85             

 selected dihedral angles (degree)
 ---------------------------------
C3-C2-O1-H18=181.71           H19-C2-O1-H18= 62.29          H20-C2-O1-H18=300.84          C4-C3-C2-O1= 52.06            
C4-C3-C2-H19=173.05           C4-C3-C2-H20=291.11           O15-C3-C2-O1=291.02           O15-C3-C2-H19= 52.01          
O15-C3-C2-H20=170.07          H21-C3-C2-O1=173.31           H21-C3-C2-H19=294.30          H21-C3-C2-H20= 52.36          
C5-C4-C3-C2=230.72            C5-C4-C3-O15=354.28           C5-C4-C3-H21=110.31           O17-C4-C3-C2=110.73           
O17-C4-C3-O15=234.29          O17-C4-C3-H21=350.32          H22-C4-C3-C2=348.09           H22-C4-C3-O15=111.65          
H22-C4-C3-H21=227.68          C6-C5-C4-C3= 22.54            C6-C5-C4-O17=139.93           C6-C5-C4-H22=264.85           
O16-C5-C4-C3=262.17           O16-C5-C4-O17= 19.56          O16-C5-C4-H22=144.49          H23-C5-C4-C3=140.91           
H23-C5-C4-O17=258.30          H23-C5-C4-H22= 23.22          N7-C6-C5-C4= 86.99            N7-C6-C5-O16=207.14           
N7-C6-C5-H23=327.09           O15-C6-C5-C4=326.91           O15-C6-C5-O16= 87.06          O15-C6-C5-H23=207.01          
H24-C6-C5-C4=209.31           H24-C6-C5-O16=329.46          H24-C6-C5-H23= 89.41          C8-N7-C6-C5=194.19            
C8-N7-C6-O15=311.55           C8-N7-C6-H24= 70.05           N14-N7-C6-C5= 10.20           N14-N7-C6-O15=127.56          
N14-N7-C6-H24=246.06          N9-C8-N7-C6=176.90            N9-C8-N7-N14=  0.43           H25-C8-N7-C6=357.11           
H25-C8-N7-N14=180.64          C10-N9-C8-N7=359.72           C10-N9-C8-H25=179.50          C11-C10-N9-C8=180.28          
N14-C10-N9-C8=  0.04          
           -------------------------------------------------
          |                Final Singlepoint                |
           -------------------------------------------------

          ...................................................
          :                      SETUP                      :
          :.................................................:
          :  # basis functions                  80          :
          :  # atomic orbitals                  80          :
          :  # shells                           46          :
          :  # electrons                        94          :
          :  max. iterations                   250          :
          :  Hamiltonian                  GFN2-xTB          :
          :  restarted?                      false          :
          :  GBSA solvation                  false          :
          :  PC potential                    false          :
          :  electronic temp.          300.0000000     K    :
          :  accuracy                    1.0000000          :
          :  -> integral cutoff          0.2500000E+02      :
          :  -> integral neglect         0.1000000E-07      :
          :  -> SCF convergence          0.1000000E-05 Eh   :
          :  -> wf. convergence          0.1000000E-03 e    :
          :  Broyden damping             0.4000000          :
          :  net charge                          0          :
          :  unpaired electrons                  0          :
          ...................................................

 iter      E             dE          RMSdq      gap      omega  full diag
   1    -55.7864560 -0.557865E+02  0.152E-04    3.70       0.0  T
   2    -55.7864560 -0.895710E-10  0.949E-05    3.70     195.7  T
   3    -55.7864560 -0.193907E-10  0.575E-05    3.70     322.7  T

   *** convergence criteria satisfied after 3 iterations ***

         #    Occupation            Energy/Eh            Energy/eV
      -------------------------------------------------------------
         1        2.0000           -0.7412840             -20.1714
       ...           ...                  ...                  ...
        41        2.0000           -0.4345695             -11.8252
        42        2.0000           -0.4325393             -11.7700
        43        2.0000           -0.4244437             -11.5497
        44        2.0000           -0.4172866             -11.3549
        45        2.0000           -0.4141526             -11.2697
        46        2.0000           -0.3994484             -10.8695
        47        2.0000           -0.3912977             -10.6478 (HOMO)
        48                         -0.2551616              -6.9433 (LUMO)
        49                         -0.2248577              -6.1187
        50                         -0.1342318              -3.6526
        51                         -0.0399264              -1.0865
        52                         -0.0252184              -0.6862
       ...                                ...                  ...
        80                          0.6999288              19.0460
      -------------------------------------------------------------
                  HL-Gap            0.1361361 Eh            3.7045 eV
             Fermi-level           -0.3232297 Eh           -8.7955 eV

 SCC (total)                   0 d,  0 h,  0 min,  0.023 sec
 SCC setup                      ...        0 min,  0.000 sec (  0.869%)
 Dispersion                     ...        0 min,  0.000 sec (  0.753%)
 classical contributions        ...        0 min,  0.000 sec (  0.321%)
 integral evaluation            ...        0 min,  0.005 sec ( 20.713%)
 iterations                     ...        0 min,  0.004 sec ( 17.585%)
 molecular gradient             ...        0 min,  0.013 sec ( 59.236%)
 printout                       ...        0 min,  0.000 sec (  0.491%)

         :::::::::::::::::::::::::::::::::::::::::::::::::::::
         ::                     SUMMARY                     ::
         :::::::::::::::::::::::::::::::::::::::::::::::::::::
         :: total energy             -55.283851200097 Eh    ::
         :: gradient norm              0.000753998004 Eh/a0 ::
         :: HOMO-LUMO gap              3.704452826934 eV    ::
         ::.................................................::
         :: SCC energy               -55.786135729935 Eh    ::
         :: -> isotropic ES            0.144554224654 Eh    ::
         :: -> anisotropic ES          0.001952387359 Eh    ::
         :: -> anisotropic XC          0.009467956814 Eh    ::
         :: -> dispersion             -0.028807725223 Eh    ::
         :: repulsion energy           0.502284529838 Eh    ::
         :: add. restraining           0.000000000000 Eh    ::
         :: total charge              -0.000000000000 e     ::
         :::::::::::::::::::::::::::::::::::::::::::::::::::::

           -------------------------------------------------
          |                Property Printout                |
           -------------------------------------------------

    * Orbital Energies and Occupations

         #    Occupation            Energy/Eh            Energy/eV
      -------------------------------------------------------------
         1        2.0000           -0.7412840             -20.1714
       ...           ...                  ...                  ...
        35        2.0000           -0.4923780             -13.3983
        36        2.0000           -0.4825824             -13.1317
        37        2.0000           -0.4633471             -12.6083
        38        2.0000           -0.4544948             -12.3674
        39        2.0000           -0.4521720             -12.3042
        40        2.0000           -0.4418835             -12.0243
        41        2.0000           -0.4345695             -11.8252
        42        2.0000           -0.4325393             -11.7700
        43        2.0000           -0.4244437             -11.5497
        44        2.0000           -0.4172866             -11.3549
        45        2.0000           -0.4141526             -11.2697
        46        2.0000           -0.3994484             -10.8695
        47        2.0000           -0.3912977             -10.6478 (HOMO)
        48                         -0.2551616              -6.9433 (LUMO)
        49                         -0.2248577              -6.1187
        50                         -0.1342318              -3.6526
        51                         -0.0399264              -1.0865
        52                         -0.0252184              -0.6862
        53                          0.0040130               0.1092
        54                          0.0103651               0.2820
        55                          0.0261698               0.7121
        56                          0.0344675               0.9379
        57                          0.0539296               1.4675
        58                          0.0616639               1.6780
       ...                                ...                  ...
        80                          0.6999288              19.0460
      -------------------------------------------------------------
                  HL-Gap            0.1361361 Eh            3.7045 eV
             Fermi-level           -0.3232297 Eh           -8.7955 eV

     #   Z          covCN         q      C6AA      α(0)
     1   8 O        1.656    -0.442    21.690     6.287
     2   6 C        3.673     0.075    19.555     6.337
     3   6 C        3.781     0.100    18.956     6.202
     4   6 C        3.741     0.094    19.095     6.235
     5   6 C        3.736     0.088    19.200     6.253
     6   6 C        3.730     0.154    18.192     6.088
     7   7 N        3.055     0.059    20.216     6.678
     8   6 C        3.143     0.104    25.469     8.258
     9   7 N        1.905    -0.286    28.270     7.883
    10   6 C        3.313     0.125    23.450     7.726
    11   6 C        2.746     0.280    22.268     7.727
    12   7 N        2.647    -0.266    26.880     7.700
    13   8 O        0.858    -0.413    21.943     6.281
    14   7 N        2.015    -0.212    26.376     7.617
    15   8 O        1.702    -0.314    19.235     5.921
    16   8 O        1.656    -0.427    21.385     6.243
    17   8 O        1.656    -0.438    21.607     6.275
    18   1 H        0.805     0.301     0.719     1.332
    19   1 H        0.924     0.040     2.443     2.444
    20   1 H        0.923     0.035     2.511     2.478
    21   1 H        0.924     0.064     2.150     2.293
    22   1 H        0.924     0.052     2.290     2.366
    23   1 H        0.924     0.082     1.961     2.190
    24   1 H        0.924     0.068     2.112     2.273
    25   1 H        0.927     0.055     2.252     2.347
    26   1 H        0.860     0.195     1.132     1.666
    27   1 H        0.860     0.204     1.086     1.633
    28   1 H        0.805     0.312     0.685     1.300
    29   1 H        0.805     0.311     0.688     1.303

 Mol. C6AA /au·bohr⁶  :       8912.473526
 Mol. C8AA /au·bohr⁸  :     198172.513280
 Mol. α(0) /au        :        139.336405


Wiberg/Mayer (AO) data.
largest (>0.10) Wiberg bond orders for each atom

 ---------------------------------------------------------------------------
     #   Z sym  total        # sym  WBO       # sym  WBO       # sym  WBO
 ---------------------------------------------------------------------------
     1   8 O    1.953 --     2 C    1.001    18 H    0.895
     2   6 C    3.960 --     1 O    1.001     3 C    0.987    20 H    0.968
                            19 H    0.968
     3   6 C    3.948 --     2 C    0.987     4 C    0.971    15 O    0.960
                            21 H    0.958
     4   6 C    3.958 --    17 O    1.006     3 C    0.971    22 H    0.959
                             5 C    0.952
     5   6 C    3.958 --    16 O    1.020    23 H    0.956     6 C    0.953
                             4 C    0.952
     6   6 C    3.940 --    15 O    0.995     5 C    0.953     7 N    0.952
                            24 H    0.946
     7   7 N    3.677 --     8 C    1.285    14 N    1.205     6 C    0.952
     8   6 C    3.963 --     9 N    1.528     7 N    1.285    25 H    0.963
                            14 N    0.122
     9   7 N    3.028 --     8 C    1.528    10 C    1.283
    10   6 C    3.965 --    14 N    1.506     9 N    1.283    11 C    0.982
    11   6 C    3.958 --    13 O    1.688    12 N    1.250    10 C    0.982
    12   7 N    3.386 --    11 C    1.250    26 H    0.942    27 H    0.935
                            13 O    0.212
    13   8 O    2.020 --    11 C    1.688    12 N    0.212
    14   7 N    2.991 --    10 C    1.506     7 N    1.205     8 C    0.122
    15   8 O    2.096 --     6 C    0.995     3 C    0.960
    16   8 O    1.986 --     5 C    1.020    28 H    0.882
    17   8 O    1.970 --     4 C    1.006    29 H    0.886
    18   1 H    0.910 --     1 O    0.895
    19   1 H    0.998 --     2 C    0.968
    20   1 H    0.999 --     2 C    0.968
    21   1 H    0.996 --     3 C    0.958
    22   1 H    0.997 --     4 C    0.959
    23   1 H    0.993 --     5 C    0.956
    24   1 H    0.995 --     6 C    0.946
    25   1 H    0.996 --     8 C    0.963
    26   1 H    0.961 --    12 N    0.942
    27   1 H    0.958 --    12 N    0.935
    28   1 H    0.902 --    16 O    0.882
    29   1 H    0.903 --    17 O    0.886
 ---------------------------------------------------------------------------

Topologies differ in total number of bonds
Writing topology from bond orders to xtbtopo.mol

molecular dipole:
                 x           y           z       tot (Debye)
 q only:       -0.807       1.151      -0.443
   full:       -0.992       1.641      -0.601       5.108
molecular quadrupole (traceless):
                xx          xy          yy          xz          yz          zz
 q only:        3.218      10.574       2.262      -2.577       9.165      -5.479
  q+dip:        2.057      10.185       1.439      -4.805       9.420      -3.497
   full:        3.264       9.551       0.937      -5.501      10.239      -4.201

           -------------------------------------------------
          |                Geometry Summary                 |
           -------------------------------------------------

      molecular mass/u    :      244.2050136
   center of mass at/Å    :        0.2635088      -0.1153977      -0.0238351
  moments of inertia/u·Å² :        0.5826397E+03   0.1627774E+04   0.1719464E+04
rotational constants/cm⁻¹ :        0.2893320E-01   0.1035625E-01   0.9804002E-02

 * 28 selected distances

     #   Z          #   Z                                           value/Å
     1   8 O        2   6 C                                       1.4083504
     2   6 C        3   6 C                                       1.5312638
     3   6 C        4   6 C                                       1.5420309 (max)
     5   6 C        6   6 C                                       1.5402612
     6   6 C        7   7 N                                       1.4484851
     7   7 N        8   6 C                                       1.3475389
     8   6 C        9   7 N                                       1.3061964
     9   7 N       10   6 C                                       1.3611795
    11   6 C       12   7 N                                       1.3520193
    11   6 C       13   8 O                                       1.2103187
     7   7 N       14   7 N                                       1.3307044
    10   6 C       14   7 N                                       1.3150789
     3   6 C       15   8 O                                       1.4252505
     6   6 C       15   8 O                                       1.3973032
     5   6 C       16   8 O                                       1.3951878
     4   6 C       17   8 O                                       1.4026140
     1   8 O       18   1 H                                       0.9626348 (min)
     2   6 C       19   1 H                                       1.0978769
     2   6 C       20   1 H                                       1.0979381
     3   6 C       21   1 H                                       1.0963759
     4   6 C       22   1 H                                       1.0967245
     5   6 C       23   1 H                                       1.0907667
     6   6 C       24   1 H                                       1.0974234
     8   6 C       25   1 H                                       1.0699474
    12   7 N       26   1 H                                       1.0056349
    12   7 N       27   1 H                                       1.0057498
    16   8 O       28   1 H                                       0.9669899
    17   8 O       29   1 H                                       0.9649359

 * 7 distinct bonds (by element types)

   Z      Z             #   av. dist./Å        max./Å        min./Å
   1 H    6 C           7     1.0924361     1.0979381     1.0699474
   6 C    6 C           3     1.5378520     1.5420309     1.5312638
   1 H    7 N           2     1.0056923     1.0057498     1.0056349
   6 C    7 N           6     1.3550830     1.4484851     1.3061964
   7 N    7 N           1     1.3307044     1.3307044     1.3307044
   1 H    8 O           3     0.9648536     0.9669899     0.9626348
   6 C    8 O           6     1.3731708     1.4252505     1.2103187


optimized geometry written to: xtbopt.xyz


           -------------------------------------------------
          | TOTAL ENERGY              -55.283851200097 Eh   |
          | GRADIENT NORM               0.000753998004 Eh/α |
          | HOMO-LUMO GAP               3.704452826934 eV   |
           -------------------------------------------------

------------------------------------------------------------------------
 * finished run on 2025/05/15 at 16:15:06.025     
------------------------------------------------------------------------
 total:
 * wall-time:     0 d,  0 h,  0 min,  1.242 sec
 *  cpu-time:     0 d,  0 h,  0 min,  1.033 sec
 * ratio c/w:     0.832 speedup
 SCF:
[...]
     |                    University of Bonn                     |     
      -----------------------------------------------------------      

   * xtb version 6.7.1 (edcfbbe) compiled by 'conda@3ef47c1a292c' on 2024-11-25

   xtb is free software: you can redistribute it and/or modify it under
   the terms of the GNU Lesser General Public License as published by
   the Free Software Foundation, either version 3 of the License, or
   (at your option) any later version.
   
   xtb is distributed in the hope that it will be useful,
   but WITHOUT ANY WARRANTY; without even the implied warranty of
   MERCHANTABILITY or FITNESS FOR A PARTICULAR PURPOSE.  See the
   GNU Lesser General Public License for more details.
   
   Cite this work as:
   * C. Bannwarth, E. Caldeweyher, S. Ehlert, A. Hansen, P. Pracht,
     J. Seibert, S. Spicher, S. Grimme, WIREs Comput. Mol. Sci., 2020, 11,
     e01493. DOI: 10.1002/wcms.1493
   
   for GFN2-xTB:
   * C. Bannwarth, S. Ehlert and S. Grimme., J. Chem. Theory Comput., 2019,
     15, 1652-1671. DOI: 10.1021/acs.jctc.8b01176
   for GFN1-xTB:
   * S. Grimme, C. Bannwarth, P. Shushkov, J. Chem. Theory Comput., 2017,
     13, 1989-2009. DOI: 10.1021/acs.jctc.7b00118
   for GFN0-xTB:
   * P. Pracht, E. Caldeweyher, S. Ehlert, S. Grimme, ChemRxiv, 2019, preprint.
     DOI: 10.26434/chemrxiv.8326202.v1
   for GFN-FF:
   * S. Spicher and S. Grimme, Angew. Chem. Int. Ed., 2020, 59, 15665-15673.
     DOI: 10.1002/anie.202004239
   
   for ALPB and GBSA implicit solvation:
   * S. Ehlert, M. Stahn, S. Spicher, S. Grimme, J. Chem. Theory Comput.,
     2021, 17, 4250-4261. DOI: 10.1021/acs.jctc.1c00471
   
   for ddCOSMO and CPCM-X implicit solvation:
   * M. Stahn, S. Ehlert, S. Grimme, J. Phys. Chem. A,
     2023, XX, XXXX-XXXX. DOI: 10.1021/acs.jpca.3c04382
   
   for DFT-D4:
   * E. Caldeweyher, C. Bannwarth and S. Grimme, J. Chem. Phys., 2017,
     147, 034112. DOI: 10.1063/1.4993215
   * E. Caldeweyher, S. Ehlert, A. Hansen, H. Neugebauer, S. Spicher,
     C. Bannwarth and S. Grimme, J. Chem. Phys., 2019, 150, 154122.
     DOI: 10.1063/1.5090222
   * E. Caldeweyher, J.-M. Mewes, S. Ehlert and S. Grimme, Phys. Chem. Chem. Phys.
     2020, 22, 8499-8512. DOI: 10.1039/D0CP00502A
   
   for sTDA-xTB:
   * S. Grimme and C. Bannwarth, J. Chem. Phys., 2016, 145, 054103.
     DOI: 10.1063/1.4959605
   
   in the mass-spec context:
   * V. Asgeirsson, C. Bauer and S. Grimme, Chem. Sci., 2017, 8, 4879.
     DOI: 10.1039/c7sc00601b
   * J. Koopman and S. Grimme, ACS Omega 2019, 4, 12, 15120-15133.
     DOI: 10.1021/acsomega.9b02011
   
   for metadynamics refer to:
   * S. Grimme, J. Chem. Theory Comput., 2019, 155, 2847-2862
     DOI: 10.1021/acs.jctc.9b00143
   
   for SPH calculations refer to:
   * S. Spicher and S. Grimme, J. Chem. Theory Comput., 2021, 17, 1701-1714
     DOI: 10.1021/acs.jctc.0c01306
   
   for ONIOM refer to:
   * C. Plett, A. Katbashev, S. Ehlert, S. Grimme, M. Bursch,
     Phys. Chem. Chem. Phys., 2023, 25, 17860-17868. DOI: 10.1039/D3CP02178E
   
   for DIPRO refer to:
   * J. Kohn, N. Gildemeister, S. Grimme, D. Fazzi, A. Hansen,
     J. Chem. Phys., 2023, just accepted.
   
   for PTB refer to:
   * S. Grimme, M. Mueller, A. Hansen, J. Chem. Phys., 2023, 158, 124111.
     DOI: 10.1063/5.0137838
   
   with help from (in alphabetical order)
   P. Atkinson, C. Bannwarth, F. Bohle, G. Brandenburg, E. Caldeweyher
   M. Checinski, S. Dohm, S. Ehlert, S. Ehrlich, I. Gerasimov, C. Hölzer
   A. Katbashev, J. Kohn, J. Koopman, C. Lavigne, S. Lehtola, F. März, M. Müller,
   F. Musil, H. Neugebauer, J. Pisarek, C. Plett, P. Pracht, F. Pultar,
   J. Seibert, P. Shushkov, S. Spicher, M. Stahn, M. Steiner, T. Strunk,
   J. Stückrath, T. Rose, and J. Unsleber
   
 * started run on 2025/05/15 at 16:15:07.237     
   ID    Z sym.   atoms
    1    8 O      1, 13, 15-17
    2    6 C      2-6, 8, 10, 11
    3    7 N      7, 9, 12, 14
    4    1 H      18-29

           -------------------------------------------------
          |                Calculation Setup                |
           -------------------------------------------------

          program call               : xtb /rds/general/user/hgt20/home/callum/QDESCP/Ribavirin_rdkit_conf_18/Ribavirin_rdkit_conf_18.xyz --acc 1 --gfn 2 --chrg 0 --uhf 2 --etemp 300 --input /rds/general/user/hgt20/home/callum/QDESCP/Ribavirin_rdkit_conf_18/Ribavirin_rdkit_conf_18_xtb.inp -P 1
          hostname                   : login-c
          coordinate file            : /rds/general/user/hgt20/home/callum/QDESCP/Ribavirin_rdkit_conf_18/Ribavirin_rdkit_conf_18.xyz
          omp threads                :                     1


           -------------------------------------------------
          |                 G F N 2 - x T B                 |
           -------------------------------------------------

        Reference                      10.1021/acs.jctc.8b01176
      * Hamiltonian:
        H0-scaling (s, p, d)           1.850000    2.230000    2.230000
        zeta-weighting                 0.500000
      * Dispersion:
        s8                             2.700000
        a1                             0.520000
        a2                             5.000000
        s9                             5.000000
      * Repulsion:
        kExp                           1.500000    1.000000
        rExp                           1.000000
      * Coulomb:
        alpha                          2.000000
        third order                    shell-resolved
        anisotropic                    true
        a3                             3.000000
        a5                             4.000000
        cn-shift                       1.200000
        cn-exp                         4.000000
        max-rad                        5.000000


          ...................................................
          :                      SETUP                      :
          :.................................................:
          :  # basis functions                  80          :
          :  # atomic orbitals                  80          :
          :  # shells                           46          :
          :  # electrons                        94          :
          :  max. iterations                   250          :
          :  Hamiltonian                  GFN2-xTB          :
          :  restarted?                      false          :
          :  GBSA solvation                  false          :
          :  PC potential                    false          :
          :  electronic temp.          300.0000000     K    :
          :  accuracy                    1.0000000          :
          :  -> integral cutoff          0.2500000E+02      :
          :  -> integral neglect         0.1000000E-07      :
          :  -> SCF convergence          0.1000000E-05 Eh   :
          :  -> wf. convergence          0.1000000E-03 e    :
          :  Broyden damping             0.4000000          :
          :  net charge                          0          :
          :  unpaired electrons                  2          :
          ...................................................

 iter      E             dE          RMSdq      gap      omega  full diag
   1    -55.3294638 -0.553295E+02  0.484E+00    1.02       0.0  T
   2    -55.4634969 -0.134033E+00  0.324E+00    0.93       1.0  T
   3    -55.4274814  0.360154E-01  0.276E+00    0.74       1.0  T
   4    -55.5426602 -0.115179E+00  0.187E+00    1.27       1.0  T
   5    -55.5140599  0.286003E-01  0.184E+00    0.26       1.0  T
   6    -55.5943167 -0.802568E-01  0.116E+00    0.52       1.0  T
   7    -55.6219618 -0.276451E-01  0.699E-01    0.54       1.0  T
   8    -55.6107535  0.112084E-01  0.784E-01    0.68       1.0  T
   9    -55.6180226 -0.726908E-02  0.755E-01    0.68       1.0  T
  10    -55.6253578 -0.733521E-02  0.587E-01    0.65       1.0  T
  11    -55.6366178 -0.112601E-01  0.255E-01    0.66       1.0  T
  12    -55.6383781 -0.176031E-02  0.128E-01    0.65       1.0  T
  13    -55.6383107  0.674719E-04  0.125E-01    0.65       1.0  T
  14    -55.6387678 -0.457097E-03  0.478E-02    0.65       1.0  T
  15    -55.6388170 -0.492744E-04  0.362E-02    0.65       1.0  T
  16    -55.6388190 -0.200332E-05  0.314E-02    0.65       1.0  T
  17    -55.6388455 -0.264880E-04  0.139E-02    0.64       1.3  T
  18    -55.6388525 -0.698314E-05  0.986E-04    0.64      18.8  T
  19    -55.6388524  0.925212E-07  0.160E-03    0.64      11.6  T
  20    -55.6388525 -0.111501E-06  0.271E-04    0.64      68.5  T
  21    -55.6388525 -0.174759E-08  0.181E-04    0.64     102.5  T

   *** convergence criteria satisfied after 21 iterations ***

         #    Occupation            Energy/Eh            Energy/eV
      -------------------------------------------------------------
         1        2.0000           -0.7367361             -20.0476
       ...           ...                  ...                  ...
        42        2.0000           -0.4312255             -11.7342
        43        2.0000           -0.4210056             -11.4561
        44        2.0000           -0.4173630             -11.3570
        45        1.9990           -0.4107809             -11.1779
        46        1.7969           -0.4055006             -11.0342
        47        1.2041           -0.4029086             -10.9637
        48        1.0000           -0.2461604              -6.6984 (HOMO)
        49        0.0000           -0.2224778              -6.0539 (LUMO)
        50                         -0.1264142              -3.4399
        51                         -0.0344755              -0.9381
        52                         -0.0207376              -0.5643
        53                          0.0071243               0.1939
       ...                                ...                  ...
        80                          0.7015366              19.0898
      -------------------------------------------------------------
                  HL-Gap            0.0236826 Eh            0.6444 eV
             Fermi-level           -0.3192604 Eh           -8.6875 eV

 transition dipole moment (au) for excitation:          47          48
     X       Y       Z   
   0.0440  -0.0021  -0.0121  total (au/Debye):    0.046   0.116
 dE (eV)             :    4.265
 oscillator strength :  0.30813E-03

 SCC (total)                   0 d,  0 h,  0 min,  0.051 sec
 SCC setup                      ...        0 min,  0.000 sec (  0.425%)
 Dispersion                     ...        0 min,  0.000 sec (  0.424%)
 classical contributions        ...        0 min,  0.000 sec (  0.160%)
 integral evaluation            ...        0 min,  0.005 sec (  9.299%)
 iterations                     ...        0 min,  0.024 sec ( 48.190%)
 molecular gradient             ...        0 min,  0.016 sec ( 32.500%)
 printout                       ...        0 min,  0.005 sec (  8.990%)

         :::::::::::::::::::::::::::::::::::::::::::::::::::::
         ::                     SUMMARY                     ::
         :::::::::::::::::::::::::::::::::::::::::::::::::::::
         :: total energy             -55.136247774081 Eh    ::
         :: gradient norm              0.155717176908 Eh/a0 ::
         :: HOMO-LUMO gap              0.644436852885 eV    ::
         ::.................................................::
         :: SCC energy               -55.638532303919 Eh    ::
         :: -> isotropic ES            0.132317724029 Eh    ::
         :: -> anisotropic ES          0.001600401873 Eh    ::
         :: -> anisotropic XC          0.003727540408 Eh    ::
         :: -> dispersion             -0.028831424337 Eh    ::
         :: repulsion energy           0.502284529838 Eh    ::
         :: add. restraining           0.000000000000 Eh    ::
         :: total charge              -0.000000000001 e     ::
         :::::::::::::::::::::::::::::::::::::::::::::::::::::

           -------------------------------------------------
          |                Property Printout                |
           -------------------------------------------------

    * Orbital Energies and Occupations

         #    Occupation            Energy/Eh            Energy/eV
      -------------------------------------------------------------
         1        2.0000           -0.7367361             -20.0476
       ...           ...                  ...                  ...
        36        2.0000           -0.4869520             -13.2506
        37        2.0000           -0.4615171             -12.5585
        38        2.0000           -0.4529291             -12.3248
        39        2.0000           -0.4478896             -12.1877
        40        2.0000           -0.4404493             -11.9852
        41        2.0000           -0.4334793             -11.7956
        42        2.0000           -0.4312255             -11.7342
        43        2.0000           -0.4210056             -11.4561
        44        2.0000           -0.4173630             -11.3570
        45        1.9990           -0.4107809             -11.1779
        46        1.7969           -0.4055006             -11.0342
        47        1.2041           -0.4029086             -10.9637
        48        1.0000           -0.2461604              -6.6984 (HOMO)
        49        0.0000           -0.2224778              -6.0539 (LUMO)
        50                         -0.1264142              -3.4399
        51                         -0.0344755              -0.9381
        52                         -0.0207376              -0.5643
        53                          0.0071243               0.1939
        54                          0.0130495               0.3551
        55                          0.0284867               0.7752
        56                          0.0373591               1.0166
        57                          0.0568956               1.5482
        58                          0.0655702               1.7843
        59                          0.1002078               2.7268
       ...                                ...                  ...
        80                          0.7015366              19.0898
      -------------------------------------------------------------
                  HL-Gap            0.0236826 Eh            0.6444 eV
             Fermi-level           -0.3192604 Eh           -8.6875 eV

     #   Z          covCN         q      C6AA      α(0)
     1   8 O        1.656    -0.439    21.618     6.277
     2   6 C        3.673     0.075    19.559     6.338
     3   6 C        3.781     0.100    18.950     6.201
     4   6 C        3.741     0.095    19.087     6.233
     5   6 C        3.736     0.092    19.145     6.244
     6   6 C        3.730     0.155    18.186     6.088
     7   7 N        3.055     0.035    20.622     6.745
     8   6 C        3.143     0.101    25.535     8.268
     9   7 N        1.905    -0.238    27.062     7.713
    10   6 C        3.313     0.103    23.878     7.796
    11   6 C        2.746     0.235    23.075     7.865
    12   7 N        2.647    -0.269    26.965     7.712
    13   8 O        0.858    -0.343    20.573     6.081
    14   7 N        2.015    -0.218    26.537     7.641
    15   8 O        1.702    -0.314    19.243     5.923
    16   8 O        1.656    -0.428    21.404     6.245
    17   8 O        1.656    -0.439    21.614     6.276
    18   1 H        0.805     0.300     0.722     1.335
    19   1 H        0.924     0.040     2.450     2.448
    20   1 H        0.923     0.034     2.525     2.485
    21   1 H        0.924     0.063     2.161     2.299
    22   1 H        0.924     0.052     2.292     2.368
    23   1 H        0.924     0.076     2.017     2.221
    24   1 H        0.924     0.064     2.149     2.292
    25   1 H        0.927     0.059     2.216     2.328
    26   1 H        0.860     0.190     1.158     1.686
    27   1 H        0.860     0.197     1.124     1.661
    28   1 H        0.805     0.313     0.684     1.299
    29   1 H        0.805     0.310     0.691     1.305

 Mol. C6AA /au·bohr⁶  :       8911.114775
 Mol. C8AA /au·bohr⁸  :     198176.873430
 Mol. α(0) /au        :        139.372454


Wiberg/Mayer (AO) data.
largest (>0.10) Wiberg bond orders for each atom

 ---------------------------------------------------------------------------
     #   Z sym  total        # sym  WBO       # sym  WBO       # sym  WBO
 ---------------------------------------------------------------------------
     1   8 O    1.955 --     2 C    1.002    18 H    0.896
     2   6 C    3.961 --     1 O    1.002     3 C    0.986    20 H    0.968
                            19 H    0.968
     3   6 C    3.948 --     2 C    0.986     4 C    0.971    15 O    0.961
                            21 H    0.958
     4   6 C    3.957 --    17 O    1.006     3 C    0.971    22 H    0.959
                             5 C    0.952
     5   6 C    3.956 --    16 O    1.019     6 C    0.954    23 H    0.952
                             4 C    0.952
     6   6 C    3.941 --    15 O    0.991     7 N    0.958     5 C    0.954
                            24 H    0.945
     7   7 N    3.611 --     8 C    1.275    14 N    1.113     6 C    0.958
                             9 N    0.121
     8   6 C    3.949 --     9 N    1.510     7 N    1.275    25 H    0.960
     9   7 N    3.076 --     8 C    1.510    10 C    1.215     7 N    0.121
    10   6 C    3.828 --    14 N    1.273     9 N    1.215    11 C    1.078
    11   6 C    3.888 --    13 O    1.487    12 N    1.153    10 C    1.078
    12   7 N    3.264 --    11 C    1.153    26 H    0.943    27 H    0.937
                            13 O    0.119
    13   8 O    1.896 --    11 C    1.487    12 N    0.119
    14   7 N    2.829 --    10 C    1.273     7 N    1.113
    15   8 O    2.094 --     6 C    0.991     3 C    0.961
    16   8 O    1.984 --     5 C    1.019    28 H    0.882
    17   8 O    1.970 --     4 C    1.006    29 H    0.886
    18   1 H    0.910 --     1 O    0.896
    19   1 H    0.998 --     2 C    0.968
    20   1 H    0.999 --     2 C    0.968
    21   1 H    0.995 --     3 C    0.958
    22   1 H    0.997 --     4 C    0.959
    23   1 H    0.993 --     5 C    0.952
    24   1 H    0.993 --     6 C    0.945
    25   1 H    0.995 --     8 C    0.960
    26   1 H    0.960 --    12 N    0.943
    27   1 H    0.961 --    12 N    0.937
    28   1 H    0.902 --    16 O    0.882
    29   1 H    0.904 --    17 O    0.886
 ---------------------------------------------------------------------------

Topologies differ in total number of bonds
Writing topology from bond orders to xtbtopo.mol

molecular dipole:
                 x           y           z       tot (Debye)
 q only:       -0.720       1.137      -0.299
   full:       -0.885       1.561      -0.385       4.665
molecular quadrupole (traceless):
                xx          xy          yy          xz          yz          zz
 q only:        2.925       9.854       2.078      -1.851       7.882      -5.003
  q+dip:        1.746       9.447       1.514      -3.653       7.952      -3.260
   full:        2.631       9.389       1.362      -3.724       8.622      -3.993


           -------------------------------------------------
          | TOTAL ENERGY              -55.136247774081 Eh   |
          | GRADIENT NORM               0.155717176908 Eh/α |
          | HOMO-LUMO GAP               0.644436852885 eV   |
           -------------------------------------------------

------------------------------------------------------------------------
 * finished run on 2025/05/15 at 16:15:07.297     
------------------------------------------------------------------------
 total:
 * wall-time:     0 d,  0 h,  0 min,  0.060 sec
 *  cpu-time:     0 d,  0 h,  0 min,  0.056 sec
 * ratio c/w:     0.927 speedup
 SCF:
 * wall-time:     0 d,  0 h,  0 min,  0.051 sec
 *  cpu-time:     0 d,  0 h,  0 min,  0.047 sec
 * ratio c/w:     0.935 speedup


