29
 energy: -55.283851200097 gnorm: 0.000753998004 xtb: 6.7.1 (edcfbbe)
O           -0.94844493886837        1.34555975172192        0.83659517876838
C           -2.12948883258689        1.31670304090912        0.06994457249747
C           -2.08498498749726        0.13173157469928       -0.89888485177448
C           -1.76647284117437       -1.20402864721396       -0.19734830781987
C           -0.60397155761365       -1.80217577392024       -1.03176346546038
C           -0.02611670237446       -0.53998840024418       -1.69912473307488
N            0.95412092013214        0.07862516161438       -0.83047043636557
C            1.47906279575112        1.31552296213664       -0.93235517139044
N            2.28418095845443        1.54684634233843        0.06985390923109
C            2.22539547099309        0.39745477200551        0.79666380732821
C            2.99530021682940        0.21667267144846        2.05078629304787
N            3.73673077985678        1.31045432800774        2.33693011052753
O            2.96432465782318       -0.77876223968651        2.73855144987330
N            1.42396625386459       -0.50269570540991        0.27047698577234
O           -1.10648795168849        0.31865786448738       -1.91816924015698
O           -1.05009477482113       -2.74234079075298       -1.96107094615570
O           -2.91455103470908       -2.00930181127621       -0.22522854697322
H           -0.99274553373893        2.07573320716729        1.46233461133983
H           -2.23558322467521        2.23770941187065       -0.51812405893219
H           -3.01141358821938        1.19554347207628        0.71259291868111
H           -3.06030246718317        0.06169993711164       -1.39475908924288
H           -1.42508812489473       -1.01792492752818        0.82814001868099
H            0.15106541957580       -2.29089396979776       -0.41463663854807
H            0.43262810095124       -0.75240143762317       -2.67317388101696
H            1.24784845816381        1.99043709612497       -1.72973712956770
H            4.31531449527982        1.32067030954854        3.15938848786138
H            3.71483286951389        2.09742475695256        1.71104625969608
H           -1.88370389519795       -2.43357064033908       -2.34163115186652
H           -2.68522094195042       -2.88356231642430        0.11267304504559
