----- Optimization -----
      -----------------------------------------------------------      
     |                   =====================                   |     
     |                           x T B                           |     
     |                   =====================                   |     
     |                         S. Grimme                         |     
     |          Mulliken Center for Theoretical Chemistry        |     
     |                    University of Bonn                     |     
      -----------------------------------------------------------      

   * xtb version 6.7.1 (edcfbbe) compiled by 'conda@3ef47c1a292c' on 2024-11-25

   xtb is free software: you can redistribute it and/or modify it under
   the terms of the GNU Lesser General Public License as published by
   the Free Software Foundation, either version 3 of the License, or
   (at your option) any later version.
   
   xtb is distributed in the hope that it will be useful,
   but WITHOUT ANY WARRANTY; without even the implied warranty of
   MERCHANTABILITY or FITNESS FOR A PARTICULAR PURPOSE.  See the
   GNU Lesser General Public License for more details.
   
   Cite this work as:
   * C. Bannwarth, E. Caldeweyher, S. Ehlert, A. Hansen, P. Pracht,
     J. Seibert, S. Spicher, S. Grimme, WIREs Comput. Mol. Sci., 2020, 11,
     e01493. DOI: 10.1002/wcms.1493
   
   for GFN2-xTB:
   * C. Bannwarth, S. Ehlert and S. Grimme., J. Chem. Theory Comput., 2019,
     15, 1652-1671. DOI: 10.1021/acs.jctc.8b01176
   for GFN1-xTB:
   * S. Grimme, C. Bannwarth, P. Shushkov, J. Chem. Theory Comput., 2017,
     13, 1989-2009. DOI: 10.1021/acs.jctc.7b00118
   for GFN0-xTB:
   * P. Pracht, E. Caldeweyher, S. Ehlert, S. Grimme, ChemRxiv, 2019, preprint.
     DOI: 10.26434/chemrxiv.8326202.v1
   for GFN-FF:
   * S. Spicher and S. Grimme, Angew. Chem. Int. Ed., 2020, 59, 15665-15673.
     DOI: 10.1002/anie.202004239
   
   for ALPB and GBSA implicit solvation:
   * S. Ehlert, M. Stahn, S. Spicher, S. Grimme, J. Chem. Theory Comput.,
     2021, 17, 4250-4261. DOI: 10.1021/acs.jctc.1c00471
   
   for ddCOSMO and CPCM-X implicit solvation:
   * M. Stahn, S. Ehlert, S. Grimme, J. Phys. Chem. A,
     2023, XX, XXXX-XXXX. DOI: 10.1021/acs.jpca.3c04382
   
   for DFT-D4:
   * E. Caldeweyher, C. Bannwarth and S. Grimme, J. Chem. Phys., 2017,
     147, 034112. DOI: 10.1063/1.4993215
   * E. Caldeweyher, S. Ehlert, A. Hansen, H. Neugebauer, S. Spicher,
     C. Bannwarth and S. Grimme, J. Chem. Phys., 2019, 150, 154122.
     DOI: 10.1063/1.5090222
   * E. Caldeweyher, J.-M. Mewes, S. Ehlert and S. Grimme, Phys. Chem. Chem. Phys.
     2020, 22, 8499-8512. DOI: 10.1039/D0CP00502A
   
   for sTDA-xTB:
   * S. Grimme and C. Bannwarth, J. Chem. Phys., 2016, 145, 054103.
     DOI: 10.1063/1.4959605
   
   in the mass-spec context:
   * V. Asgeirsson, C. Bauer and S. Grimme, Chem. Sci., 2017, 8, 4879.
     DOI: 10.1039/c7sc00601b
   * J. Koopman and S. Grimme, ACS Omega 2019, 4, 12, 15120-15133.
     DOI: 10.1021/acsomega.9b02011
   
   for metadynamics refer to:
   * S. Grimme, J. Chem. Theory Comput., 2019, 155, 2847-2862
     DOI: 10.1021/acs.jctc.9b00143
   
   for SPH calculations refer to:
   * S. Spicher and S. Grimme, J. Chem. Theory Comput., 2021, 17, 1701-1714
     DOI: 10.1021/acs.jctc.0c01306
   
   for ONIOM refer to:
   * C. Plett, A. Katbashev, S. Ehlert, S. Grimme, M. Bursch,
     Phys. Chem. Chem. Phys., 2023, 25, 17860-17868. DOI: 10.1039/D3CP02178E
   
   for DIPRO refer to:
   * J. Kohn, N. Gildemeister, S. Grimme, D. Fazzi, A. Hansen,
     J. Chem. Phys., 2023, just accepted.
   
   for PTB refer to:
   * S. Grimme, M. Mueller, A. Hansen, J. Chem. Phys., 2023, 158, 124111.
     DOI: 10.1063/5.0137838
   
   with help from (in alphabetical order)
   P. Atkinson, C. Bannwarth, F. Bohle, G. Brandenburg, E. Caldeweyher
   M. Checinski, S. Dohm, S. Ehlert, S. Ehrlich, I. Gerasimov, C. Hölzer
   A. Katbashev, J. Kohn, J. Koopman, C. Lavigne, S. Lehtola, F. März, M. Müller,
   F. Musil, H. Neugebauer, J. Pisarek, C. Plett, P. Pracht, F. Pultar,
   J. Seibert, P. Shushkov, S. Spicher, M. Stahn, M. Steiner, T. Strunk,
   J. Stückrath, T. Rose, and J. Unsleber
   
 * started run on 2025/05/15 at 16:12:36.165     
   ID    Z sym.   atoms
    1    6 C      1-7, 9, 11, 13-16, 18, 19, 21, 22, 24, 26-31
    2    7 N      8, 10, 12, 17, 20, 23, 25
    3    8 O      32, 33
    4    1 H      34-62

           -------------------------------------------------
          |                Calculation Setup                |
           -------------------------------------------------

          program call               : xtb /rds/general/user/hgt20/home/callum/QDESCP/Palbociclib_rdkit_conf_13/Palbociclib_rdkit_conf_13.xyz --opt normal --acc 1 --gfn 2 --chrg 0 --uhf 0 -P 1
          hostname                   : login-c
          coordinate file            : /rds/general/user/hgt20/home/callum/QDESCP/Palbociclib_rdkit_conf_13/Palbociclib_rdkit_conf_13.xyz
          omp threads                :                     1


           -------------------------------------------------
          |                 G F N 2 - x T B                 |
           -------------------------------------------------

        Reference                      10.1021/acs.jctc.8b01176
      * Hamiltonian:
        H0-scaling (s, p, d)           1.850000    2.230000    2.230000
        zeta-weighting                 0.500000
      * Dispersion:
        s8                             2.700000
        a1                             0.520000
        a2                             5.000000
        s9                             5.000000
      * Repulsion:
        kExp                           1.500000    1.000000
        rExp                           1.000000
      * Coulomb:
        alpha                          2.000000
        third order                    shell-resolved
        anisotropic                    true
        a3                             3.000000
        a5                             4.000000
        cn-shift                       1.200000
        cn-exp                         4.000000
        max-rad                        5.000000


          ...................................................
          :                      SETUP                      :
          :.................................................:
          :  # basis functions                 161          :
          :  # atomic orbitals                 161          :
          :  # shells                           95          :
          :  # electrons                       172          :
          :  max. iterations                   250          :
          :  Hamiltonian                  GFN2-xTB          :
          :  restarted?                      false          :
          :  GBSA solvation                  false          :
          :  PC potential                    false          :
          :  electronic temp.          300.0000000     K    :
          :  accuracy                    1.0000000          :
          :  -> integral cutoff          0.2500000E+02      :
          :  -> integral neglect         0.1000000E-07      :
          :  -> SCF convergence          0.1000000E-05 Eh   :
          :  -> wf. convergence          0.1000000E-03 e    :
          :  Broyden damping             0.4000000          :
          :  net charge                          0          :
          :  unpaired electrons                  0          :
          ...................................................

 iter      E             dE          RMSdq      gap      omega  full diag
   1    -95.9205929 -0.959206E+02  0.393E+00    1.76       0.0  T
   2    -96.0702468 -0.149654E+00  0.235E+00    1.87       1.0  T
   3    -96.0774729 -0.722609E-02  0.125E+00    1.74       1.0  T
   4    -96.0868325 -0.935962E-02  0.340E-01    1.55       1.0  T
   5    -96.0915977 -0.476522E-02  0.139E-01    1.63       1.0  T
   6    -96.0923462 -0.748495E-03  0.532E-02    1.63       1.0  T
   7    -96.0924160 -0.697591E-04  0.207E-02    1.63       1.0  T
   8    -96.0924195 -0.354449E-05  0.867E-03    1.64       1.5  T
   9    -96.0924204 -0.902025E-06  0.332E-03    1.64       3.8  T
  10    -96.0924206 -0.232936E-06  0.127E-03    1.64      10.0  T
  11    -96.0924207 -0.334483E-07  0.638E-04    1.64      19.9  T
  12    -96.0924207 -0.629468E-08  0.258E-04    1.64      49.2  T

   *** convergence criteria satisfied after 12 iterations ***

         #    Occupation            Energy/Eh            Energy/eV
      -------------------------------------------------------------
         1        2.0000           -0.7008877             -19.0721
       ...           ...                  ...                  ...
        80        2.0000           -0.4019710             -10.9382
        81        2.0000           -0.3956716             -10.7668
        82        2.0000           -0.3894317             -10.5970
        83        2.0000           -0.3782254             -10.2920
        84        2.0000           -0.3756566             -10.2221
        85        2.0000           -0.3695189             -10.0551
        86        2.0000           -0.3530601              -9.6073 (HOMO)
        87                         -0.2929004              -7.9702 (LUMO)
        88                         -0.2703215              -7.3558
        89                         -0.2518158              -6.8523
        90                         -0.2435869              -6.6283
        91                         -0.2340821              -6.3697
       ...                                ...                  ...
       161                          0.6847662              18.6334
      -------------------------------------------------------------
                  HL-Gap            0.0601597 Eh            1.6370 eV
             Fermi-level           -0.3229802 Eh           -8.7887 eV

 SCC (total)                   0 d,  0 h,  0 min,  0.130 sec
 SCC setup                      ...        0 min,  0.001 sec (  0.510%)
 Dispersion                     ...        0 min,  0.001 sec (  0.828%)
 classical contributions        ...        0 min,  0.000 sec (  0.237%)
 integral evaluation            ...        0 min,  0.013 sec ( 10.068%)
 iterations                     ...        0 min,  0.053 sec ( 40.843%)
 molecular gradient             ...        0 min,  0.061 sec ( 47.228%)
 printout                       ...        0 min,  0.000 sec (  0.279%)

         :::::::::::::::::::::::::::::::::::::::::::::::::::::
         ::                     SUMMARY                     ::
         :::::::::::::::::::::::::::::::::::::::::::::::::::::
         :: total energy             -94.853070202555 Eh    ::
         :: gradient norm              0.129844744287 Eh/a0 ::
         :: HOMO-LUMO gap              1.637029004671 eV    ::
         ::.................................................::
         :: SCC energy               -96.092620678926 Eh    ::
         :: -> isotropic ES            0.111344709063 Eh    ::
         :: -> anisotropic ES          0.009999427781 Eh    ::
         :: -> anisotropic XC          0.055551859532 Eh    ::
         :: -> dispersion             -0.069621549664 Eh    ::
         :: repulsion energy           1.239550476371 Eh    ::
         :: add. restraining           0.000000000000 Eh    ::
         :: total charge               0.000000000000 e     ::
         :::::::::::::::::::::::::::::::::::::::::::::::::::::

      ----------------------------------------------------------- 
     |                   =====================                   |
     |                        A N C O P T                        |
     |                   =====================                   |
     |               Approximate Normal Coordinate               |
     |                Rational Function Optimizer                |
      ----------------------------------------------------------- 
      ----------------------------------------------------------- 
     |                   =====================                   |
     |                        A N C O P T                        |
     |                   =====================                   |
     |               Approximate Normal Coordinate               |
     |                Rational Function Optimizer                |
      ----------------------------------------------------------- 

          ...................................................
          :                      SETUP                      :
          :.................................................:
          :   optimization level            normal          :
          :   max. optcycles                   200          :
          :   ANC micro-cycles                  20          :
          :   degrees of freedom               180          :
          :.................................................:
          :   RF solver                   davidson          :
          :   write xtbopt.log                true          :
          :   linear?                        false          :
          :   energy convergence         0.5000000E-05 Eh   :
          :   grad. convergence          0.1000000E-02 Eh/α :
          :   maxmium RF displ.          1.0000000          :
          :   Hlow (freq-cutoff)         0.1000000E-01      :
          :   Hmax (freq-cutoff)         5.0000000          :
          :   S6 in model hess.         20.0000000          :
          ...................................................

generating ANC from exact Hessian ...
Using Lindh-Hessian (1995)
 Shifting diagonal of input Hessian by    9.8516836567684347E-003
 Lowest  eigenvalues of input Hessian
    0.000000    0.000000    0.000000    0.000000    0.000000    0.000000
    0.010000    0.010091    0.010299    0.010404    0.010780    0.010973
    0.011183    0.011690    0.011976    0.012186    0.012824    0.013572
 Highest eigenvalues
    2.049657    2.064549    2.125116    2.226205    2.259670    2.302476


........................................................................
.............................. CYCLE    1 ..............................
........................................................................

 iter      E             dE          RMSdq      gap      omega  full diag
   1    -96.0924207 -0.960924E+02  0.847E-05    1.64       0.0  T
   2    -96.0924207 -0.128125E-09  0.558E-05    1.64     227.4  T
   3    -96.0924207 -0.113602E-09  0.319E-05    1.64     397.7  T
     SCC iter.                  ...        0 min,  0.014 sec
     gradient                   ...        0 min,  0.061 sec
 * total energy  :   -94.8530702 Eh     change       -0.1144812E-08 Eh
   gradient norm :     0.1298457 Eh/α   predicted     0.0000000E+00 (-100.00%)
   displ. norm   :     0.4156521 α      lambda       -0.2449904E-01
   maximum displ.:     0.1086330 α      in ANC's #73, #28, #13, ...

........................................................................
.............................. CYCLE    2 ..............................
........................................................................

 iter      E             dE          RMSdq      gap      omega  full diag
   1    -96.1371773 -0.961372E+02  0.208E-01    1.62       0.0  T
   2    -96.1374554 -0.278075E-03  0.126E-01    1.71       1.0  T
   3    -96.1374365  0.189173E-04  0.662E-02    1.69       1.0  T
   4    -96.1375227 -0.861832E-04  0.174E-02    1.70       1.0  T
   5    -96.1375376 -0.149555E-04  0.557E-03    1.71       2.3  T
   6    -96.1375387 -0.110352E-05  0.261E-03    1.70       4.9  T
   7    -96.1375388 -0.808977E-07  0.109E-03    1.70      11.7  T
   8    -96.1375388 -0.249536E-07  0.315E-04    1.70      40.3  T
   9    -96.1375388 -0.195540E-08  0.158E-04    1.70      80.5  T
     SCC iter.                  ...        0 min,  0.048 sec
     gradient                   ...        0 min,  0.056 sec
 * total energy  :   -94.8703819 Eh     change       -0.1731170E-01 Eh
   gradient norm :     0.0582352 Eh/α   predicted    -0.1440137E-01 ( -16.81%)
   displ. norm   :     0.4403888 α      lambda       -0.9805392E-02
   maximum displ.:     0.1892615 α      in ANC's #13, #28, #27, ...

........................................................................
.............................. CYCLE    3 ..............................
........................................................................

 iter      E             dE          RMSdq      gap      omega  full diag
   1    -96.1687682 -0.961688E+02  0.144E-01    1.64       0.0  T
   2    -96.1689755 -0.207301E-03  0.874E-02    1.72       1.0  T
   3    -96.1690097 -0.341481E-04  0.512E-02    1.71       1.0  T
   4    -96.1690376 -0.279444E-04  0.156E-02    1.72       1.0  T
   5    -96.1690499 -0.123213E-04  0.443E-03    1.72       2.9  T
   6    -96.1690508 -0.852277E-06  0.188E-03    1.72       6.7  T
   7    -96.1690508 -0.402623E-07  0.720E-04    1.72      17.6  T
   8    -96.1690508 -0.835924E-08  0.227E-04    1.72      55.9  T
     SCC iter.                  ...        0 min,  0.034 sec
     gradient                   ...        0 min,  0.071 sec
 * total energy  :   -94.8766042 Eh     change       -0.6222326E-02 Eh
   gradient norm :     0.0202778 Eh/α   predicted    -0.5853538E-02 (  -5.93%)
   displ. norm   :     0.3699315 α      lambda       -0.2635117E-02
   maximum displ.:     0.2135265 α      in ANC's #13, #11, #19, ...

........................................................................
.............................. CYCLE    4 ..............................
........................................................................

 iter      E             dE          RMSdq      gap      omega  full diag
   1    -96.1796895 -0.961797E+02  0.771E-02    1.67       0.0  T
   2    -96.1797290 -0.395416E-04  0.457E-02    1.70       1.0  T
   3    -96.1797258  0.319613E-05  0.271E-02    1.69       1.0  T
   4    -96.1797399 -0.140791E-04  0.746E-03    1.70       1.7  T
   5    -96.1797429 -0.302367E-05  0.211E-03    1.70       6.0  T
   6    -96.1797431 -0.158760E-06  0.945E-04    1.70      13.4  T
   7    -96.1797431 -0.741196E-08  0.274E-04    1.70      46.3  T
     SCC iter.                  ...        0 min,  0.030 sec
     gradient                   ...        0 min,  0.078 sec
 * total energy  :   -94.8785296 Eh     change       -0.1925399E-02 Eh
   gradient norm :     0.0156870 Eh/α   predicted    -0.1497889E-02 ( -22.20%)
   displ. norm   :     0.4043371 α      lambda       -0.1625057E-02
   maximum displ.:     0.2426106 α      in ANC's #13, #11, #8, ...

........................................................................
.............................. CYCLE    5 ..............................
........................................................................

 iter      E             dE          RMSdq      gap      omega  full diag
   1    -96.1858765 -0.961859E+02  0.742E-02    1.66       0.0  T
   2    -96.1858972 -0.207108E-04  0.436E-02    1.66       1.0  T
   3    -96.1858884  0.883852E-05  0.203E-02    1.66       1.0  T
   4    -96.1859010 -0.125628E-04  0.505E-03    1.66       2.5  T
   5    -96.1859023 -0.131689E-05  0.180E-03    1.66       7.1  T
   6    -96.1859024 -0.841445E-07  0.863E-04    1.66      14.7  T
   7    -96.1859024 -0.661291E-08  0.267E-04    1.66      47.5  T
     SCC iter.                  ...        0 min,  0.063 sec
     gradient                   ...        0 min,  0.051 sec
 * total energy  :   -94.8796352 Eh     change       -0.1105580E-02 Eh
   gradient norm :     0.0100435 Eh/α   predicted    -0.9453741E-03 ( -14.49%)
   displ. norm   :     0.2965319 α      lambda       -0.6201906E-03
   maximum displ.:     0.1638831 α      in ANC's #13, #11, #8, ...

........................................................................
.............................. CYCLE    6 ..............................
........................................................................

 iter      E             dE          RMSdq      gap      omega  full diag
   1    -96.1884977 -0.961885E+02  0.509E-02    1.65       0.0  T
   2    -96.1885021 -0.437918E-05  0.296E-02    1.64       1.0  T
   3    -96.1884993  0.281769E-05  0.894E-03    1.64       1.4  T
   4    -96.1885028 -0.356033E-05  0.224E-03    1.64       5.7  T
   5    -96.1885030 -0.196150E-06  0.978E-04    1.64      13.0  T
   6    -96.1885030 -0.165246E-07  0.495E-04    1.64      25.7  T
     SCC iter.                  ...        0 min,  0.025 sec
     gradient                   ...        0 min,  0.077 sec
 * total energy  :   -94.8800722 Eh     change       -0.4369897E-03 Eh
   gradient norm :     0.0072283 Eh/α   predicted    -0.3373627E-03 ( -22.80%)
   displ. norm   :     0.2645126 α      lambda       -0.3839410E-03
   maximum displ.:     0.1144493 α      in ANC's #13, #11, #8, ...

........................................................................
.............................. CYCLE    7 ..............................
........................................................................

 iter      E             dE          RMSdq      gap      omega  full diag
   1    -96.1895238 -0.961895E+02  0.480E-02    1.64       0.0  T
   2    -96.1895258 -0.206741E-05  0.281E-02    1.63       1.0  T
   3    -96.1895248  0.105550E-05  0.505E-03    1.63       2.5  T
   4    -96.1895261 -0.137561E-05  0.174E-03    1.63       7.3  T
   5    -96.1895263 -0.112927E-06  0.787E-04    1.63      16.1  T
   6    -96.1895263 -0.934733E-08  0.393E-04    1.63      32.3  T
     SCC iter.                  ...        0 min,  0.026 sec
     gradient                   ...        0 min,  0.082 sec
 * total energy  :   -94.8803533 Eh     change       -0.2811396E-03 Eh
   gradient norm :     0.0063203 Eh/α   predicted    -0.2054027E-03 ( -26.94%)
   displ. norm   :     0.2659223 α      lambda       -0.3291919E-03
   maximum displ.:     0.1105502 α      in ANC's #8, #10, #11, ...

........................................................................
.............................. CYCLE    8 ..............................
........................................................................

 iter      E             dE          RMSdq      gap      omega  full diag
   1    -96.1897094 -0.961897E+02  0.581E-02    1.63       0.0  T
   2    -96.1897117 -0.224589E-05  0.343E-02    1.63       1.0  T
   3    -96.1897077  0.400035E-05  0.890E-03    1.63       1.4  T
   4    -96.1897123 -0.464012E-05  0.200E-03    1.63       6.3  T
   5    -96.1897125 -0.141122E-06  0.854E-04    1.63      14.9  T
   6    -96.1897125 -0.802719E-08  0.453E-04    1.63      28.1  T
     SCC iter.                  ...        0 min,  0.057 sec
     gradient                   ...        0 min,  0.051 sec
 * total energy  :   -94.8805936 Eh     change       -0.2402628E-03 Eh
   gradient norm :     0.0062384 Eh/α   predicted    -0.1762359E-03 ( -26.65%)
   displ. norm   :     0.2570318 α      lambda       -0.2778884E-03
   maximum displ.:     0.1056827 α      in ANC's #10, #8, #11, ...

........................................................................
.............................. CYCLE    9 ..............................
........................................................................

 iter      E             dE          RMSdq      gap      omega  full diag
   1    -96.1893911 -0.961894E+02  0.632E-02    1.63       0.0  T
   2    -96.1893932 -0.210703E-05  0.373E-02    1.63       1.0  T
   3    -96.1893849  0.833415E-05  0.127E-02    1.63       1.0  T
   4    -96.1893944 -0.952810E-05  0.186E-03    1.63       6.8  T
   5    -96.1893945 -0.910825E-07  0.903E-04    1.63      14.1  T
   6    -96.1893945 -0.810651E-08  0.473E-04    1.63      26.8  T
     SCC iter.                  ...        0 min,  0.025 sec
     gradient                   ...        0 min,  0.090 sec
 * total energy  :   -94.8807980 Eh     change       -0.2043625E-03 Eh
   gradient norm :     0.0063366 Eh/α   predicted    -0.1481273E-03 ( -27.52%)
   displ. norm   :     0.2458470 α      lambda       -0.2447419E-03
   maximum displ.:     0.0891442 α      in ANC's #10, #8, #18, ...

........................................................................
.............................. CYCLE   10 ..............................
........................................................................

 iter      E             dE          RMSdq      gap      omega  full diag
   1    -96.1891685 -0.961892E+02  0.639E-02    1.63       0.0  T
   2    -96.1891708 -0.223802E-05  0.376E-02    1.63       1.0  T
   3    -96.1891586  0.122089E-04  0.156E-02    1.64       1.0  T
   4    -96.1891725 -0.139663E-04  0.177E-03    1.64       7.2  T
   5    -96.1891726 -0.754483E-07  0.848E-04    1.64      15.0  T
   6    -96.1891726 -0.797745E-08  0.423E-04    1.64      30.0  T
     SCC iter.                  ...        0 min,  0.064 sec
     gradient                   ...        0 min,  0.051 sec
 * total energy  :   -94.8809756 Eh     change       -0.1776311E-03 Eh
   gradient norm :     0.0059028 Eh/α   predicted    -0.1297715E-03 ( -26.94%)
   displ. norm   :     0.2315612 α      lambda       -0.1918056E-03
   maximum displ.:     0.0810567 α      in ANC's #18, #10, #8, ...

........................................................................
.............................. CYCLE   11 ..............................
........................................................................

 iter      E             dE          RMSdq      gap      omega  full diag
   1    -96.1887325 -0.961887E+02  0.539E-02    1.63       0.0  T
   2    -96.1887345 -0.208589E-05  0.315E-02    1.64       1.0  T
   3    -96.1887253  0.920702E-05  0.144E-02    1.64       1.0  T
   4    -96.1887361 -0.107326E-04  0.186E-03    1.64       6.8  T
   5    -96.1887362 -0.119409E-06  0.861E-04    1.64      14.7  T
   6    -96.1887362 -0.979470E-08  0.429E-04    1.64      29.6  T
     SCC iter.                  ...        0 min,  0.059 sec
     gradient                   ...        0 min,  0.081 sec
 * total energy  :   -94.8811112 Eh     change       -0.1356327E-03 Eh
   gradient norm :     0.0055039 Eh/α   predicted    -0.1010478E-03 ( -25.50%)
   displ. norm   :     0.1817867 α      lambda       -0.1554086E-03
   maximum displ.:     0.0662201 α      in ANC's #18, #26, #2, ...

........................................................................
.............................. CYCLE   12 ..............................
........................................................................

 iter      E             dE          RMSdq      gap      omega  full diag
   1    -96.1896357 -0.961896E+02  0.412E-02    1.63       0.0  T
   2    -96.1896386 -0.288196E-05  0.239E-02    1.63       1.0  T
   3    -96.1896338  0.476647E-05  0.119E-02    1.64       1.1  T
   4    -96.1896397 -0.587472E-05  0.209E-03    1.64       6.1  T
   5    -96.1896399 -0.197809E-06  0.824E-04    1.64      15.4  T
   6    -96.1896399 -0.164002E-07  0.389E-04    1.64      32.7  T
     SCC iter.                  ...        0 min,  0.025 sec
     gradient                   ...        0 min,  0.071 sec
 * total energy  :   -94.8811993 Eh     change       -0.8803722E-04 Eh
   gradient norm :     0.0041414 Eh/α   predicted    -0.8031618E-04 (  -8.77%)
   displ. norm   :     0.2192534 α      lambda       -0.1179390E-03
   maximum displ.:     0.0841631 α      in ANC's #14, #18, #8, ...

........................................................................
.............................. CYCLE   13 ..............................
........................................................................

 iter      E             dE          RMSdq      gap      omega  full diag
   1    -96.1874946 -0.961875E+02  0.399E-02    1.63       0.0  T
   2    -96.1874970 -0.240761E-05  0.234E-02    1.63       1.0  T
   3    -96.1874936  0.340976E-05  0.101E-02    1.63       1.3  T
   4    -96.1874979 -0.428028E-05  0.196E-03    1.63       6.5  T
   5    -96.1874980 -0.142834E-06  0.883E-04    1.63      14.4  T
   6    -96.1874980 -0.109067E-07  0.465E-04    1.63      27.3  T
     SCC iter.                  ...        0 min,  0.025 sec
     gradient                   ...        0 min,  0.078 sec
 * total energy  :   -94.8812356 Eh     change       -0.3637998E-04 Eh
   gradient norm :     0.0060861 Eh/α   predicted    -0.6180916E-04 (  69.90%)
   displ. norm   :     0.0800396 α      lambda       -0.8307776E-04
   maximum displ.:     0.0343806 α      in ANC's #10, #22, #8, ...

........................................................................
.............................. CYCLE   14 ..............................
........................................................................

 iter      E             dE          RMSdq      gap      omega  full diag
   1    -96.1896734 -0.961897E+02  0.242E-02    1.64       0.0  T
   2    -96.1896746 -0.125894E-05  0.142E-02    1.64       1.0  T
   3    -96.1896730  0.164699E-05  0.643E-03    1.63       2.0  T
   4    -96.1896749 -0.192335E-05  0.145E-03    1.63       8.7  T
   5    -96.1896750 -0.100240E-06  0.417E-04    1.63      30.4  T
   6    -96.1896750 -0.815731E-09  0.232E-04    1.63      54.8  T
     SCC iter.                  ...        0 min,  0.071 sec
     gradient                   ...        0 min,  0.083 sec
 * total energy  :   -94.8812853 Eh     change       -0.4962466E-04 Eh
   gradient norm :     0.0038661 Eh/α   predicted    -0.4180709E-04 ( -15.75%)
   displ. norm   :     0.0594772 α      lambda       -0.4573780E-04
   maximum displ.:     0.0244257 α      in ANC's #14, #2, #12, ...

........................................................................
.............................. CYCLE   15 ..............................
........................................................................

 iter      E             dE          RMSdq      gap      omega  full diag
   1    -96.1895627 -0.961896E+02  0.112E-02    1.63       0.0  T
   2    -96.1895631 -0.377599E-06  0.664E-03    1.63       1.9  T
   3    -96.1895628  0.275941E-06  0.276E-03    1.63       4.6  T
   4    -96.1895631 -0.338374E-06  0.718E-04    1.63      17.7  T
   5    -96.1895632 -0.226057E-07  0.270E-04    1.63      47.1  T
     SCC iter.                  ...        0 min,  0.021 sec
     gradient                   ...        0 min,  0.061 sec
 * total energy  :   -94.8813145 Eh     change       -0.2927930E-04 Eh
   gradient norm :     0.0018714 Eh/α   predicted    -0.2295026E-04 ( -21.62%)
   displ. norm   :     0.1585445 α      lambda       -0.3969895E-04
   maximum displ.:     0.0792622 α      in ANC's #14, #2, #12, ...

........................................................................
.............................. CYCLE   16 ..............................
........................................................................

 iter      E             dE          RMSdq      gap      omega  full diag
   1    -96.1894611 -0.961895E+02  0.290E-02    1.64       0.0  T
   2    -96.1894622 -0.112567E-05  0.171E-02    1.64       1.0  T
   3    -96.1894597  0.251744E-05  0.735E-03    1.64       1.7  T
   4    -96.1894626 -0.293499E-05  0.131E-03    1.64       9.7  T
   5    -96.1894627 -0.775556E-07  0.517E-04    1.64      24.6  T
   6    -96.1894627 -0.525017E-08  0.262E-04    1.64      48.5  T
     SCC iter.                  ...        0 min,  0.025 sec
     gradient                   ...        0 min,  0.084 sec
 * total energy  :   -94.8813480 Eh     change       -0.3344343E-04 Eh
   gradient norm :     0.0034946 Eh/α   predicted    -0.2008251E-04 ( -39.95%)
   displ. norm   :     0.0641390 α      lambda       -0.2785288E-04
   maximum displ.:     0.0304877 α      in ANC's #2, #14, #12, ...

........................................................................
.............................. CYCLE   17 ..............................
........................................................................

 iter      E             dE          RMSdq      gap      omega  full diag
   1    -96.1891100 -0.961891E+02  0.126E-02    1.64       0.0  T
   2    -96.1891102 -0.143249E-06  0.739E-03    1.65       1.7  T
   3    -96.1891099  0.265198E-06  0.244E-03    1.64       5.2  T
   4    -96.1891102 -0.309643E-06  0.530E-04    1.65      24.0  T
   5    -96.1891102 -0.125071E-07  0.209E-04    1.65      60.9  T
     SCC iter.                  ...        0 min,  0.070 sec
     gradient                   ...        0 min,  0.051 sec
 * total energy  :   -94.8813718 Eh     change       -0.2380485E-04 Eh
   gradient norm :     0.0028151 Eh/α   predicted    -0.1398732E-04 ( -41.24%)
   displ. norm   :     0.2120967 α      lambda       -0.8077110E-04
   maximum displ.:     0.0992143 α      in ANC's #2, #12, #14, ...

........................................................................
.............................. CYCLE   18 ..............................
........................................................................

 iter      E             dE          RMSdq      gap      omega  full diag
   1    -96.1883829 -0.961884E+02  0.476E-02    1.65       0.0  T
   2    -96.1883844 -0.150689E-05  0.278E-02    1.66       1.0  T
   3    -96.1883802  0.423072E-05  0.928E-03    1.66       1.4  T
   4    -96.1883850 -0.482267E-05  0.171E-03    1.66       7.4  T
   5    -96.1883851 -0.123314E-06  0.695E-04    1.66      18.3  T
   6    -96.1883851 -0.536751E-08  0.358E-04    1.66      35.5  T
     SCC iter.                  ...        0 min,  0.025 sec
     gradient                   ...        0 min,  0.084 sec
 * total energy  :   -94.8814238 Eh     change       -0.5205665E-04 Eh
   gradient norm :     0.0039164 Eh/α   predicted    -0.4221033E-04 ( -18.91%)
   displ. norm   :     0.1183703 α      lambda       -0.3978650E-04
   maximum displ.:     0.0547900 α      in ANC's #2, #12, #10, ...

........................................................................
.............................. CYCLE   19 ..............................
........................................................................

 iter      E             dE          RMSdq      gap      omega  full diag
   1    -96.1887142 -0.961887E+02  0.330E-02    1.66       0.0  T
   2    -96.1887148 -0.634781E-06  0.193E-02    1.66       1.0  T
   3    -96.1887121  0.272784E-05  0.746E-03    1.66       1.7  T
   4    -96.1887152 -0.310741E-05  0.103E-03    1.66      12.3  T
   5    -96.1887153 -0.378718E-07  0.450E-04    1.66      28.2  T
   6    -96.1887153 -0.870344E-09  0.235E-04    1.66      54.1  T
     SCC iter.                  ...        0 min,  0.025 sec
     gradient                   ...        0 min,  0.072 sec
 * total energy  :   -94.8814542 Eh     change       -0.3037094E-04 Eh
   gradient norm :     0.0039218 Eh/α   predicted    -0.2017730E-04 ( -33.56%)
   displ. norm   :     0.2122978 α      lambda       -0.5873091E-04
   maximum displ.:     0.1057934 α      in ANC's #2, #12, #14, ...

........................................................................
.............................. CYCLE   20 ..............................
........................................................................

 iter      E             dE          RMSdq      gap      omega  full diag
   1    -96.1885237 -0.961885E+02  0.477E-02    1.66       0.0  T
   2    -96.1885249 -0.120943E-05  0.281E-02    1.66       1.0  T
   3    -96.1885191  0.586958E-05  0.108E-02    1.66       1.2  T
   4    -96.1885257 -0.665499E-05  0.132E-03    1.66       9.6  T
   5    -96.1885258 -0.519659E-07  0.621E-04    1.66      20.5  T
   6    -96.1885258 -0.330043E-08  0.329E-04    1.66      38.6  T
     SCC iter.                  ...        0 min,  0.070 sec
     gradient                   ...        0 min,  0.097 sec
 * total energy  :   -94.8814940 Eh     change       -0.3981244E-04 Eh
   gradient norm :     0.0041613 Eh/α   predicted    -0.3069025E-04 ( -22.91%)
   displ. norm   :     0.1459794 α      lambda       -0.6474867E-04
   maximum displ.:     0.0705164 α      in ANC's #2, #13, #10, ...
 * RMSD in coord.:     0.3641551 α      energy gain  -0.2842383E-01 Eh

generating ANC from exact Hessian ...
Using Lindh-Hessian (1995)
 Shifting diagonal of input Hessian by    9.8381575587979646E-003
 Lowest  eigenvalues of input Hessian
    0.000000    0.000000    0.000000    0.000000    0.000000    0.000000
    0.010000    0.010084    0.010309    0.010468    0.010858    0.011040
    0.011276    0.011829    0.012014    0.012268    0.013004    0.013673
 Highest eigenvalues
    2.110389    2.168910    2.221172    2.301854    2.351047    2.390311


........................................................................
.............................. CYCLE   21 ..............................
........................................................................

 iter      E             dE          RMSdq      gap      omega  full diag
   1    -96.1904685 -0.961905E+02  0.383E-02    1.66       0.0  T
   2    -96.1904705 -0.195185E-05  0.224E-02    1.66       1.0  T
   3    -96.1904665  0.395661E-05  0.957E-03    1.66       1.3  T
   4    -96.1904711 -0.457927E-05  0.177E-03    1.66       7.2  T
   5    -96.1904713 -0.139556E-06  0.612E-04    1.66      20.7  T
   6    -96.1904713 -0.326401E-08  0.362E-04    1.66      35.1  T
     SCC iter.                  ...        0 min,  0.025 sec
     gradient                   ...        0 min,  0.088 sec
 * total energy  :   -94.8815227 Eh     change       -0.2869188E-04 Eh
   gradient norm :     0.0028632 Eh/α   predicted     0.0000000E+00 (-100.00%)
   displ. norm   :     0.0223929 α      lambda       -0.1773933E-04
   maximum displ.:     0.0130527 α      in ANC's #13, #12, #7, ...

........................................................................
.............................. CYCLE   22 ..............................
........................................................................

 iter      E             dE          RMSdq      gap      omega  full diag
   1    -96.1903168 -0.961903E+02  0.630E-03    1.66       0.0  T
   2    -96.1903169 -0.916317E-07  0.373E-03    1.66       3.4  T
   3    -96.1903168  0.293515E-07  0.103E-03    1.66      12.3  T
   4    -96.1903169 -0.415581E-07  0.314E-04    1.66      40.4  T
   5    -96.1903169 -0.362235E-08  0.119E-04    1.66     107.0  T
     SCC iter.                  ...        0 min,  0.066 sec
     gradient                   ...        0 min,  0.051 sec
 * total energy  :   -94.8815382 Eh     change       -0.1549392E-04 Eh
   gradient norm :     0.0013042 Eh/α   predicted    -0.9966778E-05 ( -35.67%)
   displ. norm   :     0.0785048 α      lambda       -0.2296030E-04
   maximum displ.:     0.0474302 α      in ANC's #13, #12, #7, ...

........................................................................
.............................. CYCLE   23 ..............................
........................................................................

 iter      E             dE          RMSdq      gap      omega  full diag
   1    -96.1899340 -0.961899E+02  0.162E-02    1.66       0.0  T
   2    -96.1899343 -0.338381E-06  0.960E-03    1.66       1.3  T
   3    -96.1899341  0.154403E-06  0.208E-03    1.66       6.1  T
   4    -96.1899344 -0.208231E-06  0.676E-04    1.66      18.8  T
   5    -96.1899344 -0.172143E-07  0.272E-04    1.66      46.7  T
     SCC iter.                  ...        0 min,  0.021 sec
     gradient                   ...        0 min,  0.091 sec
 * total energy  :   -94.8815542 Eh     change       -0.1596692E-04 Eh
   gradient norm :     0.0022168 Eh/α   predicted    -0.1151177E-04 ( -27.90%)
   displ. norm   :     0.0219726 α      lambda       -0.7548210E-05
   maximum displ.:     0.0122844 α      in ANC's #13, #6, #7, ...

........................................................................
.............................. CYCLE   24 ..............................
........................................................................

 iter      E             dE          RMSdq      gap      omega  full diag
   1    -96.1900064 -0.961900E+02  0.401E-03    1.66       0.0  T
   2    -96.1900064 -0.200722E-07  0.235E-03    1.66       5.4  T
   3    -96.1900064  0.526239E-08  0.458E-04    1.66      27.7  T
   4    -96.1900064 -0.748416E-08  0.157E-04    1.66      80.9  T
     SCC iter.                  ...        0 min,  0.017 sec
     gradient                   ...        0 min,  0.085 sec
 * total energy  :   -94.8815611 Eh     change       -0.6917697E-05 Eh
   gradient norm :     0.0017026 Eh/α   predicted    -0.3776133E-05 ( -45.41%)
   displ. norm   :     0.2285072 α      lambda       -0.3957613E-04
   maximum displ.:     0.1303215 α      in ANC's #13, #6, #7, ...

........................................................................
.............................. CYCLE   25 ..............................
........................................................................

 iter      E             dE          RMSdq      gap      omega  full diag
   1    -96.1898186 -0.961898E+02  0.394E-02    1.66       0.0  T
   2    -96.1898196 -0.101483E-05  0.232E-02    1.66       1.0  T
   3    -96.1898193  0.251799E-06  0.327E-03    1.66       3.9  T
   4    -96.1898198 -0.447542E-06  0.103E-03    1.66      12.3  T
   5    -96.1898198 -0.268498E-07  0.453E-04    1.66      28.0  T
   6    -96.1898198 -0.118001E-08  0.175E-04    1.66      72.5  T
     SCC iter.                  ...        0 min,  0.071 sec
     gradient                   ...        0 min,  0.095 sec
 * total energy  :   -94.8815891 Eh     change       -0.2797244E-04 Eh
   gradient norm :     0.0020498 Eh/α   predicted    -0.2025734E-04 ( -27.58%)
   displ. norm   :     0.0314210 α      lambda       -0.6866821E-05
   maximum displ.:     0.0177184 α      in ANC's #13, #6, #2, ...

........................................................................
.............................. CYCLE   26 ..............................
........................................................................

 iter      E             dE          RMSdq      gap      omega  full diag
   1    -96.1900242 -0.961900E+02  0.592E-03    1.66       0.0  T
   2    -96.1900242 -0.375158E-07  0.352E-03    1.66       3.6  T
   3    -96.1900242  0.126730E-07  0.601E-04    1.66      21.1  T
   4    -96.1900242 -0.178493E-07  0.165E-04    1.66      76.8  T
     SCC iter.                  ...        0 min,  0.017 sec
     gradient                   ...        0 min,  0.088 sec
 * total energy  :   -94.8815951 Eh     change       -0.6004862E-05 Eh
   gradient norm :     0.0013184 Eh/α   predicted    -0.3437249E-05 ( -42.76%)
   displ. norm   :     0.1741178 α      lambda       -0.1932853E-04
   maximum displ.:     0.0946594 α      in ANC's #13, #6, #2, ...

........................................................................
.............................. CYCLE   27 ..............................
........................................................................

 iter      E             dE          RMSdq      gap      omega  full diag
   1    -96.1901817 -0.961902E+02  0.335E-02    1.66       0.0  T
   2    -96.1901825 -0.772964E-06  0.198E-02    1.66       1.0  T
   3    -96.1901820  0.469678E-06  0.327E-03    1.66       3.9  T
   4    -96.1901826 -0.576659E-06  0.113E-03    1.66      11.2  T
   5    -96.1901826 -0.576073E-07  0.496E-04    1.66      25.6  T
   6    -96.1901827 -0.395295E-08  0.249E-04    1.66      51.0  T
     SCC iter.                  ...        0 min,  0.052 sec
     gradient                   ...        0 min,  0.052 sec
 * total energy  :   -94.8816060 Eh     change       -0.1095372E-04 Eh
   gradient norm :     0.0022137 Eh/α   predicted    -0.9818296E-05 ( -10.37%)
   displ. norm   :     0.0244478 α      lambda       -0.6418181E-05
   maximum displ.:     0.0146083 α      in ANC's #13, #7, #12, ...

........................................................................
.............................. CYCLE   28 ..............................
........................................................................

 iter      E             dE          RMSdq      gap      omega  full diag
   1    -96.1904541 -0.961905E+02  0.477E-03    1.66       0.0  T
   2    -96.1904542 -0.259734E-07  0.279E-03    1.66       4.5  T
   3    -96.1904541  0.355661E-07  0.939E-04    1.66      13.5  T
   4    -96.1904542 -0.436581E-07  0.227E-04    1.66      56.1  T
     SCC iter.                  ...        0 min,  0.044 sec
     gradient                   ...        0 min,  0.049 sec
 * total energy  :   -94.8816105 Eh     change       -0.4504102E-05 Eh
   gradient norm :     0.0014823 Eh/α   predicted    -0.3224616E-05 ( -28.41%)
   displ. norm   :     0.0474024 α      lambda       -0.7532969E-05
   maximum displ.:     0.0226524 α      in ANC's #6, #12, #2, ...

........................................................................
.............................. CYCLE   29 ..............................
........................................................................

 iter      E             dE          RMSdq      gap      omega  full diag
   1    -96.1901843 -0.961902E+02  0.127E-02    1.66       0.0  T
   2    -96.1901844 -0.111641E-06  0.750E-03    1.66       1.7  T
   3    -96.1901838  0.549127E-06  0.353E-03    1.66       3.6  T
   4    -96.1901845 -0.643344E-06  0.449E-04    1.66      28.3  T
   5    -96.1901845 -0.809943E-08  0.202E-04    1.66      63.0  T
     SCC iter.                  ...        0 min,  0.021 sec
     gradient                   ...        0 min,  0.096 sec
 * total energy  :   -94.8816169 Eh     change       -0.6357036E-05 Eh
   gradient norm :     0.0007059 Eh/α   predicted    -0.3771782E-05 ( -40.67%)
   displ. norm   :     0.0714490 α      lambda       -0.3527037E-05
   maximum displ.:     0.0341515 α      in ANC's #6, #13, #2, ...

........................................................................
.............................. CYCLE   30 ..............................
........................................................................

 iter      E             dE          RMSdq      gap      omega  full diag
   1    -96.1900755 -0.961901E+02  0.153E-02    1.66       0.0  T
   2    -96.1900756 -0.741025E-07  0.901E-03    1.66       1.4  T
   3    -96.1900753  0.359937E-06  0.265E-03    1.66       4.8  T
   4    -96.1900757 -0.413100E-06  0.371E-04    1.66      34.3  T
   5    -96.1900757 -0.270275E-08  0.204E-04    1.66      62.4  T
     SCC iter.                  ...        0 min,  0.021 sec
     gradient                   ...        0 min,  0.077 sec
 * total energy  :   -94.8816211 Eh     change       -0.4188493E-05 Eh
   gradient norm :     0.0006295 Eh/α   predicted    -0.1769414E-05 ( -57.76%)
   displ. norm   :     0.1106718 α      lambda       -0.4229669E-05
   maximum displ.:     0.0530304 α      in ANC's #6, #13, #2, ...

   *** GEOMETRY OPTIMIZATION CONVERGED AFTER 30 ITERATIONS ***

------------------------------------------------------------------------
 total energy gain   :        -0.0285509 Eh      -17.9159 kcal/mol
 total RMSD          :         0.3922843 a0        0.2076 Å
 total power (kW/mol):        -2.4986776 (step)  -18.1828 (real)
------------------------------------------------------------------------

 ANCopt (total)                0 d,  0 h,  0 min,  4.123 sec
 optimizer setup                ...        0 min,  0.000 sec (  0.003%)
 model hessian                  ...        0 min,  0.055 sec (  1.328%)
 ANC generation                 ...        0 min,  0.007 sec (  0.161%)
 coordinate transformation      ...        0 min,  0.000 sec (  0.011%)
 single point calculation       ...        0 min,  4.047 sec ( 98.175%)
 optimization log               ...        0 min,  0.007 sec (  0.164%)
 hessian update                 ...        0 min,  0.001 sec (  0.016%)
 rational function              ...        0 min,  0.003 sec (  0.075%)

================
 final structure:
================
62
 xtb: 6.7.1 (edcfbbe)
C           -7.10428068339867       -1.71599006468147        0.85386549052397
C           -6.16706171447691       -2.23913496091836       -0.19537471151125
C           -4.81906552515352       -1.58909939880355       -0.23338658501849
C           -3.67443922527251       -2.33110515033815       -0.25774152039904
C           -3.66186870875780       -3.82592252562469       -0.21407917648008
C           -2.42072739732396       -1.64519421633795       -0.28659936253636
C           -1.16312843188528       -2.26106680752356       -0.27305107935921
N           -0.02920299696963       -1.60451921677480       -0.31342408391792
C           -0.10605959836213       -0.26637268491149       -0.37540317916560
N            1.01553180252020        0.47942014542474       -0.42917736384681
C            2.35487536013344        0.11798368295944       -0.43336397246978
N            3.17839855146893        1.15689546877623       -0.51550760728048
C            4.48013563504175        0.95367168102822       -0.51231205888648
C            5.08023198002626       -0.31114716792811       -0.42241420887666
C            4.18846433358843       -1.39581723572374       -0.35651343500914
C            2.82665373415444       -1.19241287241825       -0.36081031453385
N            6.44496302944176       -0.51413560162828       -0.48378956786572
C            7.35052702601012        0.59886628067117       -0.67572258526906
C            7.74329313328585        1.23436655916501        0.66236573697177
N            8.37220404823040        0.20404244503464        1.47035201961377
C            7.45857125868495       -0.89764292813492        1.71045667060966
C            7.06955492284727       -1.51381431725747        0.35999526913073
N           -1.24072975032872        0.43480579306826       -0.38784921907659
C           -2.39019211045325       -0.22893377891455       -0.34486114327226
N           -3.54934513186867        0.48237640175067       -0.35787070485693
C           -3.46933786337597        1.94116486913196       -0.43605935760259
C           -4.00651981664744        2.64261937099302        0.82240439181002
C           -4.55356903594970        3.96375059051702        0.29205582119032
C           -5.22715118114113        3.54464486612293       -1.01129424325470
C           -4.24644344455255        2.54308889013642       -1.62618155865013
C           -4.79968295174163       -0.12623504306142       -0.27844576284357
O           -5.80699890809572        0.55944923786044       -0.27134842815822
O           -6.46663410603227       -3.13488285122449       -0.95115161474258
H           -6.60541979737004       -1.66944749697292        1.81970653984107
H           -7.98727863849614       -2.34680965722402        0.91010093053763
H           -7.38970117318961       -0.70248529068234        0.57679175859431
H           -3.12334451855567       -4.17101256039991        0.66815671783042
H           -4.66705141961873       -4.23125346842118       -0.19896274378653
H           -3.15405903216145       -4.21345534893309       -1.09604840931007
H           -1.06688012341593       -3.33718244675010       -0.22761502069245
H            0.86431458481692        1.47926630849937       -0.48442228122383
H            5.06353077425590        1.86071481051328       -0.57840782535070
H            4.56210841179277       -2.40776900416615       -0.32303260640841
H            2.13240770764690       -2.01318869541629       -0.31622080563786
H            8.25608466970312        0.19750605960631       -1.14156316025560
H            6.91163038961431        1.33101346409944       -1.35182223123590
H            8.46186707578432        2.03983564352105        0.49887231495406
H            6.84255252546691        1.65470947816936        1.14446217080594
H            8.70294251497026        0.59051216710275        2.34820121121871
H            6.53557309038564       -0.57581353409557        2.22829968572339
H            7.96319200054316       -1.64361304467655        2.32762609818051
H            7.97440795264494       -1.86515514867011       -0.14406671630695
H            6.40431944633775       -2.35916233113000        0.52035362255037
H           -2.40468066170842        2.15089024216967       -0.54588107703055
H           -3.23011579672313        2.76906409892033        1.57617225034843
H           -4.82177100479420        2.06116470177744        1.25006021188758
H           -5.24409809711878        4.43580915822700        0.98886685498168
H           -3.73422600993201        4.65632907611502        0.08929753173418
H           -6.16484835697767        3.03848016508366       -0.78602722200894
H           -5.42798048902301        4.38529750192356       -1.67360073834731
H           -3.54919224041644        3.04738752211723       -2.29623611835107
H           -4.76485001810469        1.77454816925290       -2.19542349820825

 Bond Distances (Angstroems)
 ---------------------------
C1-C2=1.5010         C1-H34=1.0881        C1-H35=1.0866        C1-H36=1.0888        C2-C1=1.5010         C2-C3=1.4970         
C2-O33=1.2097        C3-C2=1.4970         C3-C4=1.3643         C3-C31=1.4637        C4-C3=1.3643         C4-C5=1.4955         
C4-C6=1.4294         C5-C4=1.4955         C5-H37=1.0897        C5-H38=1.0839        C5-H39=1.0890        C6-C4=1.4294         
C6-C7=1.4004         C6-C24=1.4178        C7-C6=1.4004         C7-N8=1.3109         C7-H40=1.0814        N8-C7=1.3109         
N8-C9=1.3418         C9-N8=1.3418         C9-N10=1.3480        C9-N23=1.3339        N10-C9=1.3480        N10-C11=1.3873       
N10-H41=1.0127       C11-N10=1.3873       C11-N12=1.3283       C11-C16=1.3946       N12-C11=1.3283       N12-C13=1.3175       
C13-N12=1.3175       C13-C14=1.4028       C13-H42=1.0805       C14-C13=1.4028       C14-C15=1.4057       C14-N17=1.3811       
C15-C14=1.4057       C15-C16=1.3769       C15-H43=1.0792       C16-C11=1.3946       C16-C15=1.3769       C16-H44=1.0759       
N17-C14=1.3811       N17-C18=1.4476       N17-C22=1.4496       C18-N17=1.4476       C18-C19=1.5325       C18-H45=1.0946       
C18-H46=1.0889       C19-C18=1.5325       C19-N20=1.4526       C19-H47=1.0917       C19-H48=1.1047       N20-C19=1.4526       
N20-C21=1.4512       N20-H49=1.0146       C21-N20=1.4512       C21-C22=1.5345       C21-H50=1.1062       C21-H51=1.0918       
C22-N17=1.4496       C22-C21=1.5345       C22-H52=1.0937       C22-H53=1.0876       N23-C9=1.3339        N23-C24=1.3280       
C24-C6=1.4178        C24-N23=1.3280       C24-N25=1.3601       N25-C24=1.3601       N25-C26=1.4631       N25-C31=1.3929       
C26-N25=1.4631       C26-C27=1.5376       C26-C30=1.5436       C26-H54=1.0907       C27-C26=1.5376       C27-C28=1.5251       
C27-H55=1.0895       C27-H56=1.0889       C28-C27=1.5251       C28-C29=1.5258       C28-H57=1.0887       C28-H58=1.0918       
C29-C28=1.5258       C29-C30=1.5307       C29-H59=1.0891       C29-H60=1.0889       C30-C26=1.5436       C30-C29=1.5307       
C30-H61=1.0906       C30-H62=1.0879       C31-C3=1.4637        C31-N25=1.3929       C31-O32=1.2186       O32-C31=1.2186       
O33-C2=1.2097        H34-C1=1.0881        H35-C1=1.0866        H36-C1=1.0888        H37-C5=1.0897        H38-C5=1.0839        
H39-C5=1.0890        H40-C7=1.0814        H41-N10=1.0127       H42-C13=1.0805       H43-C15=1.0792       H44-C16=1.0759       
H45-C18=1.0946       H46-C18=1.0889       H47-C19=1.0917       H48-C19=1.1047       H49-N20=1.0146       H50-C21=1.1062       
H51-C21=1.0918       H52-C22=1.0937       H53-C22=1.0876       H54-C26=1.0907       H55-C27=1.0895       H56-C27=1.0889       
H57-C28=1.0887       H58-C28=1.0918       H59-C29=1.0891       H60-C29=1.0889       H61-C30=1.0906       H62-C30=1.0879       
 C  H  Rav=1.0892 sigma=0.0063  Rmin=1.0759  Rmax=1.1062    27
 C  C  Rav=1.4673 sigma=0.0622  Rmin=1.3643  Rmax=1.5436    19
 N  H  Rav=1.0137 sigma=0.0009  Rmin=1.0127  Rmax=1.0146     2
 N  C  Rav=1.3809 sigma=0.0536  Rmin=1.3109  Rmax=1.4631    16
 O  C  Rav=1.2141 sigma=0.0044  Rmin=1.2097  Rmax=1.2186     2

 selected bond angles (degree)
 --------------------
H34-C1-C2=110.43               H35-C1-C2=109.95               H35-C1-H34=110.58              H36-C1-C2=108.07               
H36-C1-H34=107.83              H36-C1-H35=109.91              C3-C2-C1=115.38                O33-C2-C1=122.70               
O33-C2-C3=121.92               C4-C3-C2=121.32                C31-C3-C2=116.53               C31-C3-C4=122.13               
C5-C4-C3=123.38                C6-C4-C3=118.38                C6-C4-C5=118.22                H37-C5-C4=110.14               
H38-C5-C4=111.49               H38-C5-H37=109.18              H39-C5-C4=109.63               H39-C5-H37=108.21              
H39-C5-H38=108.10              C7-C6-C4=125.20                C24-C6-C4=119.94               C24-C6-C7=114.86               
N8-C7-C6=123.80                H40-C7-C6=121.20               H40-C7-N8=115.01               C9-N8-C7=116.83                
N10-C9-N8=120.39               N23-C9-N8=124.99               N23-C9-N10=114.62              C11-N10-C9=131.25              
H41-N10-C9=115.10              H41-N10-C11=113.65             

 selected dihedral angles (degree)
 ---------------------------------
C3-C2-C1-H34=311.28           C3-C2-C1-H35=188.99           C3-C2-C1-H36= 69.01           O33-C2-C1-H34=130.41          
O33-C2-C1-H35=  8.12          O33-C2-C1-H36=248.15          C4-C3-C2-C1=130.68            C4-C3-C2-O33=311.54           
C31-C3-C2-C1=309.12           C31-C3-C2-O33=129.98          C5-C4-C3-C2=358.40            C5-C4-C3-C31=180.05           
C6-C4-C3-C2=180.32            C6-C4-C3-C31=  1.96           H37-C5-C4-C3=240.76           H37-C5-C4-C6= 58.85           
H38-C5-C4-C3=  2.13           H38-C5-C4-C6=180.22           H39-C5-C4-C3=121.79           H39-C5-C4-C6=299.88           
C7-C6-C4-C3=177.97            C7-C6-C4-C5=359.78            C24-C6-C4-C3=357.41           C24-C6-C4-C5=179.23           
N8-C7-C6-C4=179.31            N8-C7-C6-C24=359.84           H40-C7-C6-C4=359.33           H40-C7-C6-C24=179.86          
C9-N8-C7-C6=359.77            C9-N8-C7-H40=179.76           N10-C9-N8-C7=180.46           N23-C9-N8-C7=  0.56           
C11-N10-C9-N8=359.95          C11-N10-C9-N23=179.86         H41-N10-C9-N8=179.35          H41-N10-C9-N23=359.25         
           -------------------------------------------------
          |                Final Singlepoint                |
           -------------------------------------------------

          ...................................................
          :                      SETUP                      :
          :.................................................:
          :  # basis functions                 161          :
          :  # atomic orbitals                 161          :
          :  # shells                           95          :
          :  # electrons                       172          :
          :  max. iterations                   250          :
          :  Hamiltonian                  GFN2-xTB          :
          :  restarted?                      false          :
          :  GBSA solvation                  false          :
          :  PC potential                    false          :
          :  electronic temp.          300.0000000     K    :
          :  accuracy                    1.0000000          :
          :  -> integral cutoff          0.2500000E+02      :
          :  -> integral neglect         0.1000000E-07      :
          :  -> SCF convergence          0.1000000E-05 Eh   :
          :  -> wf. convergence          0.1000000E-03 e    :
          :  Broyden damping             0.4000000          :
          :  net charge                          0          :
          :  unpaired electrons                  0          :
          ...................................................

 iter      E             dE          RMSdq      gap      omega  full diag
   1    -96.1900757 -0.961901E+02  0.922E-05    1.66       0.0  T
   2    -96.1900757 -0.910205E-10  0.609E-05    1.66     208.4  T
   3    -96.1900757 -0.558202E-10  0.407E-05    1.66     312.3  T

   *** convergence criteria satisfied after 3 iterations ***

         #    Occupation            Energy/Eh            Energy/eV
      -------------------------------------------------------------
         1        2.0000           -0.7026069             -19.1189
       ...           ...                  ...                  ...
        80        2.0000           -0.3985258             -10.8444
        81        2.0000           -0.3911361             -10.6434
        82        2.0000           -0.3847410             -10.4693
        83        2.0000           -0.3771055             -10.2616
        84        2.0000           -0.3753106             -10.2127
        85        2.0000           -0.3721232             -10.1260
        86        2.0000           -0.3505101              -9.5379 (HOMO)
        87                         -0.2895257              -7.8784 (LUMO)
        88                         -0.2600518              -7.0764
        89                         -0.2434101              -6.6235
        90                         -0.2359885              -6.4216
        91                         -0.2267191              -6.1693
       ...                                ...                  ...
       161                          0.6945020              18.8984
      -------------------------------------------------------------
                  HL-Gap            0.0609845 Eh            1.6595 eV
             Fermi-level           -0.3200179 Eh           -8.7081 eV

 SCC (total)                   0 d,  0 h,  0 min,  0.103 sec
 SCC setup                      ...        0 min,  0.001 sec (  0.578%)
 Dispersion                     ...        0 min,  0.001 sec (  0.624%)
 classical contributions        ...        0 min,  0.000 sec (  0.292%)
 integral evaluation            ...        0 min,  0.013 sec ( 12.248%)
 iterations                     ...        0 min,  0.013 sec ( 12.463%)
 molecular gradient             ...        0 min,  0.075 sec ( 73.444%)
 printout                       ...        0 min,  0.000 sec (  0.342%)

         :::::::::::::::::::::::::::::::::::::::::::::::::::::
         ::                     SUMMARY                     ::
         :::::::::::::::::::::::::::::::::::::::::::::::::::::
         :: total energy             -94.881621084666 Eh    ::
         :: gradient norm              0.000630368004 Eh/a0 ::
         :: HOMO-LUMO gap              1.659472511025 eV    ::
         ::.................................................::
         :: SCC energy               -96.190310474252 Eh    ::
         :: -> isotropic ES            0.109524931738 Eh    ::
         :: -> anisotropic ES          0.005349118370 Eh    ::
         :: -> anisotropic XC          0.053115603417 Eh    ::
         :: -> dispersion             -0.071077692962 Eh    ::
         :: repulsion energy           1.308689389586 Eh    ::
         :: add. restraining           0.000000000000 Eh    ::
         :: total charge               0.000000000000 e     ::
         :::::::::::::::::::::::::::::::::::::::::::::::::::::

           -------------------------------------------------
          |                Property Printout                |
           -------------------------------------------------

    * Orbital Energies and Occupations

         #    Occupation            Energy/Eh            Energy/eV
      -------------------------------------------------------------
         1        2.0000           -0.7026069             -19.1189
       ...           ...                  ...                  ...
        74        2.0000           -0.4328464             -11.7784
        75        2.0000           -0.4312632             -11.7353
        76        2.0000           -0.4214694             -11.4688
        77        2.0000           -0.4187172             -11.3939
        78        2.0000           -0.4147447             -11.2858
        79        2.0000           -0.4056555             -11.0384
        80        2.0000           -0.3985258             -10.8444
        81        2.0000           -0.3911361             -10.6434
        82        2.0000           -0.3847410             -10.4693
        83        2.0000           -0.3771055             -10.2616
        84        2.0000           -0.3753106             -10.2127
        85        2.0000           -0.3721232             -10.1260
        86        2.0000           -0.3505101              -9.5379 (HOMO)
        87                         -0.2895257              -7.8784 (LUMO)
        88                         -0.2600518              -7.0764
        89                         -0.2434101              -6.6235
        90                         -0.2359885              -6.4216
        91                         -0.2267191              -6.1693
        92                         -0.2031114              -5.5269
        93                         -0.1577952              -4.2938
        94                         -0.1012730              -2.7558
        95                         -0.0887446              -2.4149
        96                         -0.0185602              -0.5050
        97                         -0.0022550              -0.0614
       ...                                ...                  ...
       161                          0.6945020              18.8984
      -------------------------------------------------------------
                  HL-Gap            0.0609845 Eh            1.6595 eV
             Fermi-level           -0.3200179 Eh           -8.7081 eV

     #   Z          covCN         q      C6AA      α(0)
     1   6 C        3.754    -0.140    23.262     6.877
     2   6 C        2.817     0.251    22.787     7.821
     3   6 C        2.964    -0.070    29.747     8.946
     4   6 C        2.957     0.033    27.257     8.563
     5   6 C        3.758    -0.115    22.750     6.800
     6   6 C        2.979    -0.051    29.269     8.874
     7   6 C        2.925     0.077    26.291     8.409
     8   7 N        1.837    -0.280    28.099     7.856
     9   6 C        2.882     0.241    22.984     7.860
    10   7 N        2.726    -0.134    23.894     7.260
    11   6 C        2.890     0.140    24.939     8.187
    12   7 N        1.852    -0.258    27.569     7.782
    13   6 C        2.906     0.031    27.307     8.569
    14   6 C        2.903     0.049    26.892     8.503
    15   6 C        2.936    -0.039    28.979     8.829
    16   6 C        2.910    -0.060    29.502     8.906
    17   7 N        2.736    -0.110    23.406     7.185
    18   6 C        3.768    -0.006    20.725     6.488
    19   6 C        3.749     0.014    20.395     6.441
    20   7 N        2.684    -0.256    26.642     7.666
    21   6 C        3.749     0.016    20.370     6.437
    22   6 C        3.767    -0.004    20.693     6.483
    23   7 N        1.861    -0.323    29.239     8.015
    24   6 C        2.920     0.164    24.462     8.111
    25   7 N        2.749    -0.072    22.633     7.066
    26   6 C        3.821     0.036    19.954     6.357
    27   6 C        3.828    -0.061    21.654     6.621
    28   6 C        3.829    -0.056    21.562     6.607
    29   6 C        3.829    -0.060    21.639     6.619
    30   6 C        3.820    -0.057    21.586     6.612
    31   6 C        2.773     0.267    22.496     7.768
    32   8 O        0.859    -0.433    22.344     6.338
    33   8 O        0.857    -0.367    21.038     6.150
    34   1 H        0.925     0.056     2.244     2.342
    35   1 H        0.925     0.064     2.150     2.293
    36   1 H        0.925     0.105     1.741     2.063
    37   1 H        0.925     0.053     2.287     2.365
    38   1 H        0.925     0.072     2.063     2.246
    39   1 H        0.925     0.063     2.165     2.301
    40   1 H        0.925     0.050     2.314     2.379
    41   1 H        0.860     0.210     1.058     1.611
    42   1 H        0.926     0.034     2.525     2.485
    43   1 H        0.926     0.035     2.522     2.483
    44   1 H        0.926     0.069     2.095     2.263
    45   1 H        0.924     0.056     2.248     2.345
    46   1 H        0.925     0.047     2.364     2.404
    47   1 H        0.924     0.037     2.495     2.470
    48   1 H        0.922     0.011     2.876     2.652
    49   1 H        0.860     0.134     1.518     1.930
    50   1 H        0.922     0.008     2.929     2.676
    51   1 H        0.924     0.036     2.500     2.473
    52   1 H        0.924     0.054     2.275     2.359
    53   1 H        0.925     0.048     2.349     2.397
    54   1 H        0.924     0.069     2.094     2.263
    55   1 H        0.925     0.029     2.598     2.521
    56   1 H        0.925     0.057     2.233     2.337
    57   1 H        0.925     0.036     2.503     2.474
    58   1 H        0.924     0.032     2.560     2.502
    59   1 H        0.925     0.061     2.192     2.315
    60   1 H        0.925     0.031     2.567     2.506
    61   1 H        0.924     0.032     2.558     2.501
    62   1 H        0.925     0.048     2.350     2.397

 Mol. C6AA /au·bohr⁶  :      42323.337786
 Mol. C8AA /au·bohr⁸  :     982229.851007
 Mol. α(0) /au        :        315.361162


Wiberg/Mayer (AO) data.
largest (>0.10) Wiberg bond orders for each atom

 ---------------------------------------------------------------------------
     #   Z sym  total        # sym  WBO       # sym  WBO       # sym  WBO
 ---------------------------------------------------------------------------
     1   6 C    3.990 --     2 C    1.013    35 H    0.982    34 H    0.966
                            36 H    0.936
     2   6 C    3.919 --    33 O    1.829     1 C    1.013     3 C    0.998
     3   6 C    3.961 --     4 C    1.583    31 C    1.075     2 C    0.998
     4   6 C    3.977 --     3 C    1.583     6 C    1.174     5 C    1.034
     5   6 C    3.992 --     4 C    1.034    38 H    0.977    37 H    0.965
                            39 H    0.963
     6   6 C    3.974 --     7 C    1.330    24 C    1.220     4 C    1.174
     7   6 C    3.955 --     8 N    1.493     6 C    1.330    40 H    0.958
     8   7 N    3.036 --     7 C    1.493     9 C    1.266
     9   6 C    3.956 --    23 N    1.312     8 N    1.266    10 N    1.225
    10   7 N    3.502 --     9 C    1.225    11 C    1.085    41 H    0.921
    11   6 C    3.953 --    12 N    1.363    16 C    1.325    10 N    1.085
    12   7 N    3.048 --    13 C    1.452    11 C    1.363
    13   6 C    3.979 --    12 N    1.452    14 C    1.325    42 H    0.957
    14   6 C    3.962 --    13 C    1.325    15 C    1.320    17 N    1.144
    15   6 C    3.990 --    16 C    1.496    14 C    1.320    43 H    0.963
    16   6 C    3.983 --    15 C    1.496    11 C    1.325    44 H    0.958
    17   7 N    3.355 --    14 C    1.144    18 C    0.999    22 C    0.992
    18   6 C    3.981 --    17 N    0.999    19 C    0.991    46 H    0.968
                            45 H    0.967
    19   6 C    3.986 --    20 N    1.016    18 C    0.991    47 H    0.974
                            48 H    0.965
    20   7 N    3.065 --    21 C    1.017    19 C    1.016    49 H    0.958
    21   6 C    3.986 --    20 N    1.017    22 C    0.990    51 H    0.974
                            50 H    0.965
    22   6 C    3.980 --    17 N    0.992    21 C    0.990    52 H    0.969
                            53 H    0.967
    23   7 N    3.026 --    24 C    1.362     9 C    1.312
    24   6 C    3.965 --    23 N    1.362     6 C    1.220    25 N    1.198
    25   7 N    3.596 --    24 C    1.198    31 C    1.107    26 C    0.953
                            32 O    0.136
    26   6 C    3.948 --    27 C    0.983    30 C    0.981    54 H    0.957
                            25 N    0.953
    27   6 C    3.993 --    28 C    1.006    26 C    0.983    55 H    0.980
                            56 H    0.974
    28   6 C    3.997 --    29 C    1.007    27 C    1.006    58 H    0.980
                            57 H    0.979
    29   6 C    3.995 --    28 C    1.007    30 C    1.006    60 H    0.980
                            59 H    0.977
    30   6 C    3.994 --    29 C    1.006    61 H    0.981    26 C    0.981
                            62 H    0.978
    31   6 C    3.952 --    32 O    1.650    25 N    1.107     3 C    1.075
    32   8 O    1.977 --    31 C    1.650    25 N    0.136
    33   8 O    2.056 --     2 C    1.829
    34   1 H    0.997 --     1 C    0.966
    35   1 H    0.995 --     1 C    0.982
    36   1 H    0.989 --     1 C    0.936
    37   1 H    0.995 --     5 C    0.965
    38   1 H    0.994 --     5 C    0.977
    39   1 H    0.994 --     5 C    0.963
    40   1 H    0.997 --     7 C    0.958
    41   1 H    0.956 --    10 N    0.921
    42   1 H    0.998 --    13 C    0.957
    43   1 H    0.998 --    15 C    0.963
    44   1 H    0.995 --    16 C    0.958
    45   1 H    0.995 --    18 C    0.967
    46   1 H    0.998 --    18 C    0.968
    47   1 H    0.998 --    19 C    0.974
    48   1 H    1.000 --    19 C    0.965
    49   1 H    0.982 --    20 N    0.958
    50   1 H    1.000 --    21 C    0.965
    51   1 H    0.998 --    21 C    0.974
    52   1 H    0.996 --    22 C    0.969
    53   1 H    0.998 --    22 C    0.967
    54   1 H    0.995 --    26 C    0.957
    55   1 H    0.999 --    27 C    0.980
    56   1 H    0.997 --    27 C    0.974
    57   1 H    0.998 --    28 C    0.979
    58   1 H    0.999 --    28 C    0.980
    59   1 H    0.996 --    29 C    0.977
    60   1 H    0.999 --    29 C    0.980
    61   1 H    0.999 --    30 C    0.981
    62   1 H    0.998 --    30 C    0.978
 ---------------------------------------------------------------------------

Topologies differ in total number of bonds
Writing topology from bond orders to xtbtopo.mol

molecular dipole:
                 x           y           z       tot (Debye)
 q only:        2.951       0.462       0.835
   full:        2.785       0.195       1.295       7.822
molecular quadrupole (traceless):
                xx          xy          yy          xz          yz          zz
 q only:       -2.648     -15.089       4.559     -12.621      -6.830      -1.911
  q+dip:      -10.617     -10.009       7.556      -8.868      -7.304       3.062
   full:      -13.932     -10.051       5.077      -7.856      -7.552       8.855

           -------------------------------------------------
          |                Geometry Summary                 |
           -------------------------------------------------

      molecular mass/u    :      447.5336757
   center of mass at/Å    :       -0.2265272      -0.1660504      -0.1638758
  moments of inertia/u·Å² :        0.1753465E+04   0.1108808E+05   0.1243496E+05
rotational constants/cm⁻¹ :        0.9613897E-02   0.1520338E-02   0.1355664E-02

 * 61 selected distances

     #   Z          #   Z                                           value/Å
     3   6 C        4   6 C                                       1.3643077
     4   6 C        6   6 C                                       1.4293706
     6   6 C        7   6 C                                       1.4003707
     7   6 C        8   7 N                                       1.3109050
     8   7 N        9   6 C                                       1.3417842
     9   6 C       10   7 N                                       1.3479860
    10   7 N       11   6 C                                       1.3872618
    11   6 C       12   7 N                                       1.3282605
    12   7 N       13   6 C                                       1.3175090
    13   6 C       14   6 C                                       1.4028415
    14   6 C       15   6 C                                       1.4057389
    11   6 C       16   6 C                                       1.3946248
    15   6 C       16   6 C                                       1.3769242
    14   6 C       17   7 N                                       1.3811091
    17   7 N       18   6 C                                       1.4476388
    18   6 C       19   6 C                                       1.5325164
    19   6 C       20   7 N                                       1.4525629
    20   7 N       21   6 C                                       1.4512361
    17   7 N       22   6 C                                       1.4496364
    21   6 C       22   6 C                                       1.5345186
     9   6 C       23   7 N                                       1.3338976
     6   6 C       24   6 C                                       1.4177873
    23   7 N       24   6 C                                       1.3280295
    24   6 C       25   7 N                                       1.3600616
    25   7 N       26   6 C                                       1.4630717
    26   6 C       27   6 C                                       1.5376392 (max)
    27   6 C       28   6 C                                       1.5250969
    28   6 C       29   6 C                                       1.5258061
    29   6 C       30   6 C                                       1.5306825
    25   7 N       31   6 C                                       1.3928608
    31   6 C       32   8 O                                       1.2185643
     2   6 C       33   8 O                                       1.2096722
     1   6 C       34   1 H                                       1.0880614
     1   6 C       35   1 H                                       1.0866377
     1   6 C       36   1 H                                       1.0887731
     5   6 C       37   1 H                                       1.0896953
     5   6 C       38   1 H                                       1.0839346
     5   6 C       39   1 H                                       1.0890006
     7   6 C       40   1 H                                       1.0813664
    10   7 N       41   1 H                                       1.0127246 (min)
    13   6 C       42   1 H                                       1.0804841
    15   6 C       43   1 H                                       1.0792486
    16   6 C       44   1 H                                       1.0759363
    18   6 C       45   1 H                                       1.0945923
    18   6 C       46   1 H                                       1.0889356
    19   6 C       47   1 H                                       1.0917231
    19   6 C       48   1 H                                       1.1047348
    20   7 N       49   1 H                                       1.0145768
    21   6 C       50   1 H                                       1.1061923
    21   6 C       51   1 H                                       1.0917929
    22   6 C       52   1 H                                       1.0937450
    22   6 C       53   1 H                                       1.0875967
    26   6 C       54   1 H                                       1.0906607
    27   6 C       55   1 H                                       1.0894759
    27   6 C       56   1 H                                       1.0888589
    28   6 C       57   1 H                                       1.0886760
    28   6 C       58   1 H                                       1.0918329
    29   6 C       59   1 H                                       1.0891392
    29   6 C       60   1 H                                       1.0888891
    30   6 C       61   1 H                                       1.0906189
    30   6 C       62   1 H                                       1.0878588

 * 5 distinct bonds (by element types)

   Z      Z             #   av. dist./Å        max./Å        min./Å
   1 H    6 C          27     1.0892023     1.1061923     1.0759363
[...]
    1    6 C      1-7, 9, 11, 13-16, 18, 19, 21, 22, 24, 26-31
    2    7 N      8, 10, 12, 17, 20, 23, 25
    3    8 O      32, 33
    4    1 H      34-62

           -------------------------------------------------
          |                Calculation Setup                |
           -------------------------------------------------

          program call               : xtb /rds/general/user/hgt20/home/callum/QDESCP/Palbociclib_rdkit_conf_13/Palbociclib_rdkit_conf_13.xyz --acc 1 --gfn 2 --chrg 0 --uhf 2 --etemp 300 --input /rds/general/user/hgt20/home/callum/QDESCP/Palbociclib_rdkit_conf_13/Palbociclib_rdkit_conf_13_xtb.inp -P 1
          hostname                   : login-c
          coordinate file            : /rds/general/user/hgt20/home/callum/QDESCP/Palbociclib_rdkit_conf_13/Palbociclib_rdkit_conf_13.xyz
          omp threads                :                     1


           -------------------------------------------------
          |                 G F N 2 - x T B                 |
           -------------------------------------------------

        Reference                      10.1021/acs.jctc.8b01176
      * Hamiltonian:
        H0-scaling (s, p, d)           1.850000    2.230000    2.230000
        zeta-weighting                 0.500000
      * Dispersion:
        s8                             2.700000
        a1                             0.520000
        a2                             5.000000
        s9                             5.000000
      * Repulsion:
        kExp                           1.500000    1.000000
        rExp                           1.000000
      * Coulomb:
        alpha                          2.000000
        third order                    shell-resolved
        anisotropic                    true
        a3                             3.000000
        a5                             4.000000
        cn-shift                       1.200000
        cn-exp                         4.000000
        max-rad                        5.000000


          ...................................................
          :                      SETUP                      :
          :.................................................:
          :  # basis functions                 161          :
          :  # atomic orbitals                 161          :
          :  # shells                           95          :
          :  # electrons                       172          :
          :  max. iterations                   250          :
          :  Hamiltonian                  GFN2-xTB          :
          :  restarted?                      false          :
          :  GBSA solvation                  false          :
          :  PC potential                    false          :
          :  electronic temp.          300.0000000     K    :
          :  accuracy                    1.0000000          :
          :  -> integral cutoff          0.2500000E+02      :
          :  -> integral neglect         0.1000000E-07      :
          :  -> SCF convergence          0.1000000E-05 Eh   :
          :  -> wf. convergence          0.1000000E-03 e    :
          :  Broyden damping             0.4000000          :
          :  net charge                          0          :
          :  unpaired electrons                  2          :
          ...................................................

 iter      E             dE          RMSdq      gap      omega  full diag
   1    -95.8301800 -0.958302E+02  0.378E+00    0.87       0.0  T
   2    -95.6853356  0.144844E+00  0.281E+00    0.45       1.0  T
   3    -95.7837101 -0.983745E-01  0.201E+00    0.80       1.0  T
   4    -96.0461418 -0.262432E+00  0.109E+00    0.26       1.0  T
   5    -96.0015346  0.446072E-01  0.969E-01    0.47       1.0  T
   6    -96.0401283 -0.385937E-01  0.723E-01    0.58       1.0  T
   7    -96.0465931 -0.646487E-02  0.586E-01    0.35       1.0  T
   8    -96.0893357 -0.427426E-01  0.357E-01    0.50       1.0  T
   9    -96.1002751 -0.109394E-01  0.214E-01    0.39       1.0  T
  10    -96.1026955 -0.242041E-02  0.897E-02    0.37       1.0  T
  11    -96.1012347  0.146080E-02  0.111E-01    0.34       1.0  T
  12    -96.1025693 -0.133455E-02  0.672E-02    0.36       1.0  T
  13    -96.1028661 -0.296845E-03  0.453E-02    0.35       1.0  T
  14    -96.1031836 -0.317496E-03  0.557E-03    0.34       2.3  T
  15    -96.1031838 -0.130411E-06  0.401E-03    0.34       3.2  T
  16    -96.1031848 -0.106676E-05  0.208E-03    0.34       6.1  T
  17    -96.1031853 -0.428545E-06  0.685E-04    0.34      18.5  T
  18    -96.1031853 -0.174566E-07  0.365E-04    0.34      34.8  T

   *** convergence criteria satisfied after 18 iterations ***

         #    Occupation            Energy/Eh            Energy/eV
      -------------------------------------------------------------
         1        2.0000           -0.6931135             -18.8606
       ...           ...                  ...                  ...
        81        2.0000           -0.3870828             -10.5331
        82        2.0000           -0.3822390             -10.4013
        83        2.0000           -0.3775193             -10.2728
        84        1.8874           -0.3673302              -9.9956
        85        1.7959           -0.3666619              -9.9774
        86        1.3167           -0.3646382              -9.9223
        87        0.9987           -0.2688803              -7.3166 (HOMO)
        88        0.0013           -0.2562358              -6.9725 (LUMO)
        89                         -0.2451586              -6.6711
        90                         -0.2328048              -6.3349
        91                         -0.2111913              -5.7468
        92                         -0.1970215              -5.3612
       ...                                ...                  ...
       161                          0.7160580              19.4849
      -------------------------------------------------------------
                  HL-Gap            0.0126445 Eh            0.3441 eV
             Fermi-level           -0.3139635 Eh           -8.5434 eV

 transition dipole moment (au) for excitation:          86          87
     X       Y       Z   
   2.6571   0.0417  -0.0427  total (au/Debye):    2.658   6.756
 dE (eV)             :    2.606
 oscillator strength :  0.63774E+00

 SCC (total)                   0 d,  0 h,  0 min,  0.307 sec
 SCC setup                      ...        0 min,  0.001 sec (  0.222%)
 Dispersion                     ...        0 min,  0.001 sec (  0.350%)
 classical contributions        ...        0 min,  0.000 sec (  0.100%)
 integral evaluation            ...        0 min,  0.014 sec (  4.444%)
 iterations                     ...        0 min,  0.182 sec ( 59.384%)
 molecular gradient             ...        0 min,  0.098 sec ( 31.914%)
 printout                       ...        0 min,  0.011 sec (  3.582%)

         :::::::::::::::::::::::::::::::::::::::::::::::::::::
         ::                     SUMMARY                     ::
         :::::::::::::::::::::::::::::::::::::::::::::::::::::
         :: total energy             -94.794730702151 Eh    ::
         :: gradient norm              0.099575647248 Eh/a0 ::
         :: HOMO-LUMO gap              0.344075445538 eV    ::
         ::.................................................::
         :: SCC energy               -96.103420091736 Eh    ::
         :: -> isotropic ES            0.110299825176 Eh    ::
         :: -> anisotropic ES          0.004715440771 Eh    ::
         :: -> anisotropic XC          0.048713368953 Eh    ::
         :: -> dispersion             -0.071034743188 Eh    ::
         :: repulsion energy           1.308689389586 Eh    ::
         :: add. restraining           0.000000000000 Eh    ::
         :: total charge               0.000000000002 e     ::
         :::::::::::::::::::::::::::::::::::::::::::::::::::::

           -------------------------------------------------
          |                Property Printout                |
           -------------------------------------------------

    * Orbital Energies and Occupations

         #    Occupation            Energy/Eh            Energy/eV
      -------------------------------------------------------------
         1        2.0000           -0.6931135             -18.8606
       ...           ...                  ...                  ...
        75        2.0000           -0.4229753             -11.5097
        76        2.0000           -0.4161593             -11.3243
        77        2.0000           -0.4124509             -11.2234
        78        2.0000           -0.4073298             -11.0840
        79        2.0000           -0.3987781             -10.8513
        80        2.0000           -0.3935394             -10.7088
        81        2.0000           -0.3870828             -10.5331
        82        2.0000           -0.3822390             -10.4013
        83        2.0000           -0.3775193             -10.2728
        84        1.8874           -0.3673302              -9.9956
        85        1.7959           -0.3666619              -9.9774
        86        1.3167           -0.3646382              -9.9223
        87        0.9987           -0.2688803              -7.3166 (HOMO)
        88        0.0013           -0.2562358              -6.9725 (LUMO)
        89                         -0.2451586              -6.6711
        90                         -0.2328048              -6.3349
        91                         -0.2111913              -5.7468
        92                         -0.1970215              -5.3612
        93                         -0.1417216              -3.8564
        94                         -0.1107832              -3.0146
        95                         -0.0720495              -1.9606
        96                         -0.0229130              -0.6235
        97                         -0.0057150              -0.1555
        98                          0.0116431               0.3168
       ...                                ...                  ...
       161                          0.7160580              19.4849
      -------------------------------------------------------------
                  HL-Gap            0.0126445 Eh            0.3441 eV
             Fermi-level           -0.3139635 Eh           -8.5434 eV

     #   Z          covCN         q      C6AA      α(0)
     1   6 C        3.754    -0.135    23.149     6.861
     2   6 C        2.817     0.244    22.928     7.845
     3   6 C        2.964    -0.075    29.873     8.965
     4   6 C        2.957    -0.001    28.049     8.687
     5   6 C        3.758    -0.107    22.603     6.778
     6   6 C        2.979    -0.039    28.951     8.826
     7   6 C        2.925     0.039    27.134     8.542
     8   7 N        1.837    -0.263    27.681     7.797
     9   6 C        2.882     0.213    23.507     7.948
    10   7 N        2.726    -0.120    23.616     7.218
    11   6 C        2.890     0.145    24.851     8.173
    12   7 N        1.852    -0.256    27.518     7.775
    13   6 C        2.906     0.039    27.127     8.540
    14   6 C        2.903     0.045    26.987     8.518
    15   6 C        2.936    -0.038    28.938     8.822
    16   6 C        2.910    -0.054    29.338     8.882
    17   7 N        2.736    -0.080    22.797     7.091
    18   6 C        3.768    -0.010    20.788     6.498
    19   6 C        3.749     0.013    20.425     6.446
    20   7 N        2.684    -0.248    26.457     7.639
    21   6 C        3.749     0.014    20.401     6.442
    22   6 C        3.767    -0.008    20.758     6.493
    23   7 N        1.861    -0.317    29.065     7.991
    24   6 C        2.920     0.164    24.468     8.112
    25   7 N        2.749    -0.080    22.788     7.090
    26   6 C        3.821     0.040    19.886     6.346
    27   6 C        3.828    -0.061    21.654     6.621
    28   6 C        3.829    -0.056    21.551     6.605
    29   6 C        3.829    -0.060    21.634     6.618
    30   6 C        3.820    -0.057    21.580     6.611
    31   6 C        2.773     0.258    22.663     7.797
    32   8 O        0.859    -0.441    22.511     6.361
    33   8 O        0.857    -0.371    21.114     6.161
    34   1 H        0.925     0.053     2.284     2.363
    35   1 H        0.925     0.060     2.199     2.319
    36   1 H        0.925     0.100     1.788     2.091
    37   1 H        0.925     0.040     2.446     2.446
    38   1 H        0.925     0.064     2.148     2.292
    39   1 H        0.925     0.049     2.329     2.387
    40   1 H        0.925     0.040     2.447     2.446
    41   1 H        0.860     0.211     1.050     1.605
    42   1 H        0.926     0.040     2.449     2.447
    43   1 H        0.926     0.039     2.458     2.452
    44   1 H        0.926     0.079     1.992     2.207
    45   1 H        0.924     0.065     2.145     2.290
    46   1 H        0.925     0.055     2.264     2.353
    47   1 H        0.924     0.045     2.385     2.415
    48   1 H        0.922     0.018     2.763     2.600
    49   1 H        0.860     0.142     1.457     1.891
    50   1 H        0.922     0.015     2.809     2.621
    51   1 H        0.924     0.045     2.387     2.416
    52   1 H        0.924     0.062     2.176     2.307
    53   1 H        0.925     0.056     2.242     2.342
    54   1 H        0.924     0.064     2.149     2.292
    55   1 H        0.925     0.027     2.626     2.534
    56   1 H        0.925     0.060     2.199     2.319
    57   1 H        0.925     0.034     2.526     2.486
    58   1 H        0.924     0.030     2.593     2.518
    59   1 H        0.925     0.061     2.185     2.312
    60   1 H        0.925     0.029     2.598     2.520
    61   1 H        0.924     0.030     2.592     2.518
    62   1 H        0.925     0.050     2.319     2.382

 Mol. C6AA /au·bohr⁶  :      42293.822525
 Mol. C8AA /au·bohr⁸  :     982069.801231
 Mol. α(0) /au        :        315.272039


Wiberg/Mayer (AO) data.
largest (>0.10) Wiberg bond orders for each atom

 ---------------------------------------------------------------------------
     #   Z sym  total        # sym  WBO       # sym  WBO       # sym  WBO
 ---------------------------------------------------------------------------
     1   6 C    3.964 --     2 C    0.995    35 H    0.981    34 H    0.969
                            36 H    0.940
     2   6 C    3.890 --    33 O    1.771     3 C    1.022     1 C    0.995
     3   6 C    3.818 --     4 C    1.385    31 C    1.117     2 C    1.022
     4   6 C    3.893 --     3 C    1.385     6 C    1.253     5 C    1.025
     5   6 C    3.985 --     4 C    1.025    38 H    0.977    37 H    0.969
                            39 H    0.968
     6   6 C    3.891 --     4 C    1.253     7 C    1.221    24 C    1.196
     7   6 C    3.868 --     8 N    1.442     6 C    1.221    40 H    0.953
     8   7 N    3.000 --     7 C    1.442     9 C    1.300
     9   6 C    3.913 --     8 N    1.300    23 N    1.235    10 N    1.167
    10   7 N    3.471 --     9 C    1.167    11 C    1.150    41 H    0.920
    11   6 C    3.902 --    12 N    1.302    16 C    1.281    10 N    1.150
    12   7 N    3.003 --    13 C    1.471    11 C    1.302
    13   6 C    3.937 --    12 N    1.471    14 C    1.308    42 H    0.957
    14   6 C    3.905 --    13 C    1.308    15 C    1.276    17 N    1.153
    15   6 C    3.945 --    16 C    1.534    14 C    1.276    43 H    0.962
    16   6 C    3.960 --    15 C    1.534    11 C    1.281    44 H    0.953
    17   7 N    3.312 --    14 C    1.153    18 C    1.001    22 C    0.994
    18   6 C    3.973 --    17 N    1.001    19 C    0.984    46 H    0.968
                            45 H    0.964
    19   6 C    3.975 --    20 N    1.018    18 C    0.984    47 H    0.973
                            48 H    0.963
    20   7 N    3.067 --    21 C    1.020    19 C    1.018    49 H    0.953
    21   6 C    3.975 --    20 N    1.020    22 C    0.982    51 H    0.973
                            50 H    0.964
    22   6 C    3.970 --    17 N    0.994    21 C    0.982    52 H    0.967
                            53 H    0.965
    23   7 N    2.954 --    24 C    1.371     9 C    1.235
    24   6 C    3.947 --    23 N    1.371    25 N    1.201     6 C    1.196
    25   7 N    3.557 --    24 C    1.201    31 C    1.074    26 C    0.955
                            32 O    0.106
    26   6 C    3.944 --    27 C    0.984    30 C    0.982    25 N    0.955
                            54 H    0.953
    27   6 C    3.989 --    28 C    1.007    26 C    0.984    55 H    0.980
                            56 H    0.971
    28   6 C    3.997 --    29 C    1.007    27 C    1.007    58 H    0.980
                            57 H    0.979
    29   6 C    3.994 --    28 C    1.007    30 C    1.006    60 H    0.980
                            59 H    0.977
    30   6 C    3.991 --    29 C    1.006    26 C    0.982    61 H    0.980
                            62 H    0.976
    31   6 C    3.932 --    32 O    1.605     3 C    1.117    25 N    1.074
    32   8 O    1.912 --    31 C    1.605    25 N    0.106
    33   8 O    1.988 --     2 C    1.771
    34   1 H    0.996 --     1 C    0.969
    35   1 H    0.994 --     1 C    0.981
    36   1 H    0.988 --     1 C    0.940
    37   1 H    0.994 --     5 C    0.969
    38   1 H    0.995 --     5 C    0.977
    39   1 H    0.994 --     5 C    0.968
    40   1 H    0.987 --     7 C    0.953
    41   1 H    0.955 --    10 N    0.920
    42   1 H    0.997 --    13 C    0.957
    43   1 H    0.997 --    15 C    0.962
    44   1 H    0.992 --    16 C    0.953
    45   1 H    0.991 --    18 C    0.964
    46   1 H    0.997 --    18 C    0.968
    47   1 H    0.997 --    19 C    0.973
    48   1 H    0.997 --    19 C    0.963
    49   1 H    0.977 --    20 N    0.953
    50   1 H    0.998 --    21 C    0.964
    51   1 H    0.997 --    21 C    0.973
    52   1 H    0.992 --    22 C    0.967
    53   1 H    0.996 --    22 C    0.965
    54   1 H    0.993 --    26 C    0.953
    55   1 H    0.999 --    27 C    0.980
    56   1 H    0.994 --    27 C    0.971
    57   1 H    0.998 --    28 C    0.979
    58   1 H    0.999 --    28 C    0.980
    59   1 H    0.996 --    29 C    0.977
    60   1 H    0.999 --    29 C    0.980
    61   1 H    0.997 --    30 C    0.980
    62   1 H    0.996 --    30 C    0.976
 ---------------------------------------------------------------------------

Topologies differ in total number of bonds
Writing topology from bond orders to xtbtopo.mol

molecular dipole:
                 x           y           z       tot (Debye)
 q only:        5.575       0.952       0.943
   full:        5.478       0.738       1.364      14.470
molecular quadrupole (traceless):
                xx          xy          yy          xz          yz          zz
 q only:       11.602     -20.773      -5.251     -11.421      -7.260      -6.351
  q+dip:        4.081     -16.171      -2.325      -8.349      -7.785      -1.757
   full:        0.956     -16.317      -4.586      -7.403      -7.961       3.631


           -------------------------------------------------
          | TOTAL ENERGY              -94.794730702151 Eh   |
          | GRADIENT NORM               0.099575647248 Eh/α |
          | HOMO-LUMO GAP               0.344075445538 eV   |
           -------------------------------------------------

------------------------------------------------------------------------
 * finished run on 2025/05/15 at 16:12:45.009     
------------------------------------------------------------------------
 total:
 * wall-time:     0 d,  0 h,  0 min,  0.327 sec
 *  cpu-time:     0 d,  0 h,  0 min,  0.175 sec
 * ratio c/w:     0.535 speedup
 SCF:
 * wall-time:     0 d,  0 h,  0 min,  0.307 sec
 *  cpu-time:     0 d,  0 h,  0 min,  0.157 sec
 * ratio c/w:     0.512 speedup


