62
 energy: -94.881621084666 gnorm: 0.000630368004 xtb: 6.7.1 (edcfbbe)
C           -7.10428068339867       -1.71599006468147        0.85386549052397
C           -6.16706171447691       -2.23913496091836       -0.19537471151125
C           -4.81906552515352       -1.58909939880355       -0.23338658501849
C           -3.67443922527251       -2.33110515033815       -0.25774152039904
C           -3.66186870875780       -3.82592252562469       -0.21407917648008
C           -2.42072739732396       -1.64519421633795       -0.28659936253636
C           -1.16312843188528       -2.26106680752356       -0.27305107935921
N           -0.02920299696963       -1.60451921677480       -0.31342408391792
C           -0.10605959836213       -0.26637268491149       -0.37540317916560
N            1.01553180252020        0.47942014542474       -0.42917736384681
C            2.35487536013344        0.11798368295944       -0.43336397246978
N            3.17839855146893        1.15689546877623       -0.51550760728048
C            4.48013563504175        0.95367168102822       -0.51231205888648
C            5.08023198002626       -0.31114716792811       -0.42241420887666
C            4.18846433358843       -1.39581723572374       -0.35651343500914
C            2.82665373415444       -1.19241287241825       -0.36081031453385
N            6.44496302944176       -0.51413560162828       -0.48378956786572
C            7.35052702601012        0.59886628067117       -0.67572258526906
C            7.74329313328585        1.23436655916501        0.66236573697177
N            8.37220404823040        0.20404244503464        1.47035201961377
C            7.45857125868495       -0.89764292813492        1.71045667060966
C            7.06955492284727       -1.51381431725747        0.35999526913073
N           -1.24072975032872        0.43480579306826       -0.38784921907659
C           -2.39019211045325       -0.22893377891455       -0.34486114327226
N           -3.54934513186867        0.48237640175067       -0.35787070485693
C           -3.46933786337597        1.94116486913196       -0.43605935760259
C           -4.00651981664744        2.64261937099302        0.82240439181002
C           -4.55356903594970        3.96375059051702        0.29205582119032
C           -5.22715118114113        3.54464486612293       -1.01129424325470
C           -4.24644344455255        2.54308889013642       -1.62618155865013
C           -4.79968295174163       -0.12623504306142       -0.27844576284357
O           -5.80699890809572        0.55944923786044       -0.27134842815822
O           -6.46663410603227       -3.13488285122449       -0.95115161474258
H           -6.60541979737004       -1.66944749697292        1.81970653984107
H           -7.98727863849614       -2.34680965722402        0.91010093053763
H           -7.38970117318961       -0.70248529068234        0.57679175859431
H           -3.12334451855567       -4.17101256039991        0.66815671783042
H           -4.66705141961873       -4.23125346842118       -0.19896274378653
H           -3.15405903216145       -4.21345534893309       -1.09604840931007
H           -1.06688012341593       -3.33718244675010       -0.22761502069245
H            0.86431458481692        1.47926630849937       -0.48442228122383
H            5.06353077425590        1.86071481051328       -0.57840782535070
H            4.56210841179277       -2.40776900416615       -0.32303260640841
H            2.13240770764690       -2.01318869541629       -0.31622080563786
H            8.25608466970312        0.19750605960631       -1.14156316025560
H            6.91163038961431        1.33101346409944       -1.35182223123590
H            8.46186707578432        2.03983564352105        0.49887231495406
H            6.84255252546691        1.65470947816936        1.14446217080594
H            8.70294251497026        0.59051216710275        2.34820121121871
H            6.53557309038564       -0.57581353409557        2.22829968572339
H            7.96319200054316       -1.64361304467655        2.32762609818051
H            7.97440795264494       -1.86515514867011       -0.14406671630695
H            6.40431944633775       -2.35916233113000        0.52035362255037
H           -2.40468066170842        2.15089024216967       -0.54588107703055
H           -3.23011579672313        2.76906409892033        1.57617225034843
H           -4.82177100479420        2.06116470177744        1.25006021188758
H           -5.24409809711878        4.43580915822700        0.98886685498168
H           -3.73422600993201        4.65632907611502        0.08929753173418
H           -6.16484835697767        3.03848016508366       -0.78602722200894
H           -5.42798048902301        4.38529750192356       -1.67360073834731
H           -3.54919224041644        3.04738752211723       -2.29623611835107
H           -4.76485001810469        1.77454816925290       -2.19542349820825
