98
 energy: -148.200373720448 gnorm: 0.000169158015 xtb: 6.7.1 (edcfbbe)
O           -2.83791494357297        3.45872868639443        0.63933487246485
C           -2.40668409820029        3.22426654100566       -0.46211281531752
N           -2.80167332416401        2.22660977288084       -1.27061417378119
C           -3.71527808725083        1.18592950078761       -0.85578687291274
C           -4.86267003257084        1.07227501514572       -1.87281553837176
C           -5.91688368564254        0.11269225183188       -1.40138872218306
C           -6.81050628232776        0.48716313791831       -0.40510185252830
C           -7.76907346717833       -0.39952877877441        0.05122124449316
C           -7.84556904213316       -1.67527748349254       -0.48216912767211
C           -6.95952416166547       -2.05786609197568       -1.47434839025231
C           -6.00160847625839       -1.16880641010883       -1.93004701544797
C           -2.94701515139371       -0.14771406514769       -0.73394214233345
C           -1.91935246949692       -0.04986079948985        0.40007949737033
C           -1.05782026598138       -1.29705928422248        0.59849831854796
N           -0.15679320295581       -1.46018589191948       -0.52548570457888
C            0.27544488314415       -2.66361096562982       -0.95372602979928
C            1.37093274106575       -2.52502824013294       -2.03149401831009
N            2.48158588262130       -1.72085984758053       -1.55269174657201
C            2.46157399740062       -0.36284543724084       -1.64907175004241
N            3.59481424183885        0.30934077856286       -1.30824648776637
C            4.76777377191903       -0.32602320769429       -0.76201275609342
C            3.44691478326465        1.74824365379321       -1.12858620524480
C            2.67075629745149        2.03990331123304        0.11870991689860
C            1.31756116348894        2.16149862333972        0.18652979439406
S            0.80849088212571        2.41247372796213        1.80881876401428
C            2.49398559068874        2.31271481772788        2.29616359772490
C            2.89164839406164        2.44983204943172        3.72336037214762
C            2.21505523737733        1.36938793288881        4.56917587967386
C            2.53120386016789        3.84687381800694        4.23265027507030
N            3.30472219269447        2.11960476811680        1.32039967404808
O            1.46668174800070        0.23136249207094       -2.06032763857942
C            1.89129496630984       -3.86017766154566       -2.58986735488473
C            0.77893488828210       -4.58234311981639       -3.34675739591825
C            2.46963576686329       -4.76521577369833       -1.50332580110060
O           -0.19057265266231       -3.71621747120574       -0.56750576201808
C           -0.26541945235442       -1.16195059328794        1.92027750711906
C            0.81732163476269       -2.19528871958298        2.02360250826430
C            2.13628052721963       -1.85937216121908        1.74910406736587
C            3.13292138552295       -2.81936157994762        1.80191211714470
C            2.81910391653728       -4.12867663379203        2.12026569769449
C            1.50617181877198       -4.47142208117980        2.39618916543536
C            0.51409947435395       -3.51047509246017        2.35206592727900
O           -2.36551892051449       -0.38828997038199       -1.99606588774868
O           -1.44365494577605        3.97156823451878       -1.07980578052628
C           -0.96465631292820        5.09725788342843       -0.35696157642539
C            0.51994425911326        5.17782112397998       -0.46692001991380
C            1.31371301502459        4.82014406875396       -1.51559820783577
N            2.64181591774928        4.99084764608314       -1.32700760751147
C            2.89724009898475        5.47183926039192       -0.16866652410356
S            1.50565076570683        5.76878469038879        0.82810563496358
H           -2.28896374873757        2.05422374404010       -2.12268927928950
H           -4.10643566841655        1.47445109596482        0.12394633496461
H           -5.29540410785545        2.06535485539094       -2.00819521546835
H           -4.44218681874926        0.73624793306384       -2.82100814077764
H           -6.75505547956861        1.48279717286025        0.01125985459319
H           -8.45981402080638       -0.09483512881768        0.82390747864159
H           -8.59450727604146       -2.36768719143286       -0.12698287023004
H           -7.01468831102303       -3.05136127401348       -1.89510120035444
H           -5.31046069433588       -1.46994952368848       -2.70405412377746
H           -3.66795843289822       -0.94665830410366       -0.49527215878051
H           -2.45823283551074        0.15988927711275        1.32465254072476
H           -1.25662763881155        0.79485579211033        0.20263304819682
H           -1.67318850915613       -2.20364489907478        0.64222053772862
H            0.26535570750680       -0.62485747201811       -0.92638471898626
H            0.92158962286067       -1.95173446897428       -2.85443424172237
H            3.13416254162713       -2.18092435394712       -0.94213192772904
H            4.64798338803806       -0.58086867323866        0.29642930784129
H            5.00706597826971       -1.22413161161946       -1.33184680781804
H            5.60590412415570        0.36352772174119       -0.84990840697228
H            2.91094820665415        2.14954908919934       -1.99048803544825
H            4.43512506978862        2.20107814337183       -1.06482303333686
H            0.61748028517771        2.12742362466276       -0.62250793515948
H            3.97775338528954        2.31804607635835        3.76398942873226
H            1.13395140822204        1.48836671022123        4.53614927946256
H            2.46606682878263        0.37696817144956        4.20004498658339
H            2.54124368763192        1.44691505266571        5.60318177731699
H            3.01228710913559        4.61079973555196        3.62580544714635
H            2.85707619460410        3.96428461905903        5.26299257264339
H            1.45457316810894        3.99741244046808        4.18821006324852
H            2.69068735495911       -3.60895742026733       -3.29926596255063
H           -0.02071637215551       -4.84822361359215       -2.66198582229649
H            1.16471683218984       -5.49199160676336       -3.80030607168296
H            0.37375359728477       -3.95006904554029       -4.13401080757047
H            1.70732857563548       -4.99450447082973       -0.76513609374383
H            3.31433350906745       -4.30047232428104       -0.99804323253237
H            2.81570092575437       -5.69526557441809       -1.94799870617013
H            0.17596332633899       -0.16522941849037        1.96224211505751
H           -0.96566291711253       -1.26274461938560        2.75104268541520
H            2.38387162845054       -0.83525591356010        1.49990920457479
H            4.16077137563399       -2.54695582761908        1.60091193316240
H            3.59542462683438       -4.87887152351561        2.15358240854018
H            1.25593000304832       -5.49216214911536        2.64329109516837
H           -0.50900143470166       -3.78266997651653        2.56320685461889
H           -1.75069958392984       -1.12698073180010       -1.91321976158598
H           -1.27663463346527        5.00565783079692        0.69076449673029
H           -1.42713030221014        6.00117418479032       -0.77870674131832
H            0.95886322244638        4.41438435221712       -2.44459612751535
H            3.88297197434879        5.68979306883762        0.18981004555842
