39
 energy: -51.133338100804 gnorm: 0.000491368614 xtb: 6.7.1 (edcfbbe)
C           -0.94373569700056        0.86011564432681       -2.37636818819552
C           -1.97331505969412        1.17010303141794       -1.32855681484029
C           -3.08879716782715        1.92495995213341       -1.65265212193968
C           -4.05633542920356        2.20029270429174       -0.70317429143873
C           -3.93090699377969        1.68062391270021        0.56983916986841
C           -2.83558780878597        0.90487418565043        0.92956887604889
C           -2.78077029911957        0.28523215327156        2.28899830457707
C           -1.83069251205175        0.69066271124677       -0.01939462689140
N           -0.68265434822418       -0.06496807078837        0.28754865072981
C            0.15736644541758        0.06069367820415        1.34206815513388
C            1.30563454905568       -0.95155203974460        1.25028771556704
N            1.83422177142404       -1.02686043904969       -0.10351962184857
C            2.95768602705664       -0.12362271732134       -0.30763317359279
C            2.55287497529234        1.34077829031847       -0.19115757539251
C            2.09265151855240       -2.37959274736380       -0.56936984226240
C            3.21100403145904       -3.13912945491134        0.15117153639272
O            0.03629106868711        0.83195889849862        2.26894146141009
H           -0.92883062528974       -0.20817940185090       -2.60005640469138
H           -1.17093604963747        1.39292889074490       -3.29617791497268
H            0.05282499773693        1.14989660027543       -2.04801081552298
H           -3.19707844765226        2.30456150463499       -2.65846020513747
H           -4.91434183038093        2.80212319827402       -0.96275017322892
H           -4.70307819193843        1.86496889295544        1.30250660951787
H           -2.51442258159677       -0.76876144068399        2.21545666033579
H           -2.02034915360879        0.77046754347920        2.89895241348396
H           -3.74305812683900        0.37386968684432        2.78643410788196
H           -0.27858900452600       -0.59100918562779       -0.47938411849847
H            0.88689031616693       -1.92069004285813        1.53749603760151
H            2.06763208226426       -0.67998785925213        1.99283126320255
H            3.34655417460221       -0.30829006964534       -1.31302511769285
H            3.76862374814689       -0.32004402266151        0.41354927522925
H            3.41887347850255        1.97099803716248       -0.37902611348098
H            2.17195159667507        1.56841782073474        0.80004706067807
H            1.78414957478911        1.58759020947853       -0.91849172789496
H            2.33144637249566       -2.31512196522408       -1.63559037741703
H            1.15823121133349       -2.94184990859437       -0.47264122902852
H            3.26820064703115       -4.15467679665369       -0.23181609380134
H            4.17228748443672       -2.65782942227445       -0.00922204299965
H            3.01828325602921       -3.18395196214026        1.22068129311145
