62
 energy: -94.876641129348 gnorm: 0.000440684380 xtb: 6.7.1 (edcfbbe)
C           -7.12073364078771       -2.27830236863501        0.61775556604247
C           -6.12821965590265       -2.46082352733604       -0.49370693184104
C           -4.82803608973402       -1.74117550903795       -0.31662395141429
C           -3.63474585971780       -2.37885956460114       -0.49370232790028
C           -3.52032149529468       -3.83127755080736       -0.83099995787605
C           -2.43103272580286       -1.63047758657234       -0.31212781197340
C           -1.13430833434513       -2.14129225785081       -0.45131073299533
N           -0.04766502113621       -1.42640668070196       -0.29099381126280
C           -0.21474378914848       -0.13299986598069        0.02670582459457
N            0.85318922127205        0.66740561231818        0.20817683558302
C            2.21511097533432        0.41326122185357        0.11521972631608
N            2.96456617834422        1.47946080848051        0.37850873418933
C            4.27530885862964        1.37591545367313        0.32955552897867
C            4.95713039801774        0.19204305764911        0.00288094608938
C            4.14685313164602       -0.92148912513166       -0.27771866174586
C            2.77362995020001       -0.81872952223981       -0.22015544256761
N            6.32107164521270        0.12674166508051       -0.05125065965827
C            7.14687835643902        1.31447025697064       -0.05457430812117
C            8.45439525344501        1.02282913570738       -0.78515164249448
N            9.23018548882677        0.02076267110259       -0.06476477569456
C            8.39148976215241       -0.92265029600884        0.65605291690927
C            7.02605191462759       -1.13609127193919       -0.00625010498946
N           -1.39497758841023        0.46852907086650        0.18742915523271
C           -2.49639590439860       -0.25385942773927        0.02071937540302
N           -3.70136009513528        0.35818091943414        0.17582087519535
C           -3.71930512769301        1.78396529761534        0.50327282271782
C           -4.32179264199931        2.64787519897443       -0.61698301248820
C           -4.95535769307726        3.81711566043876        0.12950806975650
C           -5.57774076627616        3.13679335360508        1.34508137262657
C           -4.51750122416160        2.12225703473255        1.78053165843852
C           -4.90815407211715       -0.31753914078926        0.01362340618715
O           -5.96070260809731        0.28531585379500        0.13132905597901
O           -6.35021926809196       -3.15397083662573       -1.45988463393040
H           -6.64726083476331       -2.45683830532192        1.58117636484604
H           -7.96255114270881       -2.95082122806261        0.47644188519783
H           -7.46363554399231       -1.24480687950801        0.60014246169724
H           -2.99862437651223       -3.94666853119796       -1.77991666366634
H           -4.49532105720805       -4.29553443431786       -0.92509278663587
H           -2.94860061562588       -4.35065877076189       -0.06241966084239
H           -0.96559326438709       -3.17806329630482       -0.70818678661871
H            0.63655387101917        1.62642810675808        0.45075577454966
H            4.80555902032718        2.28419498461302        0.57665541752609
H            4.58964843707799       -1.86443571712968       -0.55784652304659
H            2.13603965813297       -1.65846763937606       -0.43411194105570
H            7.36801538152626        1.65829438520079        0.96536621439308
H            6.62132169418220        2.11291443882095       -0.58351790698130
H            8.20969650871858        0.70995165036754       -1.81254445457611
H            9.05223847327537        1.93754344366110       -0.84601071581876
H            9.84741355600357       -0.45812267994966       -0.71001548804618
H            8.91243032206667       -1.87633414875131        0.75091581447896
H            8.22781980571749       -0.52953224649944        1.66622535663068
H            6.45192877210920       -1.85550479352739        0.58386171187162
H            7.16370240494652       -1.54975423451798       -1.01758547048974
H           -2.66964666682348        2.04457181289977        0.64446309059853
H           -5.09780251172128        2.08837254385265       -1.13724815182351
H           -3.56594292045602        2.95594540035448       -1.33852863090947
H           -4.18585994171113        4.52501506496766        0.44403057080337
H           -5.68873172571665        4.34623493570898       -0.47641821034302
H           -5.83000065278277        3.83719298647268        2.13982816792479
H           -6.47872717815370        2.60737330379357        1.03850056723670
H           -4.96946937988314        1.23458965179220        2.21786954366409
H           -3.84704762547762        2.55974245566581        2.52123734614688
