----- Optimization -----
      -----------------------------------------------------------      
     |                   =====================                   |     
     |                           x T B                           |     
     |                   =====================                   |     
     |                         S. Grimme                         |     
     |          Mulliken Center for Theoretical Chemistry        |     
     |                    University of Bonn                     |     
      -----------------------------------------------------------      

   * xtb version 6.7.1 (edcfbbe) compiled by 'conda@3ef47c1a292c' on 2024-11-25

   xtb is free software: you can redistribute it and/or modify it under
   the terms of the GNU Lesser General Public License as published by
   the Free Software Foundation, either version 3 of the License, or
   (at your option) any later version.
   
   xtb is distributed in the hope that it will be useful,
   but WITHOUT ANY WARRANTY; without even the implied warranty of
   MERCHANTABILITY or FITNESS FOR A PARTICULAR PURPOSE.  See the
   GNU Lesser General Public License for more details.
   
   Cite this work as:
   * C. Bannwarth, E. Caldeweyher, S. Ehlert, A. Hansen, P. Pracht,
     J. Seibert, S. Spicher, S. Grimme, WIREs Comput. Mol. Sci., 2020, 11,
     e01493. DOI: 10.1002/wcms.1493
   
   for GFN2-xTB:
   * C. Bannwarth, S. Ehlert and S. Grimme., J. Chem. Theory Comput., 2019,
     15, 1652-1671. DOI: 10.1021/acs.jctc.8b01176
   for GFN1-xTB:
   * S. Grimme, C. Bannwarth, P. Shushkov, J. Chem. Theory Comput., 2017,
     13, 1989-2009. DOI: 10.1021/acs.jctc.7b00118
   for GFN0-xTB:
   * P. Pracht, E. Caldeweyher, S. Ehlert, S. Grimme, ChemRxiv, 2019, preprint.
     DOI: 10.26434/chemrxiv.8326202.v1
   for GFN-FF:
   * S. Spicher and S. Grimme, Angew. Chem. Int. Ed., 2020, 59, 15665-15673.
     DOI: 10.1002/anie.202004239
   
   for ALPB and GBSA implicit solvation:
   * S. Ehlert, M. Stahn, S. Spicher, S. Grimme, J. Chem. Theory Comput.,
     2021, 17, 4250-4261. DOI: 10.1021/acs.jctc.1c00471
   
   for ddCOSMO and CPCM-X implicit solvation:
   * M. Stahn, S. Ehlert, S. Grimme, J. Phys. Chem. A,
     2023, XX, XXXX-XXXX. DOI: 10.1021/acs.jpca.3c04382
   
   for DFT-D4:
   * E. Caldeweyher, C. Bannwarth and S. Grimme, J. Chem. Phys., 2017,
     147, 034112. DOI: 10.1063/1.4993215
   * E. Caldeweyher, S. Ehlert, A. Hansen, H. Neugebauer, S. Spicher,
     C. Bannwarth and S. Grimme, J. Chem. Phys., 2019, 150, 154122.
     DOI: 10.1063/1.5090222
   * E. Caldeweyher, J.-M. Mewes, S. Ehlert and S. Grimme, Phys. Chem. Chem. Phys.
     2020, 22, 8499-8512. DOI: 10.1039/D0CP00502A
   
   for sTDA-xTB:
   * S. Grimme and C. Bannwarth, J. Chem. Phys., 2016, 145, 054103.
     DOI: 10.1063/1.4959605
   
   in the mass-spec context:
   * V. Asgeirsson, C. Bauer and S. Grimme, Chem. Sci., 2017, 8, 4879.
     DOI: 10.1039/c7sc00601b
   * J. Koopman and S. Grimme, ACS Omega 2019, 4, 12, 15120-15133.
     DOI: 10.1021/acsomega.9b02011
   
   for metadynamics refer to:
   * S. Grimme, J. Chem. Theory Comput., 2019, 155, 2847-2862
     DOI: 10.1021/acs.jctc.9b00143
   
   for SPH calculations refer to:
   * S. Spicher and S. Grimme, J. Chem. Theory Comput., 2021, 17, 1701-1714
     DOI: 10.1021/acs.jctc.0c01306
   
   for ONIOM refer to:
   * C. Plett, A. Katbashev, S. Ehlert, S. Grimme, M. Bursch,
     Phys. Chem. Chem. Phys., 2023, 25, 17860-17868. DOI: 10.1039/D3CP02178E
   
   for DIPRO refer to:
   * J. Kohn, N. Gildemeister, S. Grimme, D. Fazzi, A. Hansen,
     J. Chem. Phys., 2023, just accepted.
   
   for PTB refer to:
   * S. Grimme, M. Mueller, A. Hansen, J. Chem. Phys., 2023, 158, 124111.
     DOI: 10.1063/5.0137838
   
   with help from (in alphabetical order)
   P. Atkinson, C. Bannwarth, F. Bohle, G. Brandenburg, E. Caldeweyher
   M. Checinski, S. Dohm, S. Ehlert, S. Ehrlich, I. Gerasimov, C. Hölzer
   A. Katbashev, J. Kohn, J. Koopman, C. Lavigne, S. Lehtola, F. März, M. Müller,
   F. Musil, H. Neugebauer, J. Pisarek, C. Plett, P. Pracht, F. Pultar,
   J. Seibert, P. Shushkov, S. Spicher, M. Stahn, M. Steiner, T. Strunk,
   J. Stückrath, T. Rose, and J. Unsleber
   
 * started run on 2025/05/15 at 16:20:57.162     
   ID    Z sym.   atoms
    1    6 C      1-4, 6-8, 11-16, 20, 21, 23-26, 28, 30, 31, 33
    2    7 N      5, 9, 10, 19, 22, 32
    3   16 S      17
    4    8 O      18, 27, 29, 34
    5    1 H      35-66

           -------------------------------------------------
          |                Calculation Setup                |
           -------------------------------------------------

          program call               : xtb /rds/general/user/hgt20/home/callum/QDESCP/Vardenafil_rdkit_conf_15/Vardenafil_rdkit_conf_15.xyz --opt normal --acc 1 --gfn 2 --chrg 0 --uhf 0 -P 1
          hostname                   : login-c
          coordinate file            : /rds/general/user/hgt20/home/callum/QDESCP/Vardenafil_rdkit_conf_15/Vardenafil_rdkit_conf_15.xyz
          omp threads                :                     1


           -------------------------------------------------
          |                 G F N 2 - x T B                 |
           -------------------------------------------------

        Reference                      10.1021/acs.jctc.8b01176
      * Hamiltonian:
        H0-scaling (s, p, d)           1.850000    2.230000    2.230000
        zeta-weighting                 0.500000
      * Dispersion:
        s8                             2.700000
        a1                             0.520000
        a2                             5.000000
        s9                             5.000000
      * Repulsion:
        kExp                           1.500000    1.000000
        rExp                           1.000000
      * Coulomb:
        alpha                          2.000000
        third order                    shell-resolved
        anisotropic                    true
        a3                             3.000000
        a5                             4.000000
        cn-shift                       1.200000
        cn-exp                         4.000000
        max-rad                        5.000000


          ...................................................
          :                      SETUP                      :
          :.................................................:
          :  # basis functions                 174          :
          :  # atomic orbitals                 173          :
          :  # shells                          101          :
          :  # electrons                       184          :
          :  max. iterations                   250          :
          :  Hamiltonian                  GFN2-xTB          :
          :  restarted?                      false          :
          :  GBSA solvation                  false          :
          :  PC potential                    false          :
          :  electronic temp.          300.0000000     K    :
          :  accuracy                    1.0000000          :
          :  -> integral cutoff          0.2500000E+02      :
          :  -> integral neglect         0.1000000E-07      :
          :  -> SCF convergence          0.1000000E-05 Eh   :
          :  -> wf. convergence          0.1000000E-03 e    :
          :  Broyden damping             0.4000000          :
          :  net charge                          0          :
          :  unpaired electrons                  0          :
          ...................................................

 iter      E             dE          RMSdq      gap      omega  full diag
   1   -103.5990876 -0.103599E+03  0.410E+00    2.32       0.0  T
   2   -103.8279459 -0.228858E+00  0.263E+00    1.55       1.0  T
   3   -103.8518724 -0.239266E-01  0.137E+00    2.00       1.0  T
   4   -103.8646894 -0.128169E-01  0.490E-01    1.47       1.0  T
   5   -103.8745808 -0.989142E-02  0.182E-01    1.53       1.0  T
   6   -103.8749425 -0.361730E-03  0.947E-02    1.53       1.0  T
   7   -103.8750470 -0.104505E-03  0.572E-02    1.57       1.0  T
   8   -103.8751400 -0.930207E-04  0.277E-02    1.57       1.0  T
   9   -103.8751470 -0.696330E-05  0.101E-02    1.57       1.2  T
  10   -103.8751498 -0.281065E-05  0.479E-03    1.57       2.6  T
  11   -103.8751501 -0.278285E-06  0.205E-03    1.57       6.0  T
  12   -103.8751502 -0.773939E-07  0.580E-04    1.57      21.2  T
  13   -103.8751502 -0.766561E-08  0.305E-04    1.57      40.4  T

   *** convergence criteria satisfied after 13 iterations ***

         #    Occupation            Energy/Eh            Energy/eV
      -------------------------------------------------------------
         1        2.0000           -0.7730089             -21.0346
       ...           ...                  ...                  ...
        86        2.0000           -0.4097623             -11.1502
        87        2.0000           -0.4071884             -11.0802
        88        2.0000           -0.3923896             -10.6775
        89        2.0000           -0.3892610             -10.5923
        90        2.0000           -0.3781969             -10.2913
        91        2.0000           -0.3704931             -10.0816
        92        2.0000           -0.3613607              -9.8331 (HOMO)
        93                         -0.3035808              -8.2609 (LUMO)
        94                         -0.2725013              -7.4151
        95                         -0.2523438              -6.8666
        96                         -0.2296213              -6.2483
        97                         -0.1911411              -5.2012
       ...                                ...                  ...
       173                          1.1513132              31.3288
      -------------------------------------------------------------
                  HL-Gap            0.0577799 Eh            1.5723 eV
             Fermi-level           -0.3324708 Eh           -9.0470 eV

 SCC (total)                   0 d,  0 h,  0 min,  0.139 sec
 SCC setup                      ...        0 min,  0.001 sec (  0.550%)
 Dispersion                     ...        0 min,  0.001 sec (  0.779%)
 classical contributions        ...        0 min,  0.000 sec (  0.245%)
 integral evaluation            ...        0 min,  0.015 sec ( 10.982%)
 iterations                     ...        0 min,  0.066 sec ( 47.419%)
 molecular gradient             ...        0 min,  0.055 sec ( 39.721%)
 printout                       ...        0 min,  0.000 sec (  0.299%)

         :::::::::::::::::::::::::::::::::::::::::::::::::::::
         ::                     SUMMARY                     ::
         :::::::::::::::::::::::::::::::::::::::::::::::::::::
         :: total energy            -102.648718734203 Eh    ::
         :: gradient norm              0.106181358211 Eh/a0 ::
         :: HOMO-LUMO gap              1.572272040433 eV    ::
         ::.................................................::
         :: SCC energy              -103.874601138009 Eh    ::
         :: -> isotropic ES            0.146360759602 Eh    ::
         :: -> anisotropic ES          0.006851986305 Eh    ::
         :: -> anisotropic XC          0.051395061381 Eh    ::
         :: -> dispersion             -0.075125471593 Eh    ::
         :: repulsion energy           1.225882403807 Eh    ::
         :: add. restraining           0.000000000000 Eh    ::
         :: total charge              -0.000000000000 e     ::
         :::::::::::::::::::::::::::::::::::::::::::::::::::::

      ----------------------------------------------------------- 
     |                   =====================                   |
     |                        A N C O P T                        |
     |                   =====================                   |
     |               Approximate Normal Coordinate               |
     |                Rational Function Optimizer                |
      ----------------------------------------------------------- 
      ----------------------------------------------------------- 
     |                   =====================                   |
     |                        A N C O P T                        |
     |                   =====================                   |
     |               Approximate Normal Coordinate               |
     |                Rational Function Optimizer                |
      ----------------------------------------------------------- 

          ...................................................
          :                      SETUP                      :
          :.................................................:
          :   optimization level            normal          :
          :   max. optcycles                   200          :
          :   ANC micro-cycles                  20          :
          :   degrees of freedom               192          :
          :.................................................:
          :   RF solver                   davidson          :
          :   write xtbopt.log                true          :
          :   linear?                        false          :
          :   energy convergence         0.5000000E-05 Eh   :
          :   grad. convergence          0.1000000E-02 Eh/α :
          :   maxmium RF displ.          1.0000000          :
          :   Hlow (freq-cutoff)         0.1000000E-01      :
          :   Hmax (freq-cutoff)         5.0000000          :
          :   S6 in model hess.         20.0000000          :
          ...................................................

generating ANC from exact Hessian ...
Using Lindh-Hessian (1995)
 Shifting diagonal of input Hessian by    9.9239388247312123E-003
 Lowest  eigenvalues of input Hessian
    0.000000    0.000000    0.000000    0.000000    0.000000    0.000000
    0.010000    0.010074    0.010167    0.010582    0.010775    0.010905
    0.011083    0.011531    0.011674    0.011884    0.012370    0.012810
 Highest eigenvalues
    2.089098    2.102607    2.322185    2.433739    2.512650    3.432130


........................................................................
.............................. CYCLE    1 ..............................
........................................................................

 iter      E             dE          RMSdq      gap      omega  full diag
   1   -103.8751502 -0.103875E+03  0.124E-04    1.57       0.0  T
   2   -103.8751502 -0.157044E-09  0.837E-05    1.57     147.1  T
   3   -103.8751502 -0.109438E-09  0.544E-05    1.57     226.3  T
     SCC iter.                  ...        0 min,  0.016 sec
     gradient                   ...        0 min,  0.055 sec
 * total energy  :  -102.6487187 Eh     change       -0.1657583E-08 Eh
   gradient norm :     0.1061793 Eh/α   predicted     0.0000000E+00 (-100.00%)
   displ. norm   :     0.3340885 α      lambda       -0.1928221E-01
   maximum displ.:     0.1365009 α      in ANC's #64, #36, #75, ...

........................................................................
.............................. CYCLE    2 ..............................
........................................................................

 iter      E             dE          RMSdq      gap      omega  full diag
   1   -103.9255867 -0.103926E+03  0.181E-01    1.63       0.0  T
   2   -103.9258060 -0.219250E-03  0.112E-01    1.68       1.0  T
   3   -103.9257960  0.994564E-05  0.593E-02    1.68       1.0  T
   4   -103.9258802 -0.841795E-04  0.195E-02    1.68       1.0  T
   5   -103.9258961 -0.159031E-04  0.577E-03    1.68       2.1  T
   6   -103.9258962 -0.627173E-07  0.178E-03    1.68       6.9  T
   7   -103.9258963 -0.106387E-06  0.757E-04    1.68      16.3  T
   8   -103.9258963 -0.123520E-07  0.384E-04    1.68      32.0  T
     SCC iter.                  ...        0 min,  0.049 sec
     gradient                   ...        0 min,  0.055 sec
 * total energy  :  -102.6623646 Eh     change       -0.1364589E-01 Eh
   gradient norm :     0.0474165 Eh/α   predicted    -0.1072365E-01 ( -21.41%)
   displ. norm   :     0.3117879 α      lambda       -0.6967512E-02
   maximum displ.:     0.0824507 α      in ANC's #64, #25, #36, ...

........................................................................
.............................. CYCLE    3 ..............................
........................................................................

 iter      E             dE          RMSdq      gap      omega  full diag
   1   -103.9545211 -0.103955E+03  0.141E-01    1.67       0.0  T
   2   -103.9546537 -0.132620E-03  0.847E-02    1.71       1.0  T
   3   -103.9546517  0.203796E-05  0.438E-02    1.71       1.0  T
   4   -103.9547027 -0.509513E-04  0.165E-02    1.72       1.0  T
   5   -103.9547119 -0.924475E-05  0.543E-03    1.72       2.3  T
   6   -103.9547119 -0.465389E-07  0.166E-03    1.72       7.4  T
   7   -103.9547121 -0.109321E-06  0.619E-04    1.72      19.9  T
   8   -103.9547121 -0.437211E-08  0.290E-04    1.72      42.4  T
     SCC iter.                  ...        0 min,  0.048 sec
     gradient                   ...        0 min,  0.070 sec
 * total energy  :  -102.6664347 Eh     change       -0.4070048E-02 Eh
   gradient norm :     0.0152836 Eh/α   predicted    -0.3823988E-02 (  -6.05%)
   displ. norm   :     0.2051685 α      lambda       -0.1030622E-02
   maximum displ.:     0.0887925 α      in ANC's #9, #14, #25, ...

........................................................................
.............................. CYCLE    4 ..............................
........................................................................

 iter      E             dE          RMSdq      gap      omega  full diag
   1   -103.9568094 -0.103957E+03  0.583E-02    1.71       0.0  T
   2   -103.9568280 -0.185994E-04  0.313E-02    1.72       1.0  T
   3   -103.9568256  0.241588E-05  0.162E-02    1.72       1.0  T
   4   -103.9568348 -0.921758E-05  0.527E-03    1.72       2.3  T
   5   -103.9568356 -0.753735E-06  0.225E-03    1.72       5.5  T
   6   -103.9568357 -0.107857E-06  0.733E-04    1.72      16.8  T
   7   -103.9568357 -0.135499E-07  0.266E-04    1.72      46.3  T
     SCC iter.                  ...        0 min,  0.035 sec
     gradient                   ...        0 min,  0.088 sec
 * total energy  :  -102.6672248 Eh     change       -0.7901353E-03 Eh
   gradient norm :     0.0131838 Eh/α   predicted    -0.5370087E-03 ( -32.04%)
   displ. norm   :     0.3210345 α      lambda       -0.1060021E-02
   maximum displ.:     0.1603257 α      in ANC's #9, #14, #10, ...

........................................................................
.............................. CYCLE    5 ..............................
........................................................................

 iter      E             dE          RMSdq      gap      omega  full diag
   1   -103.9567667 -0.103957E+03  0.784E-02    1.72       0.0  T
   2   -103.9568151 -0.483808E-04  0.420E-02    1.73       1.0  T
   3   -103.9568173 -0.220853E-05  0.227E-02    1.73       1.0  T
   4   -103.9568303 -0.129784E-04  0.665E-03    1.73       1.9  T
   5   -103.9568318 -0.153135E-05  0.300E-03    1.73       4.1  T
   6   -103.9568321 -0.209056E-06  0.985E-04    1.73      12.5  T
   7   -103.9568321 -0.338661E-07  0.364E-04    1.73      33.8  T
     SCC iter.                  ...        0 min,  0.068 sec
     gradient                   ...        0 min,  0.088 sec
 * total energy  :  -102.6679552 Eh     change       -0.7303965E-03 Eh
   gradient norm :     0.0104467 Eh/α   predicted    -0.5846405E-03 ( -19.96%)
   displ. norm   :     0.2718674 α      lambda       -0.5220263E-03
   maximum displ.:     0.1446916 α      in ANC's #9, #14, #10, ...

........................................................................
.............................. CYCLE    6 ..............................
........................................................................

 iter      E             dE          RMSdq      gap      omega  full diag
   1   -103.9574150 -0.103957E+03  0.553E-02    1.73       0.0  T
   2   -103.9574430 -0.279868E-04  0.308E-02    1.73       1.0  T
   3   -103.9574458 -0.282618E-05  0.174E-02    1.73       1.0  T
   4   -103.9574520 -0.620633E-05  0.462E-03    1.73       2.7  T
   5   -103.9574530 -0.940207E-06  0.192E-03    1.73       6.4  T
   6   -103.9574530 -0.583530E-07  0.749E-04    1.73      16.4  T
   7   -103.9574530 -0.229317E-07  0.239E-04    1.73      51.5  T
     SCC iter.                  ...        0 min,  0.035 sec
     gradient                   ...        0 min,  0.084 sec
 * total energy  :  -102.6683436 Eh     change       -0.3883432E-03 Eh
   gradient norm :     0.0087083 Eh/α   predicted    -0.2803140E-03 ( -27.82%)
   displ. norm   :     0.3076239 α      lambda       -0.4490605E-03
   maximum displ.:     0.1597584 α      in ANC's #9, #10, #14, ...

........................................................................
.............................. CYCLE    7 ..............................
........................................................................

 iter      E             dE          RMSdq      gap      omega  full diag
   1   -103.9588693 -0.103959E+03  0.585E-02    1.74       0.0  T
   2   -103.9588902 -0.209300E-04  0.333E-02    1.74       1.0  T
   3   -103.9588884  0.185758E-05  0.185E-02    1.74       1.0  T
   4   -103.9588976 -0.922833E-05  0.422E-03    1.74       2.9  T
   5   -103.9588983 -0.767658E-06  0.180E-03    1.74       6.8  T
   6   -103.9588984 -0.422360E-07  0.721E-04    1.74      17.1  T
   7   -103.9588984 -0.223959E-07  0.217E-04    1.74      56.7  T
     SCC iter.                  ...        0 min,  0.062 sec
     gradient                   ...        0 min,  0.076 sec
 * total energy  :  -102.6686724 Eh     change       -0.3288010E-03 Eh
   gradient norm :     0.0071286 Eh/α   predicted    -0.2458708E-03 ( -25.22%)
   displ. norm   :     0.2980506 α      lambda       -0.3193395E-03
   maximum displ.:     0.1414784 α      in ANC's #9, #10, #12, ...

........................................................................
.............................. CYCLE    8 ..............................
........................................................................

 iter      E             dE          RMSdq      gap      omega  full diag
   1   -103.9602379 -0.103960E+03  0.565E-02    1.75       0.0  T
   2   -103.9602462 -0.835300E-05  0.320E-02    1.74       1.0  T
   3   -103.9602404  0.583951E-05  0.150E-02    1.75       1.0  T
   4   -103.9602495 -0.906979E-05  0.321E-03    1.75       3.8  T
   5   -103.9602498 -0.285100E-06  0.155E-03    1.75       7.9  T
   6   -103.9602498 -0.584855E-07  0.543E-04    1.75      22.7  T
   7   -103.9602498 -0.117320E-07  0.191E-04    1.75      64.6  T
     SCC iter.                  ...        0 min,  0.035 sec
     gradient                   ...        0 min,  0.078 sec
 * total energy  :  -102.6689036 Eh     change       -0.2312954E-03 Eh
   gradient norm :     0.0062217 Eh/α   predicted    -0.1738544E-03 ( -24.83%)
   displ. norm   :     0.2692751 α      lambda       -0.2116214E-03
   maximum displ.:     0.1110330 α      in ANC's #9, #4, #10, ...

........................................................................
.............................. CYCLE    9 ..............................
........................................................................

 iter      E             dE          RMSdq      gap      omega  full diag
   1   -103.9609882 -0.103961E+03  0.509E-02    1.75       0.0  T
   2   -103.9609911 -0.295945E-05  0.287E-02    1.75       1.0  T
   3   -103.9609883  0.279307E-05  0.921E-03    1.75       1.3  T
   4   -103.9609922 -0.381783E-05  0.251E-03    1.75       4.9  T
   5   -103.9609923 -0.125961E-06  0.108E-03    1.75      11.4  T
   6   -103.9609923 -0.374782E-07  0.392E-04    1.75      31.4  T
   7   -103.9609923 -0.599142E-08  0.154E-04    1.75      79.8  T
     SCC iter.                  ...        0 min,  0.063 sec
     gradient                   ...        0 min,  0.085 sec
 * total energy  :  -102.6690565 Eh     change       -0.1528663E-03 Eh
   gradient norm :     0.0055105 Eh/α   predicted    -0.1135300E-03 ( -25.73%)
   displ. norm   :     0.2344217 α      lambda       -0.1422462E-03
   maximum displ.:     0.1055559 α      in ANC's #4, #10, #9, ...

........................................................................
.............................. CYCLE   10 ..............................
........................................................................

 iter      E             dE          RMSdq      gap      omega  full diag
   1   -103.9612247 -0.103961E+03  0.438E-02    1.75       0.0  T
   2   -103.9612261 -0.142089E-05  0.248E-02    1.75       1.0  T
   3   -103.9612254  0.716727E-06  0.540E-03    1.75       2.3  T
   4   -103.9612264 -0.103132E-05  0.213E-03    1.75       5.8  T
   5   -103.9612266 -0.145027E-06  0.729E-04    1.75      16.9  T
   6   -103.9612266 -0.101304E-07  0.234E-04    1.75      52.7  T
     SCC iter.                  ...        0 min,  0.031 sec
     gradient                   ...        0 min,  0.077 sec
 * total energy  :  -102.6691603 Eh     change       -0.1037376E-03 Eh
   gradient norm :     0.0046351 Eh/α   predicted    -0.7503226E-04 ( -27.67%)
   displ. norm   :     0.1968998 α      lambda       -0.1014229E-03
   maximum displ.:     0.1050818 α      in ANC's #4, #10, #7, ...

........................................................................
.............................. CYCLE   11 ..............................
........................................................................

 iter      E             dE          RMSdq      gap      omega  full diag
   1   -103.9612893 -0.103961E+03  0.373E-02    1.75       0.0  T
   2   -103.9612903 -0.922527E-06  0.213E-02    1.75       1.0  T
   3   -103.9612900  0.271644E-06  0.400E-03    1.75       3.1  T
   4   -103.9612903 -0.332535E-06  0.200E-03    1.75       6.2  T
   5   -103.9612905 -0.184070E-06  0.644E-04    1.75      19.1  T
   6   -103.9612905 -0.483722E-08  0.203E-04    1.75      60.6  T
     SCC iter.                  ...        0 min,  0.058 sec
     gradient                   ...        0 min,  0.055 sec
 * total energy  :  -102.6692363 Eh     change       -0.7601674E-04 Eh
   gradient norm :     0.0036801 Eh/α   predicted    -0.5268090E-04 ( -30.70%)
   displ. norm   :     0.1801618 α      lambda       -0.8225510E-04
   maximum displ.:     0.1070287 α      in ANC's #4, #3, #7, ...

........................................................................
.............................. CYCLE   12 ..............................
........................................................................

 iter      E             dE          RMSdq      gap      omega  full diag
   1   -103.9612468 -0.103961E+03  0.354E-02    1.74       0.0  T
   2   -103.9612477 -0.924118E-06  0.203E-02    1.74       1.0  T
   3   -103.9612476  0.944063E-07  0.356E-03    1.74       3.5  T
   4   -103.9612478 -0.144413E-06  0.169E-03    1.74       7.3  T
   5   -103.9612479 -0.119497E-06  0.619E-04    1.74      19.9  T
   6   -103.9612479 -0.672671E-08  0.178E-04    1.74      69.0  T
     SCC iter.                  ...        0 min,  0.051 sec
     gradient                   ...        0 min,  0.055 sec
 * total energy  :  -102.6692992 Eh     change       -0.6295864E-04 Eh
   gradient norm :     0.0031932 Eh/α   predicted    -0.4246389E-04 ( -32.55%)
   displ. norm   :     0.1721098 α      lambda       -0.7045733E-04
   maximum displ.:     0.1078686 α      in ANC's #4, #3, #7, ...

........................................................................
.............................. CYCLE   13 ..............................
........................................................................

 iter      E             dE          RMSdq      gap      omega  full diag
   1   -103.9612779 -0.103961E+03  0.347E-02    1.74       0.0  T
   2   -103.9612789 -0.966256E-06  0.200E-02    1.74       1.0  T
   3   -103.9612789  0.540246E-07  0.323E-03    1.74       3.8  T
   4   -103.9612790 -0.160176E-06  0.119E-03    1.74      10.3  T
   5   -103.9612791 -0.393759E-07  0.537E-04    1.74      22.9  T
   6   -103.9612791 -0.771480E-08  0.174E-04    1.74      70.8  T
     SCC iter.                  ...        0 min,  0.030 sec
     gradient                   ...        0 min,  0.076 sec
 * total energy  :  -102.6693542 Eh     change       -0.5495464E-04 Eh
   gradient norm :     0.0035138 Eh/α   predicted    -0.3627579E-04 ( -33.99%)
   displ. norm   :     0.1730178 α      lambda       -0.6319813E-04
   maximum displ.:     0.1102676 α      in ANC's #4, #3, #7, ...

........................................................................
.............................. CYCLE   14 ..............................
........................................................................

 iter      E             dE          RMSdq      gap      omega  full diag
   1   -103.9613155 -0.103961E+03  0.347E-02    1.74       0.0  T
   2   -103.9613163 -0.801616E-06  0.202E-02    1.74       1.0  T
   3   -103.9613162  0.128341E-06  0.284E-03    1.74       4.3  T
   4   -103.9613164 -0.249569E-06  0.982E-04    1.74      12.5  T
   5   -103.9613165 -0.218233E-07  0.473E-04    1.74      26.0  T
     SCC iter.                  ...        0 min,  0.026 sec
     gradient                   ...        0 min,  0.088 sec
 * total energy  :  -102.6694044 Eh     change       -0.5024612E-04 Eh
   gradient norm :     0.0038010 Eh/α   predicted    -0.3254936E-04 ( -35.22%)
   displ. norm   :     0.1806182 α      lambda       -0.6037665E-04
   maximum displ.:     0.1162976 α      in ANC's #4, #3, #7, ...

........................................................................
.............................. CYCLE   15 ..............................
........................................................................

 iter      E             dE          RMSdq      gap      omega  full diag
   1   -103.9616023 -0.103962E+03  0.360E-02    1.74       0.0  T
   2   -103.9616029 -0.541034E-06  0.211E-02    1.74       1.0  T
   3   -103.9616027  0.130634E-06  0.250E-03    1.74       4.9  T
   4   -103.9616030 -0.253121E-06  0.964E-04    1.74      12.8  T
   5   -103.9616030 -0.113911E-07  0.465E-04    1.74      26.4  T
     SCC iter.                  ...        0 min,  0.025 sec
     gradient                   ...        0 min,  0.088 sec
 * total energy  :  -102.6694533 Eh     change       -0.4885269E-04 Eh
   gradient norm :     0.0037413 Eh/α   predicted    -0.3117353E-04 ( -36.19%)
   displ. norm   :     0.1986007 α      lambda       -0.6148730E-04
   maximum displ.:     0.1288996 α      in ANC's #4, #3, #7, ...

........................................................................
.............................. CYCLE   16 ..............................
........................................................................

 iter      E             dE          RMSdq      gap      omega  full diag
   1   -103.9616137 -0.103962E+03  0.380E-02    1.74       0.0  T
   2   -103.9616143 -0.538613E-06  0.223E-02    1.74       1.0  T
   3   -103.9616140  0.276007E-06  0.298E-03    1.74       4.1  T
   4   -103.9616144 -0.409510E-06  0.117E-03    1.74      10.5  T
   5   -103.9616144 -0.342018E-07  0.504E-04    1.74      24.4  T
   6   -103.9616144 -0.678045E-08  0.165E-04    1.74      74.5  T
     SCC iter.                  ...        0 min,  0.075 sec
     gradient                   ...        0 min,  0.055 sec
 * total energy  :  -102.6695035 Eh     change       -0.5022456E-04 Eh
   gradient norm :     0.0030563 Eh/α   predicted    -0.3195839E-04 ( -36.37%)
   displ. norm   :     0.2232790 α      lambda       -0.6578452E-04
   maximum displ.:     0.1458219 α      in ANC's #4, #3, #7, ...

........................................................................
.............................. CYCLE   17 ..............................
........................................................................

 iter      E             dE          RMSdq      gap      omega  full diag
   1   -103.9619609 -0.103962E+03  0.417E-02    1.74       0.0  T
   2   -103.9619615 -0.596864E-06  0.245E-02    1.74       1.0  T
   3   -103.9619614  0.162976E-06  0.277E-03    1.74       4.5  T
   4   -103.9619616 -0.271706E-06  0.137E-03    1.74       9.0  T
   5   -103.9619617 -0.740375E-07  0.527E-04    1.74      23.4  T
   6   -103.9619617 -0.468297E-08  0.161E-04    1.74      76.2  T
     SCC iter.                  ...        0 min,  0.031 sec
     gradient                   ...        0 min,  0.090 sec
 * total energy  :  -102.6695567 Eh     change       -0.5322991E-04 Eh
   gradient norm :     0.0030251 Eh/α   predicted    -0.3453400E-04 ( -35.12%)
   displ. norm   :     0.2483675 α      lambda       -0.6849895E-04
   maximum displ.:     0.1632316 α      in ANC's #4, #3, #7, ...

........................................................................
.............................. CYCLE   18 ..............................
........................................................................

 iter      E             dE          RMSdq      gap      omega  full diag
   1   -103.9615624 -0.103962E+03  0.430E-02    1.75       0.0  T
   2   -103.9615633 -0.821797E-06  0.250E-02    1.75       1.0  T
   3   -103.9615629  0.392141E-06  0.359E-03    1.75       3.4  T
   4   -103.9615634 -0.528730E-06  0.158E-03    1.75       7.8  T
   5   -103.9615635 -0.112523E-06  0.604E-04    1.75      20.4  T
   6   -103.9615635 -0.702828E-08  0.197E-04    1.75      62.4  T
     SCC iter.                  ...        0 min,  0.030 sec
     gradient                   ...        0 min,  0.078 sec
 * total energy  :  -102.6696118 Eh     change       -0.5510731E-04 Eh
   gradient norm :     0.0030102 Eh/α   predicted    -0.3637099E-04 ( -34.00%)
   displ. norm   :     0.2653891 α      lambda       -0.6779702E-04
   maximum displ.:     0.1744334 α      in ANC's #4, #3, #7, ...

........................................................................
.............................. CYCLE   19 ..............................
........................................................................

 iter      E             dE          RMSdq      gap      omega  full diag
   1   -103.9615079 -0.103962E+03  0.430E-02    1.75       0.0  T
   2   -103.9615086 -0.720121E-06  0.250E-02    1.75       1.0  T
   3   -103.9615085  0.109342E-06  0.286E-03    1.75       4.3  T
   4   -103.9615088 -0.253561E-06  0.145E-03    1.75       8.5  T
   5   -103.9615089 -0.783533E-07  0.541E-04    1.75      22.8  T
   6   -103.9615089 -0.102684E-07  0.163E-04    1.75      75.4  T
     SCC iter.                  ...        0 min,  0.030 sec
     gradient                   ...        0 min,  0.089 sec
 * total energy  :  -102.6696672 Eh     change       -0.5535407E-04 Eh
   gradient norm :     0.0034990 Eh/α   predicted    -0.3628995E-04 ( -34.44%)
   displ. norm   :     0.2816453 α      lambda       -0.6566541E-04
   maximum displ.:     0.1852868 α      in ANC's #4, #3, #7, ...

........................................................................
.............................. CYCLE   20 ..............................
........................................................................

 iter      E             dE          RMSdq      gap      omega  full diag
   1   -103.9611994 -0.103961E+03  0.418E-02    1.75       0.0  T
   2   -103.9612002 -0.731696E-06  0.240E-02    1.75       1.0  T
   3   -103.9612001  0.484221E-07  0.294E-03    1.75       4.2  T
   4   -103.9612003 -0.215881E-06  0.150E-03    1.75       8.2  T
   5   -103.9612004 -0.683005E-07  0.482E-04    1.75      25.5  T
   6   -103.9612004 -0.117299E-07  0.160E-04    1.75      76.7  T
     SCC iter.                  ...        0 min,  0.076 sec
     gradient                   ...        0 min,  0.089 sec
 * total energy  :  -102.6697209 Eh     change       -0.5371220E-04 Eh
   gradient norm :     0.0033887 Eh/α   predicted    -0.3543962E-04 ( -34.02%)
   displ. norm   :     0.3076854 α      lambda       -0.6430901E-04
   maximum displ.:     0.2017035 α      in ANC's #4, #3, #7, ...
 * RMSD in coord.:     0.4511172 α      energy gain  -0.2100217E-01 Eh

generating ANC from exact Hessian ...
Using Lindh-Hessian (1995)
 Shifting diagonal of input Hessian by    9.9250213791893232E-003
 Lowest  eigenvalues of input Hessian
    0.000000    0.000000    0.000000    0.000000    0.000000    0.000000
    0.010000    0.010085    0.010210    0.010668    0.010861    0.011096
    0.011209    0.011489    0.011829    0.011915    0.012546    0.013057
 Highest eigenvalues
    2.093680    2.203656    2.360402    2.437557    2.732044    3.533917


........................................................................
.............................. CYCLE   21 ..............................
........................................................................

 iter      E             dE          RMSdq      gap      omega  full diag
   1   -103.9609704 -0.103961E+03  0.427E-02    1.75       0.0  T
   2   -103.9609713 -0.929461E-06  0.245E-02    1.75       1.0  T
   3   -103.9609714 -0.104407E-06  0.295E-03    1.75       4.2  T
   4   -103.9609715 -0.116050E-06  0.149E-03    1.75       8.2  T
   5   -103.9609716 -0.454822E-07  0.525E-04    1.75      23.5  T
   6   -103.9609716 -0.135031E-07  0.160E-04    1.75      77.0  T
     SCC iter.                  ...        0 min,  0.046 sec
     gradient                   ...        0 min,  0.106 sec
 * total energy  :  -102.6697721 Eh     change       -0.5120317E-04 Eh
   gradient norm :     0.0028835 Eh/α   predicted     0.0000000E+00 (-100.00%)
   displ. norm   :     0.0243570 α      lambda       -0.1043607E-04
   maximum displ.:     0.0102789 α      in ANC's #10, #4, #28, ...

........................................................................
.............................. CYCLE   22 ..............................
........................................................................

 iter      E             dE          RMSdq      gap      omega  full diag
   1   -103.9618308 -0.103962E+03  0.614E-03    1.75       0.0  T
   2   -103.9618309 -0.116385E-06  0.359E-03    1.75       3.4  T
   3   -103.9618309  0.369824E-07  0.130E-03    1.75       9.5  T
   4   -103.9618309 -0.520201E-07  0.377E-04    1.75      32.7  T
   5   -103.9618309 -0.775907E-08  0.135E-04    1.75      91.2  T
     SCC iter.                  ...        0 min,  0.026 sec
     gradient                   ...        0 min,  0.082 sec
 * total energy  :  -102.6697871 Eh     change       -0.1500437E-04 Eh
   gradient norm :     0.0018693 Eh/α   predicted    -0.8831836E-05 ( -41.14%)
   displ. norm   :     0.1350760 α      lambda       -0.4211116E-04
   maximum displ.:     0.0605337 α      in ANC's #4, #10, #3, ...

........................................................................
.............................. CYCLE   23 ..............................
........................................................................

 iter      E             dE          RMSdq      gap      omega  full diag
   1   -103.9637485 -0.103964E+03  0.299E-02    1.75       0.0  T
   2   -103.9637504 -0.193649E-05  0.174E-02    1.75       1.0  T
   3   -103.9637497  0.765658E-06  0.541E-03    1.75       2.3  T
   4   -103.9637507 -0.980045E-06  0.173E-03    1.75       7.1  T
   5   -103.9637508 -0.165838E-06  0.640E-04    1.75      19.2  T
   6   -103.9637508 -0.775111E-08  0.235E-04    1.75      52.5  T
     SCC iter.                  ...        0 min,  0.063 sec
     gradient                   ...        0 min,  0.088 sec
 * total energy  :  -102.6698136 Eh     change       -0.2647494E-04 Eh
   gradient norm :     0.0027214 Eh/α   predicted    -0.2122663E-04 ( -19.82%)
   displ. norm   :     0.0188983 α      lambda       -0.8133033E-05
   maximum displ.:     0.0095629 α      in ANC's #4, #10, #3, ...

........................................................................
.............................. CYCLE   24 ..............................
........................................................................

 iter      E             dE          RMSdq      gap      omega  full diag
   1   -103.9631413 -0.103963E+03  0.352E-03    1.75       0.0  T
   2   -103.9631413 -0.469725E-07  0.203E-03    1.75       6.1  T
   3   -103.9631413  0.126611E-07  0.789E-04    1.75      15.6  T
   4   -103.9631414 -0.211790E-07  0.227E-04    1.75      54.2  T
     SCC iter.                  ...        0 min,  0.021 sec
     gradient                   ...        0 min,  0.088 sec
 * total energy  :  -102.6698220 Eh     change       -0.8417435E-05 Eh
   gradient norm :     0.0019396 Eh/α   predicted    -0.4769952E-05 ( -43.33%)
   displ. norm   :     0.1471911 α      lambda       -0.3048493E-04
   maximum displ.:     0.0728960 α      in ANC's #4, #10, #3, ...

........................................................................
.............................. CYCLE   25 ..............................
........................................................................

 iter      E             dE          RMSdq      gap      omega  full diag
   1   -103.9605453 -0.103961E+03  0.251E-02    1.75       0.0  T
   2   -103.9605466 -0.130185E-05  0.143E-02    1.75       1.0  T
   3   -103.9605461  0.457984E-06  0.421E-03    1.75       2.9  T
   4   -103.9605468 -0.684974E-06  0.144E-03    1.75       8.6  T
   5   -103.9605468 -0.559176E-07  0.638E-04    1.75      19.3  T
   6   -103.9605469 -0.134641E-07  0.172E-04    1.75      71.7  T
     SCC iter.                  ...        0 min,  0.030 sec
     gradient                   ...        0 min,  0.076 sec
 * total energy  :  -102.6698426 Eh     change       -0.2056594E-04 Eh
   gradient norm :     0.0023195 Eh/α   predicted    -0.1540503E-04 ( -25.09%)
   displ. norm   :     0.0365957 α      lambda       -0.8506872E-05
   maximum displ.:     0.0183561 α      in ANC's #4, #10, #3, ...

........................................................................
.............................. CYCLE   26 ..............................
........................................................................

 iter      E             dE          RMSdq      gap      omega  full diag
   1   -103.9610249 -0.103961E+03  0.590E-03    1.75       0.0  T
   2   -103.9610249 -0.418013E-07  0.330E-03    1.75       3.7  T
   3   -103.9610249  0.163638E-07  0.864E-04    1.75      14.2  T
   4   -103.9610249 -0.247540E-07  0.314E-04    1.75      39.2  T
     SCC iter.                  ...        0 min,  0.036 sec
     gradient                   ...        0 min,  0.100 sec
 * total energy  :  -102.6698502 Eh     change       -0.7599335E-05 Eh
   gradient norm :     0.0018291 Eh/α   predicted    -0.4259820E-05 ( -43.94%)
   displ. norm   :     0.2200573 α      lambda       -0.2917275E-04
   maximum displ.:     0.1097028 α      in ANC's #4, #10, #3, ...

........................................................................
.............................. CYCLE   27 ..............................
........................................................................

 iter      E             dE          RMSdq      gap      omega  full diag
   1   -103.9633855 -0.103963E+03  0.346E-02    1.75       0.0  T
   2   -103.9633870 -0.145793E-05  0.192E-02    1.75       1.0  T
   3   -103.9633865  0.500674E-06  0.501E-03    1.75       2.5  T
   4   -103.9633873 -0.795229E-06  0.192E-03    1.75       6.4  T
   5   -103.9633874 -0.995250E-07  0.741E-04    1.75      16.6  T
   6   -103.9633874 -0.177483E-07  0.204E-04    1.75      60.2  T
     SCC iter.                  ...        0 min,  0.035 sec
     gradient                   ...        0 min,  0.067 sec
 * total energy  :  -102.6698731 Eh     change       -0.2290452E-04 Eh
   gradient norm :     0.0016623 Eh/α   predicted    -0.1492923E-04 ( -34.82%)
   displ. norm   :     0.1215239 α      lambda       -0.9660241E-05
   maximum displ.:     0.0604553 α      in ANC's #4, #10, #3, ...

........................................................................
.............................. CYCLE   28 ..............................
........................................................................

 iter      E             dE          RMSdq      gap      omega  full diag
   1   -103.9628314 -0.103963E+03  0.181E-02    1.75       0.0  T
   2   -103.9628317 -0.270865E-06  0.982E-03    1.75       1.3  T
   3   -103.9628317 -0.368786E-07  0.180E-03    1.75       6.8  T
   4   -103.9628317 -0.160379E-07  0.802E-04    1.75      15.3  T
   5   -103.9628318 -0.138000E-07  0.278E-04    1.75      44.2  T
     SCC iter.                  ...        0 min,  0.029 sec
     gradient                   ...        0 min,  0.077 sec
 * total energy  :  -102.6698847 Eh     change       -0.1165107E-04 Eh
   gradient norm :     0.0012397 Eh/α   predicted    -0.4862339E-05 ( -58.27%)
   displ. norm   :     0.2176979 α      lambda       -0.1760579E-04
   maximum displ.:     0.1054429 α      in ANC's #4, #10, #3, ...

........................................................................
.............................. CYCLE   29 ..............................
........................................................................

 iter      E             dE          RMSdq      gap      omega  full diag
   1   -103.9617477 -0.103962E+03  0.319E-02    1.75       0.0  T
   2   -103.9617486 -0.900472E-06  0.173E-02    1.75       1.0  T
   3   -103.9617487 -0.141785E-06  0.320E-03    1.75       3.8  T
   4   -103.9617488 -0.467808E-07  0.138E-03    1.75       8.9  T
   5   -103.9617488 -0.301910E-07  0.443E-04    1.75      27.8  T
   6   -103.9617488 -0.657236E-08  0.131E-04    1.75      93.8  T
     SCC iter.                  ...        0 min,  0.061 sec
     gradient                   ...        0 min,  0.082 sec
 * total energy  :  -102.6699031 Eh     change       -0.1834304E-04 Eh
   gradient norm :     0.0009236 Eh/α   predicted    -0.8991125E-05 ( -50.98%)
   displ. norm   :     0.1622848 α      lambda       -0.1065115E-04
   maximum displ.:     0.0736779 α      in ANC's #4, #2, #3, ...

........................................................................
.............................. CYCLE   30 ..............................
........................................................................

 iter      E             dE          RMSdq      gap      omega  full diag
   1   -103.9615642 -0.103962E+03  0.231E-02    1.75       0.0  T
   2   -103.9615647 -0.426279E-06  0.127E-02    1.76       1.0  T
   3   -103.9615647 -0.748736E-07  0.219E-03    1.76       5.6  T
   4   -103.9615647 -0.171876E-07  0.937E-04    1.76      13.1  T
   5   -103.9615648 -0.137232E-07  0.339E-04    1.76      36.4  T
     SCC iter.                  ...        0 min,  0.029 sec
     gradient                   ...        0 min,  0.077 sec
 * total energy  :  -102.6699157 Eh     change       -0.1258061E-04 Eh
   gradient norm :     0.0013423 Eh/α   predicted    -0.5392391E-05 ( -57.14%)
   displ. norm   :     0.1636077 α      lambda       -0.1283360E-04
   maximum displ.:     0.0736140 α      in ANC's #5, #2, #4, ...

........................................................................
.............................. CYCLE   31 ..............................
........................................................................

 iter      E             dE          RMSdq      gap      omega  full diag
   1   -103.9618533 -0.103962E+03  0.231E-02    1.76       0.0  T
   2   -103.9618537 -0.352332E-06  0.130E-02    1.76       1.0  T
   3   -103.9618537 -0.630568E-07  0.181E-03    1.76       6.8  T
   4   -103.9618538 -0.214385E-07  0.784E-04    1.76      15.7  T
   5   -103.9618538 -0.757939E-08  0.286E-04    1.76      43.0  T
     SCC iter.                  ...        0 min,  0.028 sec
     gradient                   ...        0 min,  0.059 sec
 * total energy  :  -102.6699316 Eh     change       -0.1595348E-04 Eh
   gradient norm :     0.0014904 Eh/α   predicted    -0.6494477E-05 ( -59.29%)
   displ. norm   :     0.2343008 α      lambda       -0.1802093E-04
   maximum displ.:     0.1112708 α      in ANC's #5, #2, #3, ...

........................................................................
.............................. CYCLE   32 ..............................
........................................................................

 iter      E             dE          RMSdq      gap      omega  full diag
   1   -103.9620075 -0.103962E+03  0.316E-02    1.76       0.0  T
   2   -103.9620081 -0.588993E-06  0.180E-02    1.76       1.0  T
   3   -103.9620082 -0.994421E-07  0.208E-03    1.76       5.9  T
   4   -103.9620082 -0.501954E-07  0.978E-04    1.76      12.6  T
   5   -103.9620083 -0.135577E-07  0.406E-04    1.76      30.3  T
     SCC iter.                  ...        0 min,  0.029 sec
     gradient                   ...        0 min,  0.058 sec
 * total energy  :  -102.6699540 Eh     change       -0.2239368E-04 Eh
   gradient norm :     0.0016127 Eh/α   predicted    -0.9232594E-05 ( -58.77%)
   displ. norm   :     0.3119720 α      lambda       -0.2302240E-04
   maximum displ.:     0.1523985 α      in ANC's #5, #2, #3, ...

........................................................................
.............................. CYCLE   33 ..............................
........................................................................

 iter      E             dE          RMSdq      gap      omega  full diag
   1   -103.9619613 -0.103962E+03  0.401E-02    1.75       0.0  T
   2   -103.9619622 -0.897011E-06  0.230E-02    1.75       1.0  T
   3   -103.9619623 -0.145284E-06  0.246E-03    1.75       5.0  T
   4   -103.9619624 -0.954512E-07  0.121E-03    1.76      10.2  T
   5   -103.9619624 -0.202202E-07  0.509E-04    1.75      24.2  T
   6   -103.9619624 -0.114993E-07  0.157E-04    1.76      78.2  T
     SCC iter.                  ...        0 min,  0.036 sec
     gradient                   ...        0 min,  0.056 sec
 * total energy  :  -102.6699824 Eh     change       -0.2840292E-04 Eh
   gradient norm :     0.0016903 Eh/α   predicted    -0.1201037E-04 ( -57.71%)
   displ. norm   :     0.3835135 α      lambda       -0.2719844E-04
   maximum displ.:     0.1906665 α      in ANC's #5, #2, #3, ...

........................................................................
.............................. CYCLE   34 ..............................
........................................................................

 iter      E             dE          RMSdq      gap      omega  full diag
   1   -103.9616127 -0.103962E+03  0.474E-02    1.75       0.0  T
   2   -103.9616140 -0.127504E-05  0.272E-02    1.75       1.0  T
   3   -103.9616142 -0.181234E-06  0.300E-03    1.75       4.1  T
   4   -103.9616143 -0.150341E-06  0.154E-03    1.75       8.0  T
   5   -103.9616144 -0.399377E-07  0.643E-04    1.75      19.1  T
   6   -103.9616144 -0.186942E-07  0.182E-04    1.75      67.5  T
     SCC iter.                  ...        0 min,  0.039 sec
     gradient                   ...        0 min,  0.056 sec
 * total energy  :  -102.6700143 Eh     change       -0.3194329E-04 Eh
   gradient norm :     0.0018033 Eh/α   predicted    -0.1448882E-04 ( -54.64%)
   displ. norm   :     0.4038346 α      lambda       -0.3065793E-04
   maximum displ.:     0.2089891 α      in ANC's #5, #2, #3, ...

........................................................................
.............................. CYCLE   35 ..............................
........................................................................

 iter      E             dE          RMSdq      gap      omega  full diag
   1   -103.9619937 -0.103962E+03  0.476E-02    1.75       0.0  T
   2   -103.9619949 -0.126137E-05  0.274E-02    1.75       1.0  T
   3   -103.9619951 -0.134688E-06  0.319E-03    1.75       3.9  T
   4   -103.9619952 -0.192527E-06  0.166E-03    1.75       7.4  T
   5   -103.9619953 -0.548461E-07  0.638E-04    1.75      19.3  T
   6   -103.9619953 -0.166315E-07  0.187E-04    1.75      65.9  T
     SCC iter.                  ...        0 min,  0.040 sec
     gradient                   ...        0 min,  0.076 sec
 * total energy  :  -102.6700476 Eh     change       -0.3329309E-04 Eh
   gradient norm :     0.0016919 Eh/α   predicted    -0.1644258E-04 ( -50.61%)
   displ. norm   :     0.4106135 α      lambda       -0.2582878E-04
   maximum displ.:     0.2048764 α      in ANC's #5, #2, #3, ...

........................................................................
.............................. CYCLE   36 ..............................
........................................................................

 iter      E             dE          RMSdq      gap      omega  full diag
   1   -103.9607213 -0.103961E+03  0.490E-02    1.75       0.0  T
   2   -103.9607229 -0.160362E-05  0.277E-02    1.75       1.0  T
   3   -103.9607231 -0.156885E-06  0.385E-03    1.75       3.2  T
   4   -103.9607233 -0.191642E-06  0.199E-03    1.75       6.2  T
   5   -103.9607234 -0.105201E-06  0.710E-04    1.75      17.3  T
   6   -103.9607234 -0.182027E-07  0.206E-04    1.75      59.8  T
     SCC iter.                  ...        0 min,  0.030 sec
     gradient                   ...        0 min,  0.062 sec
 * total energy  :  -102.6700738 Eh     change       -0.2612434E-04 Eh
   gradient norm :     0.0029000 Eh/α   predicted    -0.1388277E-04 ( -46.86%)
   displ. norm   :     0.2961487 α      lambda       -0.5720055E-04
   maximum displ.:     0.1542502 α      in ANC's #5, #2, #3, ...

........................................................................
.............................. CYCLE   37 ..............................
........................................................................

 iter      E             dE          RMSdq      gap      omega  full diag
   1   -103.9632704 -0.103963E+03  0.363E-02    1.75       0.0  T
   2   -103.9632713 -0.882027E-06  0.206E-02    1.75       1.0  T
   3   -103.9632713 -0.886330E-08  0.321E-03    1.75       3.8  T
   4   -103.9632715 -0.157552E-06  0.166E-03    1.75       7.4  T
   5   -103.9632716 -0.785031E-07  0.505E-04    1.75      24.4  T
   6   -103.9632716 -0.700965E-08  0.178E-04    1.75      69.2  T
     SCC iter.                  ...        0 min,  0.031 sec
     gradient                   ...        0 min,  0.063 sec
 * total energy  :  -102.6701057 Eh     change       -0.3198430E-04 Eh
   gradient norm :     0.0027096 Eh/α   predicted    -0.3111076E-04 (  -2.73%)
   displ. norm   :     0.3433825 α      lambda       -0.3347051E-04
   maximum displ.:     0.1765892 α      in ANC's #2, #5, #3, ...

........................................................................
.............................. CYCLE   38 ..............................
........................................................................

 iter      E             dE          RMSdq      gap      omega  full diag
   1   -103.9614930 -0.103961E+03  0.406E-02    1.75       0.0  T
   2   -103.9614943 -0.123504E-05  0.225E-02    1.75       1.0  T
   3   -103.9614944 -0.125467E-06  0.374E-03    1.75       3.3  T
   4   -103.9614945 -0.962249E-07  0.186E-03    1.75       6.6  T
   5   -103.9614946 -0.113343E-06  0.638E-04    1.75      19.3  T
   6   -103.9614946 -0.132838E-07  0.190E-04    1.75      64.8  T
     SCC iter.                  ...        0 min,  0.034 sec
     gradient                   ...        0 min,  0.063 sec
 * total energy  :  -102.6701289 Eh     change       -0.2313218E-04 Eh
   gradient norm :     0.0031456 Eh/α   predicted    -0.1871196E-04 ( -19.11%)
   displ. norm   :     0.2218316 α      lambda       -0.3406089E-04
   maximum displ.:     0.1196294 α      in ANC's #2, #5, #3, ...

........................................................................
.............................. CYCLE   39 ..............................
........................................................................

 iter      E             dE          RMSdq      gap      omega  full diag
   1   -103.9610997 -0.103961E+03  0.304E-02    1.75       0.0  T
   2   -103.9611005 -0.850261E-06  0.163E-02    1.75       1.0  T
   3   -103.9611005 -0.242712E-07  0.356E-03    1.75       3.5  T
   4   -103.9611006 -0.602070E-07  0.177E-03    1.75       7.0  T
   5   -103.9611007 -0.131017E-06  0.617E-04    1.75      20.0  T
   6   -103.9611007 -0.104852E-07  0.159E-04    1.75      77.6  T
     SCC iter.                  ...        0 min,  0.047 sec
     gradient                   ...        0 min,  0.056 sec
 * total energy  :  -102.6701549 Eh     change       -0.2601452E-04 Eh
   gradient norm :     0.0028140 Eh/α   predicted    -0.1786931E-04 ( -31.31%)
   displ. norm   :     0.1600730 α      lambda       -0.4748657E-04
   maximum displ.:     0.0888316 α      in ANC's #2, #5, #3, ...

........................................................................
.............................. CYCLE   40 ..............................
........................................................................

 iter      E             dE          RMSdq      gap      omega  full diag
   1   -103.9627263 -0.103963E+03  0.304E-02    1.75       0.0  T
   2   -103.9627276 -0.133787E-05  0.158E-02    1.75       1.0  T
   3   -103.9627276 -0.223120E-07  0.428E-03    1.75       2.9  T
   4   -103.9627277 -0.560292E-07  0.204E-03    1.75       6.0  T
   5   -103.9627278 -0.159696E-06  0.808E-04    1.75      15.2  T
   6   -103.9627279 -0.183064E-07  0.171E-04    1.75      72.1  T
     SCC iter.                  ...        0 min,  0.052 sec
     gradient                   ...        0 min,  0.082 sec
 * total energy  :  -102.6701826 Eh     change       -0.2771900E-04 Eh
   gradient norm :     0.0019156 Eh/α   predicted    -0.2435207E-04 ( -12.15%)
   displ. norm   :     0.3917148 α      lambda       -0.2247731E-04
   maximum displ.:     0.2204595 α      in ANC's #2, #5, #3, ...

........................................................................
.............................. CYCLE   41 ..............................
........................................................................

 iter      E             dE          RMSdq      gap      omega  full diag
   1   -103.9607337 -0.103961E+03  0.480E-02    1.75       0.0  T
   2   -103.9607359 -0.221562E-05  0.258E-02    1.75       1.0  T
   3   -103.9607361 -0.202974E-06  0.542E-03    1.75       2.3  T
   4   -103.9607362 -0.217043E-07  0.258E-03    1.75       4.8  T
   5   -103.9607364 -0.269744E-06  0.958E-04    1.75      12.8  T
   6   -103.9607365 -0.330658E-07  0.225E-04    1.75      54.7  T
     SCC iter.                  ...        0 min,  0.031 sec
     gradient                   ...        0 min,  0.070 sec
 * total energy  :  -102.6701960 Eh     change       -0.1336232E-04 Eh
   gradient norm :     0.0035176 Eh/α   predicted    -0.1200712E-04 ( -10.14%)
   displ. norm   :     0.0441165 α      lambda       -0.2664880E-04
   maximum displ.:     0.0219952 α      in ANC's #4, #2, #1, ...

........................................................................
.............................. CYCLE   42 ..............................
........................................................................

 iter      E             dE          RMSdq      gap      omega  full diag
   1   -103.9620302 -0.103962E+03  0.856E-03    1.75       0.0  T
   2   -103.9620304 -0.214280E-06  0.479E-03    1.75       2.6  T
   3   -103.9620304  0.105413E-07  0.142E-03    1.75       8.7  T
   4   -103.9620304 -0.144983E-07  0.548E-04    1.75      22.5  T
   5   -103.9620304 -0.183774E-07  0.217E-04    1.75      56.6  T
     SCC iter.                  ...        0 min,  0.026 sec
     gradient                   ...        0 min,  0.070 sec
 * total energy  :  -102.6702150 Eh     change       -0.1899818E-04 Eh
   gradient norm :     0.0025430 Eh/α   predicted    -0.1335256E-04 ( -29.72%)
   displ. norm   :     0.1787291 α      lambda       -0.4263240E-04
   maximum displ.:     0.1090831 α      in ANC's #2, #1, #5, ...
 * RMSD in coord.:     0.5120169 α      energy gain  -0.4940657E-03 Eh

generating ANC from exact Hessian ...
Using Lindh-Hessian (1995)
 Shifting diagonal of input Hessian by    9.9244386364944620E-003
 Lowest  eigenvalues of input Hessian
    0.000000    0.000000    0.000000    0.000000    0.000000    0.000000
    0.010000    0.010080    0.010220    0.010698    0.010899    0.011096
    0.011357    0.011426    0.011822    0.011950    0.012514    0.012996
 Highest eigenvalues
    2.093614    2.206044    2.366016    2.438343    2.741497    3.550511


........................................................................
.............................. CYCLE   43 ..............................
........................................................................

 iter      E             dE          RMSdq      gap      omega  full diag
   1   -103.9635211 -0.103964E+03  0.218E-02    1.74       0.0  T
   2   -103.9635215 -0.401885E-06  0.124E-02    1.74       1.0  T
   3   -103.9635213  0.171967E-06  0.268E-03    1.74       4.6  T
   4   -103.9635215 -0.211076E-06  0.121E-03    1.74      10.2  T
   5   -103.9635216 -0.721905E-07  0.423E-04    1.74      29.1  T
   6   -103.9635216 -0.218968E-08  0.160E-04    1.74      76.8  T
     SCC iter.                  ...        0 min,  0.031 sec
     gradient                   ...        0 min,  0.082 sec
 * total energy  :  -102.6702462 Eh     change       -0.3123295E-04 Eh
   gradient norm :     0.0024914 Eh/α   predicted     0.0000000E+00 (-100.00%)
   displ. norm   :     0.0203473 α      lambda       -0.1437242E-05
   maximum displ.:     0.0103243 α      in ANC's #18, #10, #4, ...

........................................................................
.............................. CYCLE   44 ..............................
........................................................................

 iter      E             dE          RMSdq      gap      omega  full diag
   1   -103.9633243 -0.103963E+03  0.450E-03    1.74       0.0  T
   2   -103.9633244 -0.604311E-07  0.262E-03    1.74       4.7  T
   3   -103.9633244  0.537635E-08  0.805E-04    1.74      15.3  T
   4   -103.9633244 -0.108576E-07  0.303E-04    1.74      40.6  T
     SCC iter.                  ...        0 min,  0.021 sec
     gradient                   ...        0 min,  0.065 sec
 * total energy  :  -102.6702565 Eh     change       -0.1029521E-04 Eh
   gradient norm :     0.0016019 Eh/α   predicted    -0.6003042E-05 ( -41.69%)
   displ. norm   :     0.1377900 α      lambda       -0.3728027E-04
   maximum displ.:     0.0704363 α      in ANC's #18, #4, #10, ...

........................................................................
.............................. CYCLE   45 ..............................
........................................................................

 iter      E             dE          RMSdq      gap      omega  full diag
   1   -103.9624861 -0.103962E+03  0.265E-02    1.75       0.0  T
   2   -103.9624876 -0.147042E-05  0.155E-02    1.75       1.0  T
   3   -103.9624875  0.913250E-07  0.406E-03    1.74       3.0  T
   4   -103.9624877 -0.222546E-06  0.144E-03    1.74       8.5  T
   5   -103.9624878 -0.584605E-07  0.656E-04    1.74      18.8  T
   6   -103.9624878 -0.833400E-08  0.203E-04    1.74      60.7  T
     SCC iter.                  ...        0 min,  0.031 sec
     gradient                   ...        0 min,  0.062 sec
 * total energy  :  -102.6702827 Eh     change       -0.2617474E-04 Eh
   gradient norm :     0.0033311 Eh/α   predicted    -0.1879917E-04 ( -28.18%)
   displ. norm   :     0.0353012 α      lambda       -0.1279318E-04
   maximum displ.:     0.0166292 α      in ANC's #18, #4, #19, ...

........................................................................
.............................. CYCLE   46 ..............................
........................................................................

 iter      E             dE          RMSdq      gap      omega  full diag
   1   -103.9627292 -0.103963E+03  0.542E-03    1.74       0.0  T
   2   -103.9627292 -0.360341E-07  0.316E-03    1.74       3.9  T
   3   -103.9627292  0.150438E-07  0.758E-04    1.74      16.2  T
   4   -103.9627292 -0.231917E-07  0.227E-04    1.74      54.2  T
     SCC iter.                  ...        0 min,  0.021 sec
     gradient                   ...        0 min,  0.074 sec
 * total energy  :  -102.6702941 Eh     change       -0.1141682E-04 Eh
   gradient norm :     0.0027722 Eh/α   predicted    -0.6405563E-05 ( -43.89%)
   displ. norm   :     0.1995294 α      lambda       -0.5877717E-04
   maximum displ.:     0.0919588 α      in ANC's #18, #4, #19, ...

........................................................................
.............................. CYCLE   47 ..............................
........................................................................

 iter      E             dE          RMSdq      gap      omega  full diag
   1   -103.9631659 -0.103963E+03  0.279E-02    1.74       0.0  T
   2   -103.9631667 -0.747601E-06  0.164E-02    1.74       1.0  T
   3   -103.9631663  0.357908E-06  0.354E-03    1.74       3.5  T
   4   -103.9631668 -0.527657E-06  0.103E-03    1.74      12.0  T
   5   -103.9631668 -0.206214E-07  0.464E-04    1.74      26.6  T
   6   -103.9631668 -0.283609E-08  0.140E-04    1.74      88.0  T
     SCC iter.                  ...        0 min,  0.046 sec
     gradient                   ...        0 min,  0.055 sec
 * total energy  :  -102.6703294 Eh     change       -0.3535092E-04 Eh
   gradient norm :     0.0028084 Eh/α   predicted    -0.3056000E-04 ( -13.55%)
   displ. norm   :     0.0899495 α      lambda       -0.1752717E-04
   maximum displ.:     0.0378166 α      in ANC's #18, #4, #19, ...

........................................................................
.............................. CYCLE   48 ..............................
........................................................................

 iter      E             dE          RMSdq      gap      omega  full diag
   1   -103.9632170 -0.103963E+03  0.112E-02    1.74       0.0  T
   2   -103.9632170 -0.758189E-07  0.660E-03    1.74       1.9  T
   3   -103.9632170  0.333231E-07  0.107E-03    1.74      11.5  T
   4   -103.9632170 -0.425743E-07  0.449E-04    1.74      27.4  T
   5   -103.9632171 -0.975773E-08  0.180E-04    1.74      68.6  T
     SCC iter.                  ...        0 min,  0.025 sec
     gradient                   ...        0 min,  0.076 sec
 * total energy  :  -102.6703448 Eh     change       -0.1533591E-04 Eh
   gradient norm :     0.0029934 Eh/α   predicted    -0.8842402E-05 ( -42.34%)
   displ. norm   :     0.2625641 α      lambda       -0.6512671E-04
   maximum displ.:     0.1085100 α      in ANC's #4, #19, #18, ...

........................................................................
.............................. CYCLE   49 ..............................
........................................................................

 iter      E             dE          RMSdq      gap      omega  full diag
   1   -103.9628721 -0.103963E+03  0.329E-02    1.74       0.0  T
   2   -103.9628728 -0.652306E-06  0.191E-02    1.74       1.0  T
   3   -103.9628723  0.423641E-06  0.371E-03    1.74       3.3  T
   4   -103.9628727 -0.394054E-06  0.172E-03    1.74       7.1  T
   5   -103.9628729 -0.197316E-06  0.539E-04    1.74      22.8  T
   6   -103.9628729 -0.249786E-08  0.152E-04    1.74      81.2  T
     SCC iter.                  ...        0 min,  0.031 sec
     gradient                   ...        0 min,  0.068 sec
 * total energy  :  -102.6703920 Eh     change       -0.4720399E-04 Eh
   gradient norm :     0.0035409 Eh/α   predicted    -0.3480938E-04 ( -26.26%)
   displ. norm   :     0.2020000 α      lambda       -0.5047984E-04
   maximum displ.:     0.0850142 α      in ANC's #4, #19, #2, ...

........................................................................
.............................. CYCLE   50 ..............................
........................................................................

 iter      E             dE          RMSdq      gap      omega  full diag
   1   -103.9627483 -0.103963E+03  0.272E-02    1.74       0.0  T
   2   -103.9627488 -0.522329E-06  0.155E-02    1.74       1.0  T
   3   -103.9627484  0.353313E-06  0.361E-03    1.74       3.4  T
   4   -103.9627488 -0.322227E-06  0.167E-03    1.74       7.4  T
   5   -103.9627489 -0.164619E-06  0.503E-04    1.74      24.5  T
   6   -103.9627489 -0.389247E-08  0.148E-04    1.74      83.0  T
     SCC iter.                  ...        0 min,  0.031 sec
     gradient                   ...        0 min,  0.071 sec
 * total energy  :  -102.6704288 Eh     change       -0.3683374E-04 Eh
   gradient norm :     0.0036823 Eh/α   predicted    -0.2629849E-04 ( -28.60%)
   displ. norm   :     0.2319128 α      lambda       -0.4513909E-04
   maximum displ.:     0.0989992 α      in ANC's #19, #2, #4, ...

........................................................................
.............................. CYCLE   51 ..............................
........................................................................

 iter      E             dE          RMSdq      gap      omega  full diag
   1   -103.9619718 -0.103962E+03  0.308E-02    1.74       0.0  T
   2   -103.9619723 -0.472216E-06  0.177E-02    1.74       1.0  T
   3   -103.9619719  0.361066E-06  0.358E-03    1.74       3.4  T
   4   -103.9619723 -0.425729E-06  0.156E-03    1.74       7.9  T
   5   -103.9619724 -0.731122E-07  0.501E-04    1.74      24.6  T
   6   -103.9619724 -0.118613E-07  0.133E-04    1.74      92.4  T
     SCC iter.                  ...        0 min,  0.046 sec
     gradient                   ...        0 min,  0.056 sec
 * total energy  :  -102.6704604 Eh     change       -0.3161532E-04 Eh
   gradient norm :     0.0041653 Eh/α   predicted    -0.2378510E-04 ( -24.77%)
   displ. norm   :     0.2986206 α      lambda       -0.1236595E-03
   maximum displ.:     0.1381178 α      in ANC's #2, #19, #4, ...

........................................................................
.............................. CYCLE   52 ..............................
........................................................................

 iter      E             dE          RMSdq      gap      omega  full diag
   1   -103.9642948 -0.103964E+03  0.515E-02    1.74       0.0  T
   2   -103.9642987 -0.391762E-05  0.288E-02    1.74       1.0  T
   3   -103.9642981  0.610351E-06  0.708E-03    1.74       1.7  T
   4   -103.9642991 -0.991746E-06  0.309E-03    1.74       4.0  T
   5   -103.9642992 -0.141099E-06  0.134E-03    1.74       9.2  T
   6   -103.9642993 -0.886465E-07  0.300E-04    1.74      41.1  T
   7   -103.9642993 -0.230258E-08  0.164E-04    1.74      75.2  T
     SCC iter.                  ...        0 min,  0.037 sec
     gradient                   ...        0 min,  0.056 sec
 * total energy  :  -102.6704602 Eh     change        0.2066867E-06 Eh
   gradient norm :     0.0069193 Eh/α   predicted    -0.6741082E-04 (*******%)
   displ. norm   :     0.2971889 α      lambda       -0.1371559E-03
   maximum displ.:     0.1309242 α      in ANC's #19, #2, #4, ...

........................................................................
.............................. CYCLE   53 ..............................
........................................................................

 iter      E             dE          RMSdq      gap      omega  full diag
   1   -103.9607338 -0.103961E+03  0.428E-02    1.74       0.0  T
   2   -103.9607369 -0.308569E-05  0.247E-02    1.74       1.0  T
   3   -103.9607369  0.158663E-07  0.470E-03    1.74       2.6  T
   4   -103.9607372 -0.282645E-06  0.179E-03    1.74       6.9  T
   5   -103.9607372 -0.673448E-07  0.911E-04    1.74      13.5  T
   6   -103.9607373 -0.267411E-07  0.228E-04    1.74      54.1  T
     SCC iter.                  ...        0 min,  0.041 sec
     gradient                   ...        0 min,  0.055 sec
 * total energy  :  -102.6704876 Eh     change       -0.2735960E-04 Eh
   gradient norm :     0.0073953 Eh/α   predicted    -0.7465299E-04 ( 172.86%)
   displ. norm   :     0.2992135 α      lambda       -0.1380258E-03
   maximum displ.:     0.1279161 α      in ANC's #19, #2, #4, ...

........................................................................
.............................. CYCLE   54 ..............................
........................................................................

 iter      E             dE          RMSdq      gap      omega  full diag
   1   -103.9631445 -0.103963E+03  0.479E-02    1.74       0.0  T
   2   -103.9631468 -0.222927E-05  0.270E-02    1.74       1.0  T
   3   -103.9631457  0.108500E-05  0.675E-03    1.74       1.8  T
   4   -103.9631470 -0.132995E-05  0.294E-03    1.74       4.2  T
   5   -103.9631472 -0.234303E-06  0.109E-03    1.74      11.3  T
   6   -103.9631473 -0.510349E-07  0.276E-04    1.74      44.6  T
   7   -103.9631473 -0.198725E-08  0.145E-04    1.74      85.0  T
     SCC iter.                  ...        0 min,  0.035 sec
     gradient                   ...        0 min,  0.083 sec
 * total energy  :  -102.6705331 Eh     change       -0.4555091E-04 Eh
   gradient norm :     0.0015487 Eh/α   predicted    -0.7520213E-04 (  65.09%)
   displ. norm   :     0.1677170 α      lambda       -0.2194775E-04
   maximum displ.:     0.0818439 α      in ANC's #2, #19, #4, ...

........................................................................
.............................. CYCLE   55 ..............................
........................................................................

 iter      E             dE          RMSdq      gap      omega  full diag
   1   -103.9633826 -0.103963E+03  0.233E-02    1.73       0.0  T
   2   -103.9633829 -0.321551E-06  0.133E-02    1.73       1.0  T
   3   -103.9633828  0.129976E-06  0.263E-03    1.73       4.7  T
   4   -103.9633829 -0.164895E-06  0.119E-03    1.73      10.4  T
   5   -103.9633830 -0.349935E-07  0.405E-04    1.73      30.4  T
   6   -103.9633830 -0.844838E-08  0.101E-04    1.73     121.6  T
     SCC iter.                  ...        0 min,  0.070 sec
     gradient                   ...        0 min,  0.055 sec
 * total energy  :  -102.6705578 Eh     change       -0.2465572E-04 Eh
   gradient norm :     0.0019972 Eh/α   predicted    -0.1111195E-04 ( -54.93%)
   displ. norm   :     0.4146701 α      lambda       -0.4779415E-04
   maximum displ.:     0.2071541 α      in ANC's #2, #19, #4, ...

........................................................................
.............................. CYCLE   56 ..............................
........................................................................

 iter      E             dE          RMSdq      gap      omega  full diag
   1   -103.9614051 -0.103961E+03  0.527E-02    1.73       0.0  T
   2   -103.9614065 -0.138866E-05  0.307E-02    1.73       1.0  T
   3   -103.9614061  0.363065E-06  0.481E-03    1.73       2.6  T
   4   -103.9614067 -0.593105E-06  0.212E-03    1.73       5.8  T
   5   -103.9614068 -0.114817E-06  0.716E-04    1.73      17.2  T
   6   -103.9614068 -0.189218E-07  0.221E-04    1.73      55.6  T
     SCC iter.                  ...        0 min,  0.030 sec
     gradient                   ...        0 min,  0.094 sec
 * total energy  :  -102.6705838 Eh     change       -0.2601707E-04 Eh
   gradient norm :     0.0054416 Eh/α   predicted    -0.2572810E-04 (  -1.11%)
   displ. norm   :     0.0567079 α      lambda       -0.5163983E-04
   maximum displ.:     0.0256695 α      in ANC's #4, #10, #19, ...

........................................................................
.............................. CYCLE   57 ..............................
........................................................................

 iter      E             dE          RMSdq      gap      omega  full diag
   1   -103.9627128 -0.103963E+03  0.127E-02    1.73       0.0  T
   2   -103.9627132 -0.430129E-06  0.709E-03    1.73       1.7  T
   3   -103.9627132  0.822000E-08  0.187E-03    1.73       6.6  T
   4   -103.9627132 -0.383517E-07  0.767E-04    1.73      16.0  T
   5   -103.9627132 -0.118251E-07  0.373E-04    1.73      33.0  T
     SCC iter.                  ...        0 min,  0.025 sec
     gradient                   ...        0 min,  0.061 sec
 * total energy  :  -102.6706181 Eh     change       -0.3427795E-04 Eh
   gradient norm :     0.0023369 Eh/α   predicted    -0.2590521E-04 ( -24.43%)
   displ. norm   :     0.1336909 α      lambda       -0.3264675E-04
   maximum displ.:     0.0755246 α      in ANC's #2, #1, #19, ...

........................................................................
.............................. CYCLE   58 ..............................
........................................................................

 iter      E             dE          RMSdq      gap      omega  full diag
   1   -103.9632118 -0.103963E+03  0.163E-02    1.73       0.0  T
   2   -103.9632121 -0.297374E-06  0.939E-03    1.73       1.3  T
   3   -103.9632121 -0.277512E-08  0.176E-03    1.73       7.0  T
   4   -103.9632121 -0.282629E-07  0.703E-04    1.73      17.5  T
   5   -103.9632121 -0.122573E-07  0.331E-04    1.73      37.2  T
     SCC iter.                  ...        0 min,  0.059 sec
     gradient                   ...        0 min,  0.055 sec
 * total energy  :  -102.6706424 Eh     change       -0.2431999E-04 Eh
   gradient norm :     0.0014151 Eh/α   predicted    -0.1661724E-04 ( -31.67%)
   displ. norm   :     0.3427233 α      lambda       -0.3241008E-04
   maximum displ.:     0.1972723 α      in ANC's #2, #1, #19, ...

........................................................................
.............................. CYCLE   59 ..............................
........................................................................

 iter      E             dE          RMSdq      gap      omega  full diag
   1   -103.9624876 -0.103962E+03  0.379E-02    1.72       0.0  T
   2   -103.9624884 -0.847301E-06  0.220E-02    1.72       1.0  T
   3   -103.9624882  0.247703E-06  0.376E-03    1.72       3.3  T
   4   -103.9624884 -0.250206E-06  0.183E-03    1.72       6.7  T
   5   -103.9624887 -0.211285E-06  0.662E-04    1.72      18.6  T
   6   -103.9624887 -0.585253E-08  0.187E-04    1.72      65.7  T
     SCC iter.                  ...        0 min,  0.030 sec
     gradient                   ...        0 min,  0.055 sec
 * total energy  :  -102.6706732 Eh     change       -0.3081110E-04 Eh
   gradient norm :     0.0026504 Eh/α   predicted    -0.1705360E-04 ( -44.65%)
   displ. norm   :     0.0979269 α      lambda       -0.1826961E-04
   maximum displ.:     0.0613181 α      in ANC's #2, #1, #19, ...

........................................................................
.............................. CYCLE   60 ..............................
........................................................................

 iter      E             dE          RMSdq      gap      omega  full diag
   1   -103.9628128 -0.103963E+03  0.105E-02    1.72       0.0  T
   2   -103.9628130 -0.137601E-06  0.599E-03    1.72       2.1  T
   3   -103.9628129  0.100388E-06  0.171E-03    1.72       7.2  T
   4   -103.9628130 -0.124751E-06  0.549E-04    1.72      22.4  T
   5   -103.9628130 -0.135838E-07  0.225E-04    1.72      54.8  T
     SCC iter.                  ...        0 min,  0.025 sec
[...]


           -------------------------------------------------
          |                 G F N 2 - x T B                 |
           -------------------------------------------------

        Reference                      10.1021/acs.jctc.8b01176
      * Hamiltonian:
        H0-scaling (s, p, d)           1.850000    2.230000    2.230000
        zeta-weighting                 0.500000
      * Dispersion:
        s8                             2.700000
        a1                             0.520000
        a2                             5.000000
        s9                             5.000000
      * Repulsion:
        kExp                           1.500000    1.000000
        rExp                           1.000000
      * Coulomb:
        alpha                          2.000000
        third order                    shell-resolved
        anisotropic                    true
        a3                             3.000000
        a5                             4.000000
        cn-shift                       1.200000
        cn-exp                         4.000000
        max-rad                        5.000000


          ...................................................
          :                      SETUP                      :
          :.................................................:
          :  # basis functions                 174          :
          :  # atomic orbitals                 173          :
          :  # shells                          101          :
          :  # electrons                       184          :
          :  max. iterations                   250          :
          :  Hamiltonian                  GFN2-xTB          :
          :  restarted?                      false          :
          :  GBSA solvation                  false          :
          :  PC potential                    false          :
          :  electronic temp.          300.0000000     K    :
          :  accuracy                    1.0000000          :
          :  -> integral cutoff          0.2500000E+02      :
          :  -> integral neglect         0.1000000E-07      :
          :  -> SCF convergence          0.1000000E-05 Eh   :
          :  -> wf. convergence          0.1000000E-03 e    :
          :  Broyden damping             0.4000000          :
          :  net charge                          0          :
          :  unpaired electrons                  2          :
          ...................................................

 iter      E             dE          RMSdq      gap      omega  full diag
   1   -103.5293463 -0.103529E+03  0.407E+00    0.79       0.0  T
   2   -103.7431589 -0.213813E+00  0.276E+00    0.47       1.0  T
   3   -103.6271077  0.116051E+00  0.194E+00    0.68       1.0  T
   4   -103.7077831 -0.806754E-01  0.144E+00    0.55       1.0  T
   5   -103.7960406 -0.882575E-01  0.909E-01    0.95       1.0  T
   6   -103.8170872 -0.210466E-01  0.731E-01    0.67       1.0  T
   7   -103.8482397 -0.311525E-01  0.462E-01    0.84       1.0  T
   8   -103.8606015 -0.123618E-01  0.325E-01    0.74       1.0  T
   9   -103.8285633  0.320382E-01  0.478E-01    0.70       1.0  T
  10   -103.8622526 -0.336893E-01  0.263E-01    0.74       1.0  T
  11   -103.7880858  0.741668E-01  0.730E-01    0.73       1.0  T
  12   -103.8644088 -0.763230E-01  0.217E-01    0.72       1.0  T
  13   -103.8600586  0.435019E-02  0.268E-01    0.73       1.0  T
  14   -103.8712369 -0.111782E-01  0.576E-02    0.72       1.0  T
  15   -103.8710450  0.191868E-03  0.630E-02    0.72       1.0  T
  16   -103.8709061  0.138910E-03  0.686E-02    0.72       1.0  T
  17   -103.8717434 -0.837316E-03  0.967E-03    0.72       1.3  T
  18   -103.8717291  0.142873E-04  0.123E-02    0.72       1.0  T
  19   -103.8717497 -0.206120E-04  0.546E-03    0.72       2.3  T
  20   -103.8717463  0.349263E-05  0.731E-03    0.72       1.7  T
  21   -103.8717549 -0.865526E-05  0.166E-03    0.72       7.4  T
  22   -103.8717548  0.671422E-07  0.171E-03    0.72       7.2  T
  23   -103.8717553 -0.439266E-06  0.452E-04    0.72      27.3  T
  24   -103.8717553 -0.270783E-07  0.798E-05    0.72     154.3  T

   *** convergence criteria satisfied after 24 iterations ***

         #    Occupation            Energy/Eh            Energy/eV
      -------------------------------------------------------------
         1        2.0000           -0.7615829             -20.7237
       ...           ...                  ...                  ...
        87        2.0000           -0.4016022             -10.9282
        88        2.0000           -0.3947336             -10.7412
        89        1.9999           -0.3913394             -10.6489
        90        1.9426           -0.3849053             -10.4738
        91        1.8050           -0.3835936             -10.4381
        92        1.2525           -0.3812159             -10.3734
        93        1.0000           -0.2720904              -7.4040 (HOMO)
        94        0.0000           -0.2455178              -6.6809 (LUMO)
        95                         -0.2313657              -6.2958
        96                         -0.2079661              -5.6590
        97                         -0.1810327              -4.9262
        98                         -0.1258751              -3.4252
       ...                                ...                  ...
       173                          1.2509256              34.0394
      -------------------------------------------------------------
                  HL-Gap            0.0265726 Eh            0.7231 eV
             Fermi-level           -0.3205255 Eh           -8.7219 eV

 transition dipole moment (au) for excitation:          92          93
     X       Y       Z   
  -0.0043  -0.0421  -0.0348  total (au/Debye):    0.055   0.139
 dE (eV)             :    2.969
 oscillator strength :  0.30952E-03

 SCC (total)                   0 d,  0 h,  0 min,  0.275 sec
 SCC setup                      ...        0 min,  0.001 sec (  0.270%)
 Dispersion                     ...        0 min,  0.001 sec (  0.390%)
 classical contributions        ...        0 min,  0.000 sec (  0.125%)
 integral evaluation            ...        0 min,  0.056 sec ( 20.224%)
 iterations                     ...        0 min,  0.124 sec ( 44.907%)
 molecular gradient             ...        0 min,  0.080 sec ( 29.176%)
 printout                       ...        0 min,  0.013 sec (  4.906%)

         :::::::::::::::::::::::::::::::::::::::::::::::::::::
         ::                     SUMMARY                     ::
         :::::::::::::::::::::::::::::::::::::::::::::::::::::
         :: total energy            -102.579344003716 Eh    ::
         :: gradient norm              0.134060405717 Eh/a0 ::
         :: HOMO-LUMO gap              0.723078094420 eV    ::
         ::.................................................::
         :: SCC energy              -103.871056846558 Eh    ::
         :: -> isotropic ES            0.133568577315 Eh    ::
         :: -> anisotropic ES          0.002170746157 Eh    ::
         :: -> anisotropic XC          0.041194904748 Eh    ::
         :: -> dispersion             -0.076729513338 Eh    ::
         :: repulsion energy           1.291712842842 Eh    ::
         :: add. restraining           0.000000000000 Eh    ::
         :: total charge              -0.000000000000 e     ::
         :::::::::::::::::::::::::::::::::::::::::::::::::::::

           -------------------------------------------------
          |                Property Printout                |
           -------------------------------------------------

    * Orbital Energies and Occupations

         #    Occupation            Energy/Eh            Energy/eV
      -------------------------------------------------------------
         1        2.0000           -0.7615829             -20.7237
       ...           ...                  ...                  ...
        81        2.0000           -0.4319154             -11.7530
        82        2.0000           -0.4257462             -11.5851
        83        2.0000           -0.4149584             -11.2916
        84        2.0000           -0.4098376             -11.1522
        85        2.0000           -0.4072593             -11.0821
        86        2.0000           -0.4057926             -11.0422
        87        2.0000           -0.4016022             -10.9282
        88        2.0000           -0.3947336             -10.7412
        89        1.9999           -0.3913394             -10.6489
        90        1.9426           -0.3849053             -10.4738
        91        1.8050           -0.3835936             -10.4381
        92        1.2525           -0.3812159             -10.3734
        93        1.0000           -0.2720904              -7.4040 (HOMO)
        94        0.0000           -0.2455178              -6.6809 (LUMO)
        95                         -0.2313657              -6.2958
        96                         -0.2079661              -5.6590
        97                         -0.1810327              -4.9262
        98                         -0.1258751              -3.4252
        99                         -0.1123961              -3.0585
       100                         -0.0947765              -2.5790
       101                         -0.0710561              -1.9335
       102                         -0.0605051              -1.6464
       103                         -0.0446710              -1.2156
       104                         -0.0289299              -0.7872
       ...                                ...                  ...
       173                          1.2509256              34.0394
      -------------------------------------------------------------
                  HL-Gap            0.0265726 Eh            0.7231 eV
             Fermi-level           -0.3205255 Eh           -8.7219 eV

     #   Z          covCN         q      C6AA      α(0)
     1   6 C        3.751    -0.104    22.543     6.771
     2   6 C        3.802    -0.055    21.553     6.610
     3   6 C        3.804    -0.068    21.799     6.647
     4   6 C        3.129     0.107    25.457     8.261
     5   7 N        1.927    -0.265    27.722     7.807
     6   6 C        3.149     0.077    26.025     8.345
     7   6 C        3.755    -0.116    22.781     6.806
     8   6 C        3.064    -0.012    28.258     8.717
     9   7 N        2.948     0.055    20.275     6.688
    10   7 N        2.769    -0.114    23.490     7.198
    11   6 C        2.855     0.122    25.320     8.247
    12   6 C        2.979    -0.039    28.968     8.829
    13   6 C        2.856     0.124    25.273     8.240
    14   6 C        2.919    -0.067    29.681     8.934
    15   6 C        2.967    -0.053    29.305     8.880
    16   6 C        2.965    -0.098    30.454     9.052
    17  16 S        3.907     1.090   104.099    17.172
    18   8 O        0.860    -0.563    25.230     6.734
    19   7 N        2.737    -0.285    27.333     7.765
    20   6 C        3.874     0.007    20.415     6.424
    21   6 C        3.770     0.003    20.558     6.461
    22   7 N        2.731    -0.133    23.874     7.257
    23   6 C        3.772     0.003    20.565     6.462
    24   6 C        3.859     0.011    20.353     6.416
    25   6 C        3.756     0.005    20.549     6.463
    26   6 C        3.752    -0.114    22.749     6.802
    27   8 O        0.860    -0.559    25.135     6.722
    28   6 C        2.959    -0.044    29.083     8.846
    29   8 O        1.704    -0.294    18.891     5.868
    30   6 C        3.685     0.083    19.382     6.303
    31   6 C        3.751    -0.113    22.730     6.799
    32   7 N        1.844    -0.231    26.911     7.688
    33   6 C        2.776     0.267    22.494     7.768
    34   8 O        0.859    -0.372    21.126     6.162
    35   1 H        0.925     0.034     2.529     2.487
    36   1 H        0.925     0.041     2.440     2.443
    37   1 H        0.925     0.035     2.514     2.479
    38   1 H        0.924     0.040     2.455     2.451
    39   1 H        0.924     0.050     2.318     2.381
    40   1 H        0.924     0.040     2.444     2.445
    41   1 H        0.924     0.067     2.124     2.279
    42   1 H        0.925     0.067     2.115     2.274
    43   1 H        0.925     0.066     2.128     2.281
    44   1 H        0.925     0.075     2.034     2.230
    45   1 H        0.860     0.214     1.037     1.595
    46   1 H        0.926     0.040     2.452     2.449
    47   1 H        0.926     0.049     2.338     2.391
    48   1 H        0.924     0.051     2.303     2.373
    49   1 H        0.924     0.053     2.280     2.362
    50   1 H        0.925     0.059     2.207     2.323
    51   1 H        0.922     0.034     2.531     2.488
    52   1 H        0.922     0.037     2.489     2.467
    53   1 H        0.924     0.052     2.296     2.370
    54   1 H        0.925     0.069     2.101     2.267
    55   1 H        0.923     0.043     2.411     2.428
    56   1 H        0.922     0.024     2.681     2.560
    57   1 H        0.924     0.046     2.373     2.409
    58   1 H        0.925     0.049     2.331     2.388
    59   1 H        0.925     0.044     2.401     2.423
    60   1 H        0.925     0.057     2.232     2.337
    61   1 H        0.926     0.075     2.028     2.227
    62   1 H        0.924     0.040     2.453     2.449
    63   1 H        0.924     0.036     2.503     2.474
    64   1 H        0.925     0.052     2.290     2.366
    65   1 H        0.925     0.054     2.274     2.358
    66   1 H        0.925     0.053     2.283     2.363

 Mol. C6AA /au·bohr⁶  :      48296.540432
 Mol. C8AA /au·bohr⁸  :    1144004.698853
 Mol. α(0) /au        :        335.761081


Wiberg/Mayer (AO) data.
largest (>0.10) Wiberg bond orders for each atom

 ---------------------------------------------------------------------------
     #   Z sym  total        # sym  WBO       # sym  WBO       # sym  WBO
 ---------------------------------------------------------------------------
     1   6 C    3.996 --     2 C    1.021    37 H    0.987    36 H    0.986
                            35 H    0.982
     2   6 C    3.991 --     1 C    1.021     3 C    0.983    39 H    0.978
                            38 H    0.977
     3   6 C    3.993 --     4 C    1.018     2 C    0.983    40 H    0.967
                            41 H    0.965
     4   6 C    3.924 --     5 N    1.425     9 N    1.241     3 C    1.018
     5   7 N    3.045 --     4 C    1.425     6 C    1.296
     6   6 C    3.923 --     8 C    1.405     5 N    1.296     7 C    1.039
     7   6 C    3.986 --     6 C    1.039    44 H    0.975    42 H    0.963
                            43 H    0.963
     8   6 C    3.839 --     6 C    1.405     9 N    1.125    33 C    0.989
     9   7 N    3.635 --     4 C    1.241     8 C    1.125    10 N    1.035
    10   7 N    3.363 --    11 C    1.122     9 N    1.035    45 H    0.890
    11   6 C    3.903 --    32 N    1.390    12 C    1.145    10 N    1.122
    12   6 C    3.947 --    28 C    1.300    13 C    1.235    11 C    1.145
    13   6 C    3.908 --    14 C    1.418    12 C    1.235    29 O    1.041
    14   6 C    3.975 --    13 C    1.418    15 C    1.392    46 H    0.964
    15   6 C    3.917 --    14 C    1.392    16 C    1.364    47 H    0.967
    16   6 C    3.954 --    28 C    1.466    15 C    1.364    17 S    0.749
    17  16 S    4.973 --    27 O    1.636    18 O    1.622    19 N    0.881
                            16 C    0.749
    18   8 O    1.928 --    17 S    1.622    27 O    0.110
    19   7 N    3.158 --    20 C    0.997    24 C    0.990    17 S    0.881
    20   6 C    3.969 --    19 N    0.997    21 C    0.995    48 H    0.968
                            49 H    0.961
    21   6 C    3.978 --    22 N    1.007    20 C    0.995    50 H    0.967
                            51 H    0.955
    22   7 N    3.101 --    21 C    1.007    23 C    1.006    25 C    0.996
    23   6 C    3.978 --    22 N    1.006    24 C    0.995    53 H    0.969
                            52 H    0.955
    24   6 C    3.966 --    23 C    0.995    19 N    0.990    54 H    0.968
                            55 H    0.963
    25   6 C    3.974 --    26 C    1.014    22 N    0.996    57 H    0.972
                            56 H    0.959
    26   6 C    3.991 --    25 C    1.014    60 H    0.985    58 H    0.985
                            59 H    0.984
    27   8 O    1.930 --    17 S    1.636    18 O    0.110
    28   6 C    3.968 --    16 C    1.466    12 C    1.300    61 H    0.952
    29   8 O    2.221 --    13 C    1.041    30 C    0.954
    30   6 C    3.943 --    31 C    1.016    63 H    0.969    62 H    0.968
                            29 O    0.954
    31   6 C    3.992 --    30 C    1.016    64 H    0.985    66 H    0.983
                            65 H    0.982
    32   7 N    3.051 --    11 C    1.390    33 C    1.172    34 O    0.212
    33   6 C    3.903 --    34 O    1.589    32 N    1.172     8 C    0.989
    34   8 O    2.021 --    33 C    1.589    32 N    0.212
    35   1 H    0.999 --     1 C    0.982
    36   1 H    0.998 --     1 C    0.986
    37   1 H    0.999 --     1 C    0.987
    38   1 H    0.997 --     2 C    0.977
    39   1 H    0.997 --     2 C    0.978
    40   1 H    0.998 --     3 C    0.967
    41   1 H    0.994 --     3 C    0.965
    42   1 H    0.989 --     7 C    0.963
    43   1 H    0.989 --     7 C    0.963
    44   1 H    0.993 --     7 C    0.975
    45   1 H    0.953 --    10 N    0.890
    46   1 H    0.997 --    14 C    0.964
    47   1 H    0.997 --    15 C    0.967
    48   1 H    0.997 --    20 C    0.968
    49   1 H    0.990 --    20 C    0.961
    50   1 H    0.995 --    21 C    0.967
    51   1 H    0.982 --    21 C    0.955
    52   1 H    0.981 --    23 C    0.955
    53   1 H    0.996 --    23 C    0.969
    54   1 H    0.995 --    24 C    0.968
    55   1 H    0.991 --    24 C    0.963
    56   1 H    0.985 --    25 C    0.959
    57   1 H    0.997 --    25 C    0.972
    58   1 H    0.997 --    26 C    0.985
    59   1 H    0.998 --    26 C    0.984
    60   1 H    0.996 --    26 C    0.985
    61   1 H    0.993 --    28 C    0.952
    62   1 H    0.998 --    30 C    0.968
    63   1 H    0.998 --    30 C    0.969
    64   1 H    0.997 --    31 C    0.985
    65   1 H    0.997 --    31 C    0.982
    66   1 H    0.997 --    31 C    0.983
 ---------------------------------------------------------------------------

Topologies differ in total number of bonds
Writing topology from bond orders to xtbtopo.mol

molecular dipole:
                 x           y           z       tot (Debye)
 q only:       -0.432       0.910       3.888
   full:       -0.262       0.457       4.457      11.409
molecular quadrupole (traceless):
                xx          xy          yy          xz          yz          zz
 q only:       40.755      30.640     -12.888       5.628     -10.324     -27.866
  q+dip:       36.473      33.394     -11.614       4.689      -9.889     -24.859
   full:       35.897      35.294     -10.220       5.904      -7.220     -25.677


           -------------------------------------------------
          | TOTAL ENERGY             -102.579344003716 Eh   |
          | GRADIENT NORM               0.134060405717 Eh/α |
          | HOMO-LUMO GAP               0.723078094420 eV   |
           -------------------------------------------------

------------------------------------------------------------------------
 * finished run on 2025/05/15 at 16:21:11.121     
------------------------------------------------------------------------
 total:
 * wall-time:     0 d,  0 h,  0 min,  0.296 sec
 *  cpu-time:     0 d,  0 h,  0 min,  0.230 sec
 * ratio c/w:     0.775 speedup
 SCF:
 * wall-time:     0 d,  0 h,  0 min,  0.276 sec
 *  cpu-time:     0 d,  0 h,  0 min,  0.210 sec
 * ratio c/w:     0.763 speedup


