66
 energy: -102.670818492710 gnorm: 0.000850795437 xtb: 6.7.1 (edcfbbe)
C           -4.10312657629897        1.39103342481250        2.19046577782998
C           -5.55953141950803        1.13771312081243        1.81860300816946
C           -5.71569737739468        0.23783200562215        0.58330934471030
C           -5.08356082333049        0.84126401005963       -0.61844987024908
N           -5.63576173982430        1.72637121789232       -1.42069949943206
C           -4.72293638234069        2.05703218825349       -2.36307455342743
C           -4.99607190895879        3.03364925073606       -3.44443598110371
C           -3.55535852860213        1.34864561565410       -2.13767590034823
N           -3.81861748192072        0.58146427697394       -1.01483144214090
N           -2.87543174855346       -0.26286225354944       -0.50558492635500
C           -1.66261517254664       -0.31824732755426       -1.11589361451599
C           -0.64312590724707       -1.22924018546879       -0.56304790532337
C           -0.80467816011449       -2.04109287226095        0.58061830662551
C            0.25785000484620       -2.83803875142651        1.00814202149235
C            1.45638430545339       -2.85174445574476        0.32138018190738
C            1.60431543833013       -2.07398781815540       -0.81010482530426
S            3.18412734269120       -2.11974962501691       -1.65667730735668
O            3.03224987749129       -1.62301243405031       -2.99162453128864
N            4.04816663904062       -1.05407445895177       -0.68705929496862
C            3.74285406545186        0.33666684578600       -0.94410742161597
C            4.38259840239634        1.19315290085070        0.14547955096301
N            5.81749962709191        0.98039132747823        0.17073219853463
C            6.09840909632452       -0.42070726733643        0.42602633829441
C            5.48088754434620       -1.27303515981998       -0.67676747596383
C            6.50015821681166        1.85558539220616        1.10951367780430
C            6.53873692789761        3.29961843796749        0.62206690930209
O            3.75224491043998       -3.42302422410310       -1.46682783160425
C            0.57325827235137       -1.27488732291322       -1.24705509197544
O           -2.00269675132664       -2.02125437594211        1.23058232066903
C           -2.24457060898995       -2.92223501950901        2.30596049868586
C           -3.70648849314237       -2.78791539208931        2.70345024291439
N           -1.35008426925465        0.38543024585761       -2.14523416335813
C           -2.23776235718315        1.27148945149930       -2.75485248424674
O           -1.90338902968622        1.92206478793598       -3.71986468651702
H           -3.57545470320575        0.45800024600986        2.38359430406569
H           -4.04808518286435        2.00089133955943        3.08902143142282
H           -3.58732725423779        1.92313013241292        1.39429294930150
H           -6.07587690139264        0.66822684698227        2.65861937452364
H           -6.04753298082048        2.09068716849191        1.61175521880455
H           -5.28009837538487       -0.74578258337891        0.77970707013191
H           -6.77845326500891        0.10915110473058        0.37572181509250
H           -5.85812488859093        2.71318397960976       -4.02759040190381
H           -5.22601151601573        4.00917658651901       -3.01825995488032
H           -4.12411833486656        3.11103674704162       -4.08732540938319
H           -3.09797390413450       -0.80389611266993        0.31973695050199
H            0.15423162970295       -3.45519552250133        1.88540758179204
H            2.27786998051783       -3.47289812178134        0.63850909415440
H            2.65849047007212        0.45567973706112       -0.93419839825303
H            4.12414397925805        0.63965082234564       -1.92787783834153
H            4.18177297939933        2.24248111416909       -0.07011039584961
H            3.92319915053701        0.93523605978617        1.11861269368207
H            5.69363423630896       -0.74510496269130        1.40193773859693
H            7.18055240425133       -0.56767724245051        0.42912576012744
H            5.64836853285169       -2.33530040471591       -0.50043790495129
H            5.92309930184439       -0.99188242183480       -1.64235574825353
H            6.04129349328675        1.81048535030313        2.11386699890504
H            7.52737616369377        1.49254307691130        1.19647639689012
H            7.22977967271751        3.87335407148961        1.23443554209800
H            5.56182421028242        3.77109504561817        0.68225223518006
H            6.87660925362066        3.32678262389119       -0.40976990406671
H            0.67750653113599       -0.67787888927937       -2.13972411112410
H           -2.03650931091481       -3.94881754858643        1.98297653251942
H           -1.59596260814597       -2.67132627919110        3.15414657685566
H           -4.35052640090788       -3.03580827090717        1.86308648184173
H           -3.92304285496679       -1.77409504363008        3.03069880678835
H           -3.92318944277559       -3.46942420577017        3.52040694289249
