38
 energy: -65.474390557970 gnorm: 0.000195730055 xtb: 6.7.1 (edcfbbe)
O           -3.50382322957469        1.92318570350702        0.99864750258331
C           -2.88491428168695        2.16592244604366       -0.23304603522525
C           -2.11478761706991        0.93878590753921       -0.74157469593176
O           -1.03294928856087        0.74583628338569        0.14798149390518
C           -0.16262996529496       -0.29282926889312       -0.24240359749509
C           -0.89950826884218       -1.63688306760577       -0.33923900394207
C           -2.13137059128896       -1.50631245807850       -1.23733222016659
C           -2.99095080701880       -0.32696901336016       -0.77207116295020
O           -4.07429798984529       -0.21993126884881       -1.66455957775846
O           -2.83682054213076       -2.72036221837029       -1.17759323769801
O            0.01339084999441       -2.57244024191838       -0.84380750020348
O            0.82334479146428       -0.45840197453086        0.70751833570982
C            1.92546368340875        0.37586709766528        0.68066082023289
C            1.88006070001327        1.68695088525994        0.23603482007943
C            3.02620271619391        2.46406600260036        0.27228334573694
C            4.21026721685309        1.93498355015589        0.75048701241883
C            4.25168419150851        0.62059063993031        1.18687681795674
C            3.11943631017065       -0.17629837338805        1.15750600408620
C            3.14246606502084       -1.62323931188538        1.59150983056862
O            2.86700501495165       -2.51964033761285        0.54326737002967
H           -2.81404537691249        1.67220736138091        1.62560022933042
H           -3.67524285854907        2.42982120715736       -0.93944974528649
H           -2.18203697887874        3.00635620712165       -0.16247622981996
H           -1.73915429686027        1.13824300956754       -1.75866980946756
H            0.27404285020024       -0.05285099078782       -1.23293334865190
H           -1.22699838112298       -1.92069646930534        0.67267694769071
H           -1.80464400557980       -1.31201965936251       -2.27254600516059
H           -3.34802046725636       -0.53017579184631        0.24828664483399
H           -4.70896843752143        0.40904981766079       -1.30393636011144
H           -3.68567115356652       -2.58026113732284       -1.61532402597570
H           -0.46892924245616       -3.39484574559706       -0.99807461925167
H            0.94912928453505        2.10079310424738       -0.11891708140041
H            2.98611692510840        3.48674911812100       -0.07184327077048
H            5.10238369945212        2.54194186445632        0.78039179322424
H            5.17882877462837        0.20181999855882        1.54906762559762
H            4.14021249877971       -1.88639850828609        1.95180116840291
H            2.42304643347542       -1.75931189515903        2.41375104918997
H            1.97258177425375       -2.35290247220456        0.21154871569245
