----- Optimization -----
      -----------------------------------------------------------      
     |                   =====================                   |     
     |                           x T B                           |     
     |                   =====================                   |     
     |                         S. Grimme                         |     
     |          Mulliken Center for Theoretical Chemistry        |     
     |                    University of Bonn                     |     
      -----------------------------------------------------------      

   * xtb version 6.7.1 (edcfbbe) compiled by 'conda@3ef47c1a292c' on 2024-11-25

   xtb is free software: you can redistribute it and/or modify it under
   the terms of the GNU Lesser General Public License as published by
   the Free Software Foundation, either version 3 of the License, or
   (at your option) any later version.
   
   xtb is distributed in the hope that it will be useful,
   but WITHOUT ANY WARRANTY; without even the implied warranty of
   MERCHANTABILITY or FITNESS FOR A PARTICULAR PURPOSE.  See the
   GNU Lesser General Public License for more details.
   
   Cite this work as:
   * C. Bannwarth, E. Caldeweyher, S. Ehlert, A. Hansen, P. Pracht,
     J. Seibert, S. Spicher, S. Grimme, WIREs Comput. Mol. Sci., 2020, 11,
     e01493. DOI: 10.1002/wcms.1493
   
   for GFN2-xTB:
   * C. Bannwarth, S. Ehlert and S. Grimme., J. Chem. Theory Comput., 2019,
     15, 1652-1671. DOI: 10.1021/acs.jctc.8b01176
   for GFN1-xTB:
   * S. Grimme, C. Bannwarth, P. Shushkov, J. Chem. Theory Comput., 2017,
     13, 1989-2009. DOI: 10.1021/acs.jctc.7b00118
   for GFN0-xTB:
   * P. Pracht, E. Caldeweyher, S. Ehlert, S. Grimme, ChemRxiv, 2019, preprint.
     DOI: 10.26434/chemrxiv.8326202.v1
   for GFN-FF:
   * S. Spicher and S. Grimme, Angew. Chem. Int. Ed., 2020, 59, 15665-15673.
     DOI: 10.1002/anie.202004239
   
   for ALPB and GBSA implicit solvation:
   * S. Ehlert, M. Stahn, S. Spicher, S. Grimme, J. Chem. Theory Comput.,
     2021, 17, 4250-4261. DOI: 10.1021/acs.jctc.1c00471
   
   for ddCOSMO and CPCM-X implicit solvation:
   * M. Stahn, S. Ehlert, S. Grimme, J. Phys. Chem. A,
     2023, XX, XXXX-XXXX. DOI: 10.1021/acs.jpca.3c04382
   
   for DFT-D4:
   * E. Caldeweyher, C. Bannwarth and S. Grimme, J. Chem. Phys., 2017,
     147, 034112. DOI: 10.1063/1.4993215
   * E. Caldeweyher, S. Ehlert, A. Hansen, H. Neugebauer, S. Spicher,
     C. Bannwarth and S. Grimme, J. Chem. Phys., 2019, 150, 154122.
     DOI: 10.1063/1.5090222
   * E. Caldeweyher, J.-M. Mewes, S. Ehlert and S. Grimme, Phys. Chem. Chem. Phys.
     2020, 22, 8499-8512. DOI: 10.1039/D0CP00502A
   
   for sTDA-xTB:
   * S. Grimme and C. Bannwarth, J. Chem. Phys., 2016, 145, 054103.
     DOI: 10.1063/1.4959605
   
   in the mass-spec context:
   * V. Asgeirsson, C. Bauer and S. Grimme, Chem. Sci., 2017, 8, 4879.
     DOI: 10.1039/c7sc00601b
   * J. Koopman and S. Grimme, ACS Omega 2019, 4, 12, 15120-15133.
     DOI: 10.1021/acsomega.9b02011
   
   for metadynamics refer to:
   * S. Grimme, J. Chem. Theory Comput., 2019, 155, 2847-2862
     DOI: 10.1021/acs.jctc.9b00143
   
   for SPH calculations refer to:
   * S. Spicher and S. Grimme, J. Chem. Theory Comput., 2021, 17, 1701-1714
     DOI: 10.1021/acs.jctc.0c01306
   
   for ONIOM refer to:
   * C. Plett, A. Katbashev, S. Ehlert, S. Grimme, M. Bursch,
     Phys. Chem. Chem. Phys., 2023, 25, 17860-17868. DOI: 10.1039/D3CP02178E
   
   for DIPRO refer to:
   * J. Kohn, N. Gildemeister, S. Grimme, D. Fazzi, A. Hansen,
     J. Chem. Phys., 2023, just accepted.
   
   for PTB refer to:
   * S. Grimme, M. Mueller, A. Hansen, J. Chem. Phys., 2023, 158, 124111.
     DOI: 10.1063/5.0137838
   
   with help from (in alphabetical order)
   P. Atkinson, C. Bannwarth, F. Bohle, G. Brandenburg, E. Caldeweyher
   M. Checinski, S. Dohm, S. Ehlert, S. Ehrlich, I. Gerasimov, C. Hölzer
   A. Katbashev, J. Kohn, J. Koopman, C. Lavigne, S. Lehtola, F. März, M. Müller,
   F. Musil, H. Neugebauer, J. Pisarek, C. Plett, P. Pracht, F. Pultar,
   J. Seibert, P. Shushkov, S. Spicher, M. Stahn, M. Steiner, T. Strunk,
   J. Stückrath, T. Rose, and J. Unsleber
   
 * started run on 2025/05/15 at 16:26:57.423     
   ID    Z sym.   atoms
    1   17 Cl     1
    2    6 C      2-16, 18, 19, 21-25
    3    7 N      17, 20
    4    1 H      26-42

           -------------------------------------------------
          |                Calculation Setup                |
           -------------------------------------------------

          program call               : xtb /rds/general/user/hgt20/home/callum/QDESCP/Clotrimazole_rdkit_conf_6/Clotrimazole_rdkit_conf_6.xyz --opt normal --acc 1 --gfn 2 --chrg 0 --uhf 0 -P 1
          hostname                   : login-c
          coordinate file            : /rds/general/user/hgt20/home/callum/QDESCP/Clotrimazole_rdkit_conf_6/Clotrimazole_rdkit_conf_6.xyz
          omp threads                :                     1


           -------------------------------------------------
          |                 G F N 2 - x T B                 |
           -------------------------------------------------

        Reference                      10.1021/acs.jctc.8b01176
      * Hamiltonian:
        H0-scaling (s, p, d)           1.850000    2.230000    2.230000
        zeta-weighting                 0.500000
      * Dispersion:
        s8                             2.700000
        a1                             0.520000
        a2                             5.000000
        s9                             5.000000
      * Repulsion:
        kExp                           1.500000    1.000000
        rExp                           1.000000
      * Coulomb:
        alpha                          2.000000
        third order                    shell-resolved
        anisotropic                    true
        a3                             3.000000
        a5                             4.000000
        cn-shift                       1.200000
        cn-exp                         4.000000
        max-rad                        5.000000


          ...................................................
          :                      SETUP                      :
          :.................................................:
          :  # basis functions                 123          :
          :  # atomic orbitals                 122          :
          :  # shells                           68          :
          :  # electrons                       122          :
          :  max. iterations                   250          :
          :  Hamiltonian                  GFN2-xTB          :
          :  restarted?                      false          :
          :  GBSA solvation                  false          :
          :  PC potential                    false          :
          :  electronic temp.          300.0000000     K    :
          :  accuracy                    1.0000000          :
          :  -> integral cutoff          0.2500000E+02      :
          :  -> integral neglect         0.1000000E-07      :
          :  -> SCF convergence          0.1000000E-05 Eh   :
          :  -> wf. convergence          0.1000000E-03 e    :
          :  Broyden damping             0.4000000          :
          :  net charge                          0          :
          :  unpaired electrons                  0          :
          ...................................................

 iter      E             dE          RMSdq      gap      omega  full diag
   1    -67.0845265 -0.670845E+02  0.450E+00    3.99       0.0  T
   2    -67.1600359 -0.755095E-01  0.278E+00    3.05       1.0  T
   3    -67.1496732  0.103627E-01  0.116E+00    3.28       1.0  T
   4    -67.1658024 -0.161292E-01  0.392E-01    3.10       1.0  T
   5    -67.1708130 -0.501059E-02  0.958E-02    3.10       1.0  T
   6    -67.1709573 -0.144335E-03  0.495E-02    3.08       1.0  T
   7    -67.1709975 -0.401261E-04  0.330E-02    3.08       1.0  T
   8    -67.1710100 -0.125803E-04  0.221E-02    3.08       1.0  T
   9    -67.1710155 -0.548615E-05  0.170E-02    3.08       1.0  T
  10    -67.1710208 -0.529288E-05  0.102E-02    3.09       1.5  T
  11    -67.1710226 -0.175060E-05  0.420E-03    3.09       3.7  T
  12    -67.1710232 -0.618620E-06  0.121E-03    3.09      12.8  T
  13    -67.1710232 -0.165519E-07  0.673E-04    3.09      22.9  T
  14    -67.1710232 -0.514886E-08  0.437E-04    3.09      35.3  T

   *** convergence criteria satisfied after 14 iterations ***

         #    Occupation            Energy/Eh            Energy/eV
      -------------------------------------------------------------
         1        2.0000           -1.0588865             -28.8138
       ...           ...                  ...                  ...
        55        2.0000           -0.4121379             -11.2148
        56        2.0000           -0.4098726             -11.1532
        57        2.0000           -0.4059073             -11.0453
        58        2.0000           -0.4007373             -10.9046
        59        2.0000           -0.4004038             -10.8955
        60        2.0000           -0.3750314             -10.2051
        61        2.0000           -0.3679455             -10.0123 (HOMO)
        62                         -0.2544735              -6.9246 (LUMO)
        63                         -0.2492736              -6.7831
        64                         -0.2413011              -6.5661
        65                         -0.2376454              -6.4667
        66                         -0.2351715              -6.3993
       ...                                ...                  ...
       122                          0.6127277              16.6732
      -------------------------------------------------------------
                  HL-Gap            0.1134721 Eh            3.0877 eV
             Fermi-level           -0.3112095 Eh           -8.4684 eV

 SCC (total)                   0 d,  0 h,  0 min,  0.109 sec
 SCC setup                      ...        0 min,  0.000 sec (  0.362%)
 Dispersion                     ...        0 min,  0.001 sec (  0.498%)
 classical contributions        ...        0 min,  0.000 sec (  0.136%)
 integral evaluation            ...        0 min,  0.010 sec (  9.090%)
 iterations                     ...        0 min,  0.068 sec ( 63.071%)
 molecular gradient             ...        0 min,  0.029 sec ( 26.660%)
 printout                       ...        0 min,  0.000 sec (  0.177%)

         :::::::::::::::::::::::::::::::::::::::::::::::::::::
         ::                     SUMMARY                     ::
         :::::::::::::::::::::::::::::::::::::::::::::::::::::
         :: total energy             -66.143863538782 Eh    ::
         :: gradient norm              0.052820724072 Eh/a0 ::
         :: HOMO-LUMO gap              3.087731683651 eV    ::
         ::.................................................::
         :: SCC energy               -67.169405463283 Eh    ::
         :: -> isotropic ES            0.017929650432 Eh    ::
         :: -> anisotropic ES          0.004138915298 Eh    ::
         :: -> anisotropic XC          0.045282412351 Eh    ::
         :: -> dispersion             -0.058572747722 Eh    ::
         :: repulsion energy           1.025541924501 Eh    ::
         :: add. restraining           0.000000000000 Eh    ::
         :: total charge              -0.000000000000 e     ::
         :::::::::::::::::::::::::::::::::::::::::::::::::::::

      ----------------------------------------------------------- 
     |                   =====================                   |
     |                        A N C O P T                        |
     |                   =====================                   |
     |               Approximate Normal Coordinate               |
     |                Rational Function Optimizer                |
      ----------------------------------------------------------- 
      ----------------------------------------------------------- 
     |                   =====================                   |
     |                        A N C O P T                        |
     |                   =====================                   |
     |               Approximate Normal Coordinate               |
     |                Rational Function Optimizer                |
      ----------------------------------------------------------- 

          ...................................................
          :                      SETUP                      :
          :.................................................:
          :   optimization level            normal          :
          :   max. optcycles                   200          :
          :   ANC micro-cycles                  20          :
          :   degrees of freedom               120          :
          :.................................................:
          :   RF solver                   davidson          :
          :   write xtbopt.log                true          :
          :   linear?                        false          :
          :   energy convergence         0.5000000E-05 Eh   :
          :   grad. convergence          0.1000000E-02 Eh/α :
          :   maxmium RF displ.          1.0000000          :
          :   Hlow (freq-cutoff)         0.1000000E-01      :
          :   Hmax (freq-cutoff)         5.0000000          :
          :   S6 in model hess.         20.0000000          :
          ...................................................

generating ANC from exact Hessian ...
Using Lindh-Hessian (1995)
 Shifting diagonal of input Hessian by    9.4137777700100470E-003
 Lowest  eigenvalues of input Hessian
    0.000000    0.000000    0.000000    0.000000    0.000000    0.000000
    0.010000    0.010039    0.010322    0.010363    0.010599    0.010749
    0.010936    0.011154    0.011808    0.015380    0.016223    0.016876
 Highest eigenvalues
    1.918487    1.920233    1.922677    1.929215    1.930319    2.051956


........................................................................
.............................. CYCLE    1 ..............................
........................................................................

 iter      E             dE          RMSdq      gap      omega  full diag
   1    -67.1710232 -0.671710E+02  0.290E-04    3.09       0.0  T
   2    -67.1710232 -0.455174E-09  0.238E-04    3.09      64.7  T
   3    -67.1710232 -0.265786E-09  0.181E-04    3.09      85.4  T
     SCC iter.                  ...        0 min,  0.008 sec
     gradient                   ...        0 min,  0.028 sec
 * total energy  :   -66.1438635 Eh     change       -0.3098947E-08 Eh
   gradient norm :     0.0528216 Eh/α   predicted     0.0000000E+00 (-100.00%)
   displ. norm   :     0.5104175 α      lambda       -0.1807530E-01
   maximum displ.:     0.2910480 α      in ANC's #20, #19, #62, ...

........................................................................
.............................. CYCLE    2 ..............................
........................................................................

 iter      E             dE          RMSdq      gap      omega  full diag
   1    -67.2459524 -0.672460E+02  0.185E-01    3.14       0.0  T
   2    -67.2460296 -0.771725E-04  0.126E-01    3.10       1.0  T
   3    -67.2459114  0.118205E-03  0.664E-02    3.13       1.0  T
   4    -67.2461269 -0.215534E-03  0.154E-02    3.12       1.0  T
   5    -67.2461352 -0.833842E-05  0.449E-03    3.11       3.4  T
   6    -67.2461354 -0.181391E-06  0.314E-03    3.11       4.9  T
   7    -67.2461355 -0.119345E-06  0.202E-03    3.11       7.6  T
   8    -67.2461356 -0.419985E-07  0.146E-03    3.11      10.5  T
   9    -67.2461356 -0.399496E-07  0.818E-04    3.11      18.9  T
  10    -67.2461356 -0.125542E-07  0.270E-04    3.11      57.1  T
     SCC iter.                  ...        0 min,  0.025 sec
     gradient                   ...        0 min,  0.068 sec
 * total energy  :   -66.1571272 Eh     change       -0.1326363E-01 Eh
   gradient norm :     0.0210640 Eh/α   predicted    -0.1139228E-01 ( -14.11%)
   displ. norm   :     0.5111360 α      lambda       -0.8001204E-02
   maximum displ.:     0.2957373 α      in ANC's #20, #19, #15, ...

........................................................................
.............................. CYCLE    3 ..............................
........................................................................

 iter      E             dE          RMSdq      gap      omega  full diag
   1    -67.2905873 -0.672906E+02  0.152E-01    3.13       0.0  T
   2    -67.2906750 -0.876810E-04  0.111E-01    3.09       1.0  T
   3    -67.2906750  0.647689E-07  0.540E-02    3.12       1.0  T
   4    -67.2907707 -0.957333E-04  0.170E-02    3.11       1.0  T
   5    -67.2907808 -0.100719E-04  0.366E-03    3.11       4.2  T
   6    -67.2907809 -0.161862E-06  0.238E-03    3.11       6.5  T
   7    -67.2907810 -0.541928E-07  0.143E-03    3.11      10.8  T
   8    -67.2907810 -0.176898E-07  0.997E-04    3.11      15.5  T
   9    -67.2907810 -0.146129E-07  0.519E-04    3.11      29.8  T
     SCC iter.                  ...        0 min,  0.022 sec
     gradient                   ...        0 min,  0.028 sec
 * total energy  :   -66.1620794 Eh     change       -0.4952267E-02 Eh
   gradient norm :     0.0093155 Eh/α   predicted    -0.5045799E-02 (   1.89%)
   displ. norm   :     0.2309497 α      lambda       -0.1125632E-02
   maximum displ.:     0.1164155 α      in ANC's #20, #19, #15, ...

........................................................................
.............................. CYCLE    4 ..............................
........................................................................

 iter      E             dE          RMSdq      gap      omega  full diag
   1    -67.2951463 -0.672951E+02  0.836E-02    3.12       0.0  T
   2    -67.2951561 -0.978988E-05  0.531E-02    3.11       1.0  T
   3    -67.2951215  0.346021E-04  0.265E-02    3.12       1.0  T
   4    -67.2951643 -0.428234E-04  0.538E-03    3.11       2.9  T
   5    -67.2951653 -0.106637E-05  0.186E-03    3.11       8.3  T
   6    -67.2951654 -0.212544E-07  0.141E-03    3.11      11.0  T
   7    -67.2951654 -0.245572E-07  0.843E-04    3.11      18.3  T
   8    -67.2951654 -0.842027E-08  0.545E-04    3.11      28.3  T
     SCC iter.                  ...        0 min,  0.020 sec
     gradient                   ...        0 min,  0.070 sec
 * total energy  :   -66.1627171 Eh     change       -0.6376523E-03 Eh
   gradient norm :     0.0055920 Eh/α   predicted    -0.5928367E-03 (  -7.03%)
   displ. norm   :     0.0953274 α      lambda       -0.1733283E-03
   maximum displ.:     0.0426991 α      in ANC's #3, #9, #8, ...

........................................................................
.............................. CYCLE    5 ..............................
........................................................................

 iter      E             dE          RMSdq      gap      omega  full diag
   1    -67.2943271 -0.672943E+02  0.377E-02    3.11       0.0  T
   2    -67.2943276 -0.513509E-06  0.220E-02    3.11       1.0  T
   3    -67.2943271  0.509905E-06  0.424E-03    3.11       3.6  T
   4    -67.2943278 -0.679229E-06  0.117E-03    3.11      13.1  T
   5    -67.2943278 -0.175531E-07  0.698E-04    3.11      22.1  T
   6    -67.2943278 -0.318863E-08  0.418E-04    3.11      36.9  T
     SCC iter.                  ...        0 min,  0.015 sec
     gradient                   ...        0 min,  0.080 sec
 * total energy  :   -66.1628303 Eh     change       -0.1132343E-03 Eh
   gradient norm :     0.0029578 Eh/α   predicted    -0.8746883E-04 ( -22.75%)
   displ. norm   :     0.1084392 α      lambda       -0.9042624E-04
   maximum displ.:     0.0628371 α      in ANC's #3, #9, #8, ...

........................................................................
.............................. CYCLE    6 ..............................
........................................................................

 iter      E             dE          RMSdq      gap      omega  full diag
   1    -67.2929433 -0.672929E+02  0.360E-02    3.12       0.0  T
   2    -67.2929437 -0.399903E-06  0.212E-02    3.12       1.0  T
   3    -67.2929403  0.341966E-05  0.773E-03    3.11       2.0  T
   4    -67.2929441 -0.388167E-05  0.113E-03    3.12      13.7  T
   5    -67.2929442 -0.225494E-07  0.693E-04    3.12      22.3  T
   6    -67.2929442 -0.401864E-08  0.387E-04    3.12      39.9  T
     SCC iter.                  ...        0 min,  0.015 sec
     gradient                   ...        0 min,  0.081 sec
 * total energy  :   -66.1628936 Eh     change       -0.6325094E-04 Eh
   gradient norm :     0.0018896 Eh/α   predicted    -0.4577501E-04 ( -27.63%)
   displ. norm   :     0.1857800 α      lambda       -0.6246453E-04
   maximum displ.:     0.1165795 α      in ANC's #3, #9, #4, ...

........................................................................
.............................. CYCLE    7 ..............................
........................................................................

 iter      E             dE          RMSdq      gap      omega  full diag
   1    -67.2921976 -0.672922E+02  0.595E-02    3.12       0.0  T
   2    -67.2921985 -0.841915E-06  0.348E-02    3.12       1.0  T
   3    -67.2921933  0.514746E-05  0.998E-03    3.12       1.5  T
   4    -67.2921992 -0.588584E-05  0.159E-03    3.12       9.7  T
   5    -67.2921992 -0.345142E-07  0.965E-04    3.12      16.0  T
   6    -67.2921992 -0.602999E-08  0.558E-04    3.12      27.6  T
     SCC iter.                  ...        0 min,  0.015 sec
     gradient                   ...        0 min,  0.080 sec
 * total energy  :   -66.1629595 Eh     change       -0.6592409E-04 Eh
   gradient norm :     0.0033007 Eh/α   predicted    -0.3171524E-04 ( -51.89%)
   displ. norm   :     0.1128973 α      lambda       -0.5460385E-04
   maximum displ.:     0.0771968 α      in ANC's #3, #4, #9, ...

........................................................................
.............................. CYCLE    8 ..............................
........................................................................

 iter      E             dE          RMSdq      gap      omega  full diag
   1    -67.2927334 -0.672927E+02  0.377E-02    3.12       0.0  T
   2    -67.2927336 -0.200081E-06  0.220E-02    3.12       1.0  T
   3    -67.2927331  0.462515E-06  0.375E-03    3.12       4.1  T
   4    -67.2927337 -0.587100E-06  0.795E-04    3.12      19.4  T
   5    -67.2927337 -0.272009E-08  0.476E-04    3.12      32.4  T
     SCC iter.                  ...        0 min,  0.012 sec
     gradient                   ...        0 min,  0.081 sec
 * total energy  :   -66.1630081 Eh     change       -0.4855472E-04 Eh
   gradient norm :     0.0026759 Eh/α   predicted    -0.2765081E-04 ( -43.05%)
   displ. norm   :     0.1705387 α      lambda       -0.7859626E-04
   maximum displ.:     0.1197400 α      in ANC's #3, #4, #9, ...

........................................................................
.............................. CYCLE    9 ..............................
........................................................................

 iter      E             dE          RMSdq      gap      omega  full diag
   1    -67.2933683 -0.672934E+02  0.575E-02    3.12       0.0  T
   2    -67.2933687 -0.421353E-06  0.336E-02    3.12       1.0  T
   3    -67.2933675  0.115121E-05  0.525E-03    3.12       2.9  T
   4    -67.2933690 -0.142359E-05  0.123E-03    3.12      12.6  T
   5    -67.2933690 -0.674630E-08  0.830E-04    3.12      18.6  T
   6    -67.2933690 -0.120645E-07  0.455E-04    3.12      33.9  T
     SCC iter.                  ...        0 min,  0.015 sec
     gradient                   ...        0 min,  0.074 sec
 * total energy  :   -66.1630735 Eh     change       -0.6540538E-04 Eh
   gradient norm :     0.0015285 Eh/α   predicted    -0.4044182E-04 ( -38.17%)
   displ. norm   :     0.2648564 α      lambda       -0.6276922E-04
   maximum displ.:     0.1933496 α      in ANC's #3, #4, #1, ...

........................................................................
.............................. CYCLE   10 ..............................
........................................................................

 iter      E             dE          RMSdq      gap      omega  full diag
   1    -67.2935970 -0.672936E+02  0.898E-02    3.12       0.0  T
   2    -67.2935978 -0.795422E-06  0.525E-02    3.12       1.0  T
   3    -67.2935959  0.185170E-05  0.660E-03    3.12       2.3  T
   4    -67.2935983 -0.237187E-05  0.190E-03    3.12       8.1  T
   5    -67.2935983 -0.180981E-07  0.133E-03    3.12      11.6  T
   6    -67.2935983 -0.291975E-07  0.783E-04    3.12      19.7  T
   7    -67.2935983 -0.650807E-08  0.578E-04    3.12      26.7  T
     SCC iter.                  ...        0 min,  0.017 sec
     gradient                   ...        0 min,  0.072 sec
 * total energy  :   -66.1631464 Eh     change       -0.7290955E-04 Eh
   gradient norm :     0.0022457 Eh/α   predicted    -0.3236348E-04 ( -55.61%)
   displ. norm   :     0.1081153 α      lambda       -0.3520101E-04
   maximum displ.:     0.0837822 α      in ANC's #3, #4, #1, ...

........................................................................
.............................. CYCLE   11 ..............................
........................................................................

 iter      E             dE          RMSdq      gap      omega  full diag
   1    -67.2938725 -0.672939E+02  0.370E-02    3.12       0.0  T
   2    -67.2938726 -0.119786E-06  0.216E-02    3.12       1.0  T
   3    -67.2938725  0.957133E-07  0.208E-03    3.12       7.4  T
   4    -67.2938727 -0.164137E-06  0.804E-04    3.12      19.2  T
   5    -67.2938727 -0.421717E-08  0.559E-04    3.12      27.6  T
     SCC iter.                  ...        0 min,  0.012 sec
     gradient                   ...        0 min,  0.074 sec
 * total energy  :   -66.1631789 Eh     change       -0.3249756E-04 Eh
   gradient norm :     0.0020143 Eh/α   predicted    -0.1780653E-04 ( -45.21%)
   displ. norm   :     0.1063622 α      lambda       -0.3926286E-04
   maximum displ.:     0.0825282 α      in ANC's #3, #4, #1, ...

........................................................................
.............................. CYCLE   12 ..............................
........................................................................

 iter      E             dE          RMSdq      gap      omega  full diag
   1    -67.2940538 -0.672941E+02  0.376E-02    3.12       0.0  T
   2    -67.2940539 -0.127814E-06  0.221E-02    3.12       1.0  T
   3    -67.2940536  0.318480E-06  0.283E-03    3.12       5.5  T
   4    -67.2940540 -0.400166E-06  0.759E-04    3.12      20.3  T
   5    -67.2940540 -0.530214E-08  0.568E-04    3.12      27.2  T
     SCC iter.                  ...        0 min,  0.012 sec
     gradient                   ...        0 min,  0.081 sec
 * total energy  :   -66.1632143 Eh     change       -0.3545820E-04 Eh
   gradient norm :     0.0012275 Eh/α   predicted    -0.1985522E-04 ( -44.00%)
   displ. norm   :     0.1898387 α      lambda       -0.4210925E-04
   maximum displ.:     0.1465655 α      in ANC's #3, #4, #5, ...

........................................................................
.............................. CYCLE   13 ..............................
........................................................................

 iter      E             dE          RMSdq      gap      omega  full diag
   1    -67.2936728 -0.672937E+02  0.680E-02    3.12       0.0  T
   2    -67.2936731 -0.307268E-06  0.398E-02    3.12       1.0  T
   3    -67.2936725  0.629378E-06  0.414E-03    3.12       3.7  T
   4    -67.2936733 -0.834189E-06  0.111E-03    3.12      13.9  T
   5    -67.2936733 -0.694760E-08  0.798E-04    3.12      19.3  T
   6    -67.2936733 -0.665797E-08  0.521E-04    3.12      29.6  T
     SCC iter.                  ...        0 min,  0.015 sec
     gradient                   ...        0 min,  0.080 sec
 * total energy  :   -66.1632657 Eh     change       -0.5135240E-04 Eh
   gradient norm :     0.0010657 Eh/α   predicted    -0.2139487E-04 ( -58.34%)
   displ. norm   :     0.1490701 α      lambda       -0.2591396E-04
   maximum displ.:     0.1184381 α      in ANC's #3, #4, #2, ...

........................................................................
.............................. CYCLE   14 ..............................
........................................................................

 iter      E             dE          RMSdq      gap      omega  full diag
   1    -67.2935234 -0.672935E+02  0.546E-02    3.12       0.0  T
   2    -67.2935236 -0.157676E-06  0.320E-02    3.12       1.0  T
   3    -67.2935234  0.244023E-06  0.253E-03    3.12       6.1  T
   4    -67.2935237 -0.349671E-06  0.813E-04    3.12      19.0  T
   5    -67.2935237 -0.210592E-08  0.550E-04    3.12      28.1  T
     SCC iter.                  ...        0 min,  0.012 sec
     gradient                   ...        0 min,  0.075 sec
 * total energy  :   -66.1632998 Eh     change       -0.3414874E-04 Eh
   gradient norm :     0.0012983 Eh/α   predicted    -0.1308845E-04 ( -61.67%)
   displ. norm   :     0.1340184 α      lambda       -0.2396284E-04
   maximum displ.:     0.1065994 α      in ANC's #3, #4, #2, ...

........................................................................
.............................. CYCLE   15 ..............................
........................................................................

 iter      E             dE          RMSdq      gap      omega  full diag
   1    -67.2935932 -0.672936E+02  0.493E-02    3.13       0.0  T
   2    -67.2935934 -0.138658E-06  0.289E-02    3.13       1.0  T
   3    -67.2935934 -0.721671E-08  0.147E-03    3.13      10.5  T
   4    -67.2935935 -0.617033E-07  0.704E-04    3.13      21.9  T
   5    -67.2935935 -0.272794E-08  0.455E-04    3.13      33.9  T
     SCC iter.                  ...        0 min,  0.012 sec
     gradient                   ...        0 min,  0.072 sec
 * total energy  :   -66.1633332 Eh     change       -0.3334235E-04 Eh
   gradient norm :     0.0010609 Eh/α   predicted    -0.1207989E-04 ( -63.77%)
   displ. norm   :     0.1703390 α      lambda       -0.3242331E-04
   maximum displ.:     0.1327839 α      in ANC's #3, #4, #2, ...

........................................................................
.............................. CYCLE   16 ..............................
........................................................................

 iter      E             dE          RMSdq      gap      omega  full diag
   1    -67.2936126 -0.672936E+02  0.615E-02    3.13       0.0  T
   2    -67.2936129 -0.240686E-06  0.360E-02    3.13       1.0  T
   3    -67.2936129  0.219630E-07  0.212E-03    3.13       7.3  T
   4    -67.2936130 -0.133043E-06  0.859E-04    3.13      18.0  T
   5    -67.2936130 -0.440258E-08  0.517E-04    3.13      29.9  T
     SCC iter.                  ...        0 min,  0.012 sec
     gradient                   ...        0 min,  0.074 sec
 * total energy  :   -66.1633791 Eh     change       -0.4592842E-04 Eh
   gradient norm :     0.0008590 Eh/α   predicted    -0.1642449E-04 ( -64.24%)
   displ. norm   :     0.2621098 α      lambda       -0.4973432E-04
   maximum displ.:     0.1997183 α      in ANC's #3, #2, #4, ...

........................................................................
.............................. CYCLE   17 ..............................
........................................................................

 iter      E             dE          RMSdq      gap      omega  full diag
   1    -67.2932728 -0.672933E+02  0.931E-02    3.13       0.0  T
   2    -67.2932733 -0.567807E-06  0.545E-02    3.13       1.0  T
   3    -67.2932734 -0.860447E-07  0.259E-03    3.13       6.0  T
   4    -67.2932736 -0.165749E-06  0.131E-03    3.13      11.8  T
   5    -67.2932736 -0.129171E-07  0.721E-04    3.13      21.4  T
   6    -67.2932736 -0.451979E-08  0.477E-04    3.13      32.4  T
     SCC iter.                  ...        0 min,  0.015 sec
     gradient                   ...        0 min,  0.081 sec
 * total energy  :   -66.1634479 Eh     change       -0.6884834E-04 Eh
   gradient norm :     0.0013551 Eh/α   predicted    -0.2562714E-04 ( -62.78%)
   displ. norm   :     0.3915082 α      lambda       -0.6997133E-04
   maximum displ.:     0.2958791 α      in ANC's #3, #2, #1, ...

........................................................................
.............................. CYCLE   18 ..............................
........................................................................

 iter      E             dE          RMSdq      gap      omega  full diag
   1    -67.2924815 -0.672925E+02  0.137E-01    3.14       0.0  T
   2    -67.2924827 -0.123688E-05  0.801E-02    3.14       1.0  T
   3    -67.2924827  0.692850E-08  0.420E-03    3.13       3.7  T
   4    -67.2924833 -0.589564E-06  0.213E-03    3.14       7.3  T
   5    -67.2924833 -0.378766E-07  0.118E-03    3.14      13.0  T
   6    -67.2924833 -0.123437E-07  0.868E-04    3.14      17.8  T
   7    -67.2924833 -0.100920E-07  0.638E-04    3.14      24.2  T
     SCC iter.                  ...        0 min,  0.017 sec
     gradient                   ...        0 min,  0.068 sec
 * total energy  :   -66.1635392 Eh     change       -0.9124297E-04 Eh
   gradient norm :     0.0018827 Eh/α   predicted    -0.3737036E-04 ( -59.04%)
   displ. norm   :     0.5818694 α      lambda       -0.8993848E-04
   maximum displ.:     0.4423059 α      in ANC's #3, #2, #1, ...

........................................................................
.............................. CYCLE   19 ..............................
........................................................................

 iter      E             dE          RMSdq      gap      omega  full diag
   1    -67.2905192 -0.672905E+02  0.203E-01    3.14       0.0  T
   2    -67.2905222 -0.300236E-05  0.119E-01    3.14       1.0  T
   3    -67.2905216  0.639286E-06  0.724E-03    3.14       2.1  T
   4    -67.2905236 -0.200366E-05  0.323E-03    3.14       4.8  T
   5    -67.2905237 -0.944295E-07  0.192E-03    3.14       8.1  T
   6    -67.2905237 -0.332766E-07  0.134E-03    3.14      11.5  T
   7    -67.2905237 -0.221578E-07  0.102E-03    3.14      15.2  T
   8    -67.2905238 -0.175021E-07  0.530E-04    3.14      29.1  T
   9    -67.2905238 -0.613983E-08  0.242E-04    3.14      63.8  T
     SCC iter.                  ...        0 min,  0.022 sec
     gradient                   ...        0 min,  0.074 sec
 * total energy  :   -66.1636399 Eh     change       -0.1006827E-03 Eh
   gradient norm :     0.0034900 Eh/α   predicted    -0.5173836E-04 ( -48.61%)
   displ. norm   :     0.4340125 α      lambda       -0.8525473E-04
   maximum displ.:     0.3346022 α      in ANC's #3, #2, #1, ...

........................................................................
.............................. CYCLE   20 ..............................
........................................................................

 iter      E             dE          RMSdq      gap      omega  full diag
   1    -67.2899434 -0.672899E+02  0.151E-01    3.14       0.0  T
   2    -67.2899448 -0.148340E-05  0.884E-02    3.14       1.0  T
   3    -67.2899443  0.561246E-06  0.565E-03    3.14       2.7  T
   4    -67.2899456 -0.132341E-05  0.224E-03    3.14       6.9  T
   5    -67.2899456 -0.323969E-07  0.118E-03    3.14      13.1  T
   6    -67.2899457 -0.122137E-07  0.899E-04    3.14      17.2  T
   7    -67.2899457 -0.103812E-07  0.642E-04    3.14      24.0  T
     SCC iter.                  ...        0 min,  0.068 sec
     gradient                   ...        0 min,  0.029 sec
 * total energy  :   -66.1637011 Eh     change       -0.6127088E-04 Eh
   gradient norm :     0.0036537 Eh/α   predicted    -0.5065878E-04 ( -17.32%)
   displ. norm   :     0.3670320 α      lambda       -0.7468864E-04
   maximum displ.:     0.2878668 α      in ANC's #3, #2, #1, ...
 * RMSD in coord.:     0.5689030 α      energy gain  -0.1983760E-01 Eh

generating ANC from exact Hessian ...
Using Lindh-Hessian (1995)
 Shifting diagonal of input Hessian by    9.2620044272655570E-003
 Lowest  eigenvalues of input Hessian
    0.000000    0.000000    0.000000    0.000000    0.000000    0.000000
    0.010000    0.010013    0.010406    0.010491    0.010548    0.010764
    0.011021    0.011110    0.012223    0.016293    0.016918    0.017738
 Highest eigenvalues
    2.000968    2.015736    2.018743    2.024401    2.040062    2.188258


........................................................................
.............................. CYCLE   21 ..............................
........................................................................

 iter      E             dE          RMSdq      gap      omega  full diag
   1    -67.2917497 -0.672917E+02  0.126E-01    3.15       0.0  T
   2    -67.2917508 -0.110462E-05  0.738E-02    3.14       1.0  T
   3    -67.2917506  0.209283E-06  0.442E-03    3.14       3.5  T
   4    -67.2917513 -0.726733E-06  0.177E-03    3.14       8.7  T
   5    -67.2917514 -0.180904E-07  0.884E-04    3.14      17.5  T
   6    -67.2917514 -0.744865E-08  0.645E-04    3.14      23.9  T
     SCC iter.                  ...        0 min,  0.015 sec
     gradient                   ...        0 min,  0.081 sec
 * total energy  :   -66.1637567 Eh     change       -0.5551164E-04 Eh
   gradient norm :     0.0022837 Eh/α   predicted     0.0000000E+00 (-100.00%)
   displ. norm   :     0.0252425 α      lambda       -0.1719658E-04
   maximum displ.:     0.0110950 α      in ANC's #4, #2, #3, ...

........................................................................
.............................. CYCLE   22 ..............................
........................................................................

 iter      E             dE          RMSdq      gap      omega  full diag
   1    -67.2934563 -0.672935E+02  0.951E-03    3.14       0.0  T
   2    -67.2934564 -0.466809E-07  0.563E-03    3.14       2.7  T
   3    -67.2934563  0.112363E-06  0.196E-03    3.14       7.9  T
   4    -67.2934564 -0.138488E-06  0.302E-04    3.14      51.1  T
   5    -67.2934564 -0.109121E-08  0.210E-04    3.14      73.3  T
     SCC iter.                  ...        0 min,  0.012 sec
     gradient                   ...        0 min,  0.074 sec
 * total energy  :   -66.1637696 Eh     change       -0.1291409E-04 Eh
   gradient norm :     0.0008682 Eh/α   predicted    -0.8904113E-05 ( -31.05%)
   displ. norm   :     0.0749552 α      lambda       -0.1452950E-04
   maximum displ.:     0.0358848 α      in ANC's #3, #4, #2, ...

........................................................................
.............................. CYCLE   23 ..............................
........................................................................

 iter      E             dE          RMSdq      gap      omega  full diag
   1    -67.2952813 -0.672953E+02  0.240E-02    3.15       0.0  T
   2    -67.2952815 -0.178866E-06  0.142E-02    3.15       1.1  T
   3    -67.2952811  0.465822E-06  0.394E-03    3.15       3.9  T
   4    -67.2952816 -0.576299E-06  0.864E-04    3.15      17.9  T
   5    -67.2952816 -0.550058E-08  0.664E-04    3.15      23.2  T
     SCC iter.                  ...        0 min,  0.012 sec
     gradient                   ...        0 min,  0.074 sec
 * total energy  :   -66.1637829 Eh     change       -0.1336521E-04 Eh
   gradient norm :     0.0015044 Eh/α   predicted    -0.7283268E-05 ( -45.51%)
   displ. norm   :     0.0734171 α      lambda       -0.9968831E-05
   maximum displ.:     0.0389218 α      in ANC's #3, #4, #6, ...

........................................................................
.............................. CYCLE   24 ..............................
........................................................................

 iter      E             dE          RMSdq      gap      omega  full diag
   1    -67.2948745 -0.672949E+02  0.230E-02    3.15       0.0  T
   2    -67.2948746 -0.738039E-07  0.135E-02    3.15       1.1  T
   3    -67.2948746  0.638505E-07  0.172E-03    3.15       9.0  T
   4    -67.2948747 -0.100407E-06  0.541E-04    3.15      28.5  T
   5    -67.2948747 -0.173186E-08  0.353E-04    3.15      43.7  T
     SCC iter.                  ...        0 min,  0.012 sec
     gradient                   ...        0 min,  0.074 sec
 * total energy  :   -66.1637961 Eh     change       -0.1315078E-04 Eh
   gradient norm :     0.0014409 Eh/α   predicted    -0.5047730E-05 ( -61.62%)
   displ. norm   :     0.1491177 α      lambda       -0.1862894E-04
   maximum displ.:     0.0796079 α      in ANC's #3, #4, #6, ...

........................................................................
.............................. CYCLE   25 ..............................
........................................................................

 iter      E             dE          RMSdq      gap      omega  full diag
   1    -67.2935588 -0.672936E+02  0.477E-02    3.14       0.0  T
   2    -67.2935590 -0.217629E-06  0.279E-02    3.14       1.0  T
   3    -67.2935590  0.475276E-07  0.217E-03    3.14       7.1  T
   4    -67.2935591 -0.157974E-06  0.881E-04    3.14      17.5  T
   5    -67.2935591 -0.334043E-08  0.493E-04    3.14      31.3  T
     SCC iter.                  ...        0 min,  0.012 sec
     gradient                   ...        0 min,  0.074 sec
 * total energy  :   -66.1638162 Eh     change       -0.2011351E-04 Eh
   gradient norm :     0.0010745 Eh/α   predicted    -0.9407208E-05 ( -53.23%)
   displ. norm   :     0.1343139 α      lambda       -0.1080984E-04
   maximum displ.:     0.0753834 α      in ANC's #3, #4, #6, ...

........................................................................
.............................. CYCLE   26 ..............................
........................................................................

 iter      E             dE          RMSdq      gap      omega  full diag
   1    -67.2929140 -0.672929E+02  0.440E-02    3.14       0.0  T
   2    -67.2929142 -0.244403E-06  0.256E-02    3.14       1.0  T
   3    -67.2929142  0.732432E-07  0.257E-03    3.14       6.0  T
   4    -67.2929144 -0.206482E-06  0.116E-03    3.14      13.3  T
   5    -67.2929144 -0.801353E-08  0.740E-04    3.14      20.8  T
   6    -67.2929144 -0.644943E-08  0.525E-04    3.14      29.4  T
     SCC iter.                  ...        0 min,  0.015 sec
     gradient                   ...        0 min,  0.081 sec
 * total energy  :   -66.1638271 Eh     change       -0.1089866E-04 Eh
   gradient norm :     0.0011181 Eh/α   predicted    -0.5448870E-05 ( -50.00%)
   displ. norm   :     0.1330028 α      lambda        0.2520744E-05
   maximum displ.:     0.0746349 α      in ANC's #3, #4, #6, ...

........................................................................
.............................. CYCLE   27 ..............................
........................................................................

 iter      E             dE          RMSdq      gap      omega  full diag
   1    -67.2919937 -0.672920E+02  0.436E-02    3.14       0.0  T
   2    -67.2919940 -0.251289E-06  0.254E-02    3.14       1.0  T
   3    -67.2919939  0.833790E-07  0.261E-03    3.14       5.9  T
   4    -67.2919941 -0.217191E-06  0.119E-03    3.14      13.0  T
   5    -67.2919941 -0.863643E-08  0.801E-04    3.14      19.3  T
   6    -67.2919941 -0.752563E-08  0.552E-04    3.14      27.9  T
     SCC iter.                  ...        0 min,  0.015 sec
     gradient                   ...        0 min,  0.074 sec
 * total energy  :   -66.1638265 Eh     change        0.6270717E-06 Eh
   gradient norm :     0.0019870 Eh/α   predicted     0.1269886E-05 ( 102.51%)
   displ. norm   :     0.0219881 α      lambda       -0.8874155E-05
   maximum displ.:     0.0128781 α      in ANC's #2, #7, #8, ...

........................................................................
.............................. CYCLE   28 ..............................
........................................................................

 iter      E             dE          RMSdq      gap      omega  full diag
   1    -67.2929548 -0.672930E+02  0.774E-03    3.14       0.0  T
   2    -67.2929549 -0.262920E-07  0.451E-03    3.14       3.4  T
   3    -67.2929548  0.193613E-07  0.879E-04    3.14      17.6  T
   4    -67.2929549 -0.283259E-07  0.277E-04    3.14      55.8  T
     SCC iter.                  ...        0 min,  0.010 sec
     gradient                   ...        0 min,  0.081 sec
 * total energy  :   -66.1638357 Eh     change       -0.9217195E-05 Eh
   gradient norm :     0.0008747 Eh/α   predicted    -0.4460817E-05 ( -51.60%)
   displ. norm   :     0.0536664 α      lambda       -0.7059185E-05
   maximum displ.:     0.0274888 α      in ANC's #3, #4, #8, ...

........................................................................
.............................. CYCLE   29 ..............................
........................................................................

 iter      E             dE          RMSdq      gap      omega  full diag
   1    -67.2939578 -0.672940E+02  0.191E-02    3.14       0.0  T
   2    -67.2939578 -0.501454E-07  0.112E-02    3.14       1.4  T
   3    -67.2939578  0.437881E-07  0.128E-03    3.14      12.1  T
   4    -67.2939578 -0.628642E-07  0.425E-04    3.14      36.3  T
   5    -67.2939578 -0.197515E-08  0.281E-04    3.14      55.0  T
     SCC iter.                  ...        0 min,  0.012 sec
     gradient                   ...        0 min,  0.086 sec
 * total energy  :   -66.1638440 Eh     change       -0.8299440E-05 Eh
   gradient norm :     0.0004746 Eh/α   predicted    -0.3536347E-05 ( -57.39%)
   displ. norm   :     0.1378947 α      lambda       -0.1026439E-04
   maximum displ.:     0.0797536 α      in ANC's #3, #4, #8, ...

........................................................................
.............................. CYCLE   30 ..............................
........................................................................

 iter      E             dE          RMSdq      gap      omega  full diag
   1    -67.2945308 -0.672945E+02  0.498E-02    3.14       0.0  T
   2    -67.2945310 -0.224094E-06  0.291E-02    3.14       1.0  T
   3    -67.2945309  0.636732E-07  0.221E-03    3.14       7.0  T
   4    -67.2945311 -0.166833E-06  0.905E-04    3.14      17.0  T
   5    -67.2945311 -0.539484E-08  0.533E-04    3.14      28.9  T
     SCC iter.                  ...        0 min,  0.069 sec
     gradient                   ...        0 min,  0.030 sec
 * total energy  :   -66.1638564 Eh     change       -0.1240688E-04 Eh
   gradient norm :     0.0011410 Eh/α   predicted    -0.5175942E-05 ( -58.28%)
   displ. norm   :     0.2081023 α      lambda       -0.1334551E-04
   maximum displ.:     0.1211239 α      in ANC's #3, #4, #8, ...

........................................................................
.............................. CYCLE   31 ..............................
........................................................................

 iter      E             dE          RMSdq      gap      omega  full diag
   1    -67.2943818 -0.672944E+02  0.751E-02    3.14       0.0  T
   2    -67.2943823 -0.451410E-06  0.439E-02    3.14       1.0  T
   3    -67.2943823 -0.133567E-07  0.261E-03    3.14       5.9  T
   4    -67.2943825 -0.197687E-06  0.132E-03    3.14      11.7  T
   5    -67.2943825 -0.130867E-07  0.755E-04    3.14      20.4  T
   6    -67.2943825 -0.534780E-08  0.564E-04    3.14      27.4  T
     SCC iter.                  ...        0 min,  0.072 sec
     gradient                   ...        0 min,  0.090 sec
 * total energy  :   -66.1638730 Eh     change       -0.1656669E-04 Eh
   gradient norm :     0.0013589 Eh/α   predicted    -0.6804026E-05 ( -58.93%)
   displ. norm   :     0.2279335 α      lambda       -0.1416878E-04
   maximum displ.:     0.1312704 α      in ANC's #3, #4, #8, ...

........................................................................
.............................. CYCLE   32 ..............................
........................................................................

 iter      E             dE          RMSdq      gap      omega  full diag
   1    -67.2935333 -0.672935E+02  0.823E-02    3.14       0.0  T
   2    -67.2935337 -0.479335E-06  0.481E-02    3.14       1.0  T
   3    -67.2935337  0.406639E-07  0.279E-03    3.14       5.5  T
   4    -67.2935340 -0.264529E-06  0.127E-03    3.14      12.2  T
   5    -67.2935340 -0.931631E-08  0.752E-04    3.14      20.5  T
   6    -67.2935340 -0.853127E-08  0.508E-04    3.14      30.4  T
     SCC iter.                  ...        0 min,  0.015 sec
     gradient                   ...        0 min,  0.087 sec
 * total energy  :   -66.1638903 Eh     change       -0.1738997E-04 Eh
   gradient norm :     0.0009986 Eh/α   predicted    -0.7249820E-05 ( -58.31%)
   displ. norm   :     0.2243459 α      lambda       -0.1413904E-04
   maximum displ.:     0.1286336 α      in ANC's #3, #4, #2, ...

........................................................................
.............................. CYCLE   33 ..............................
........................................................................

 iter      E             dE          RMSdq      gap      omega  full diag
   1    -67.2927140 -0.672927E+02  0.802E-02    3.14       0.0  T
   2    -67.2927144 -0.401993E-06  0.470E-02    3.14       1.0  T
   3    -67.2927143  0.830680E-07  0.294E-03    3.14       5.2  T
   4    -67.2927146 -0.285936E-06  0.114E-03    3.14      13.6  T
   5    -67.2927146 -0.506604E-08  0.646E-04    3.14      23.9  T
   6    -67.2927146 -0.480470E-08  0.459E-04    3.14      33.6  T
     SCC iter.                  ...        0 min,  0.015 sec
     gradient                   ...        0 min,  0.081 sec
 * total energy  :   -66.1639072 Eh     change       -0.1688772E-04 Eh
   gradient norm :     0.0009209 Eh/α   predicted    -0.7231119E-05 ( -57.18%)
   displ. norm   :     0.2114079 α      lambda       -0.1333023E-04
   maximum displ.:     0.1182010 α      in ANC's #3, #4, #2, ...

........................................................................
.............................. CYCLE   34 ..............................
........................................................................

 iter      E             dE          RMSdq      gap      omega  full diag
   1    -67.2922759 -0.672923E+02  0.747E-02    3.14       0.0  T
   2    -67.2922762 -0.332372E-06  0.438E-02    3.14       1.0  T
   3    -67.2922759  0.247227E-06  0.340E-03    3.14       4.5  T
   4    -67.2922764 -0.418812E-06  0.858E-04    3.14      18.0  T
   5    -67.2922764 -0.901920E-09  0.473E-04    3.14      32.6  T
     SCC iter.                  ...        0 min,  0.069 sec
     gradient                   ...        0 min,  0.030 sec
 * total energy  :   -66.1639230 Eh     change       -0.1578551E-04 Eh
   gradient norm :     0.0012984 Eh/α   predicted    -0.6801167E-05 ( -56.92%)
   displ. norm   :     0.1489321 α      lambda       -0.1158101E-04
   maximum displ.:     0.0753736 α      in ANC's #3, #2, #4, ...

........................................................................
.............................. CYCLE   35 ..............................
........................................................................

 iter      E             dE          RMSdq      gap      omega  full diag
   1    -67.2928737 -0.672929E+02  0.502E-02    3.14       0.0  T
   2    -67.2928739 -0.141945E-06  0.294E-02    3.14       1.0  T
   3    -67.2928737  0.206594E-06  0.270E-03    3.14       5.7  T
   4    -67.2928739 -0.288924E-06  0.526E-04    3.14      29.3  T
   5    -67.2928739  0.152369E-09  0.309E-04    3.14      49.9  T
     SCC iter.                  ...        0 min,  0.063 sec
     gradient                   ...        0 min,  0.029 sec
 * total energy  :   -66.1639364 Eh     change       -0.1339506E-04 Eh
   gradient norm :     0.0011914 Eh/α   predicted    -0.5849527E-05 ( -56.33%)
   displ. norm   :     0.1662182 α      lambda       -0.9081677E-05
   maximum displ.:     0.0851711 α      in ANC's #3, #4, #2, ...

........................................................................
.............................. CYCLE   36 ..............................
........................................................................

 iter      E             dE          RMSdq      gap      omega  full diag
   1    -67.2927070 -0.672927E+02  0.565E-02    3.15       0.0  T
   2    -67.2927072 -0.213014E-06  0.331E-02    3.15       1.0  T
   3    -67.2927069  0.296193E-06  0.292E-03    3.14       5.3  T
   4    -67.2927073 -0.410108E-06  0.665E-04    3.14      23.2  T
   5    -67.2927074 -0.163875E-08  0.392E-04    3.14      39.3  T
     SCC iter.                  ...        0 min,  0.012 sec
     gradient                   ...        0 min,  0.086 sec
 * total energy  :   -66.1639458 Eh     change       -0.9344867E-05 Eh
   gradient norm :     0.0010763 Eh/α   predicted    -0.4599029E-05 ( -50.79%)
   displ. norm   :     0.0983380 α      lambda       -0.5121059E-05
   maximum displ.:     0.0555175 α      in ANC's #2, #1, #3, ...

........................................................................
.............................. CYCLE   37 ..............................
........................................................................

 iter      E             dE          RMSdq      gap      omega  full diag
   1    -67.2935152 -0.672935E+02  0.312E-02    3.15       0.0  T
   2    -67.2935153 -0.851578E-07  0.183E-02    3.15       1.0  T
   3    -67.2935151  0.174184E-06  0.212E-03    3.15       7.3  T
   4    -67.2935153 -0.224736E-06  0.552E-04    3.15      28.0  T
   5    -67.2935153 -0.117028E-08  0.374E-04    3.15      41.2  T
     SCC iter.                  ...        0 min,  0.012 sec
     gradient                   ...        0 min,  0.081 sec
 * total energy  :   -66.1639506 Eh     change       -0.4857463E-05 Eh
   gradient norm :     0.0004898 Eh/α   predicted    -0.2573125E-05 ( -47.03%)
   displ. norm   :     0.0758601 α      lambda       -0.2161352E-05
   maximum displ.:     0.0391477 α      in ANC's #3, #2, #4, ...

   *** GEOMETRY OPTIMIZATION CONVERGED AFTER 37 ITERATIONS ***

------------------------------------------------------------------------
 total energy gain   :        -0.0200871 Eh      -12.6048 kcal/mol
 total RMSD          :         0.8377370 a0        0.4433 Å
 total power (kW/mol):        -1.4253682 (step)  -13.0215 (real)
------------------------------------------------------------------------

 ANCopt (total)                0 d,  0 h,  0 min,  4.050 sec
 optimizer setup                ...        0 min,  0.000 sec (  0.002%)
 model hessian                  ...        0 min,  0.129 sec (  3.182%)
 ANC generation                 ...        0 min,  0.003 sec (  0.074%)
 coordinate transformation      ...        0 min,  0.000 sec (  0.006%)
 single point calculation       ...        0 min,  3.871 sec ( 95.587%)
 optimization log               ...        0 min,  0.005 sec (  0.123%)
 hessian update                 ...        0 min,  0.000 sec (  0.012%)
 rational function              ...        0 min,  0.002 sec (  0.053%)

================
 final structure:
================
42
 xtb: 6.7.1 (edcfbbe)
Cl           1.24016783611763        2.84874624584660        0.75588740053084
C           -0.31396668610663        2.53639418922885        0.05475828122311
C           -0.79710150774635        1.23500983472958       -0.10659261618848
C            0.05059603081839        0.02893498935112        0.29895260532549
C            1.37904763110108        0.15877888343475       -0.44398145561037
C            2.61544096332884        0.01924794921707        0.16921425078013
C            3.78180576180688        0.15232704723035       -0.56549045217331
C            3.73088950434265        0.42556639109286       -1.91992044634372
C            2.50105489690087        0.57176554288789       -2.53909052812408
C            1.33580450953438        0.44096820329813       -1.80743066836980
C           -0.64384256575102       -1.29419792013166       -0.03664150957938
C           -1.75789064402980       -1.65677197334257        0.71902779992506
C           -2.40850722275658       -2.85364732243546        0.49028917537573
C           -1.95349067841643       -3.71415073571514       -0.49537835584053
C           -0.84423941009253       -3.36607661663059       -1.24331324871207
C           -0.19072093730534       -2.16513061323608       -1.01590278773737
N            0.22330526496488        0.00772493647976        1.74588873166767
C            0.81064765453407       -1.02559438604622        2.42995552469378
C            0.68630052394361       -0.72568436434449        3.75327849666313
N            0.02329573158278        0.45115275812718        3.89931544348624
C           -0.24598164100683        0.85768782297317        2.69141759675757
C           -2.04319924701732        1.08542552655520       -0.70429981612645
C           -2.79282430161509        2.17787169052300       -1.10377903429238
C           -2.30530453715789        3.45811247033051       -0.91736653654148
C           -1.06206406381489        3.63474297994066       -0.33909621290394
H            2.68543987984039       -0.16931878842873        1.22943100761407
H            4.73502992654464        0.04703872080420       -0.06888388040808
H            4.64254010929659        0.53217736528862       -2.48854817171546
H            2.44669193540589        0.79362812422364       -3.59465227415290
H            0.37957231157499        0.56430297091853       -2.29637593503006
H           -2.11655227922222       -0.99476973848641        1.49494920685762
H           -3.27029635944656       -3.11564362457102        1.08571830750752
H           -2.45878467697890       -4.65135804130461       -0.67425471039718
H           -0.47588989708563       -4.03281728979045       -2.00890197252063
H            0.67965807275613       -1.92034280876982       -1.60467515176345
H            1.23063917983521       -1.87418902635011        1.92920997515471
H            1.02844531450778       -1.27812378222498        4.60527633148125
H           -0.79056648427575        1.75268687610803        2.47003885418860
H           -2.43639005895434        0.09434088016424       -0.86872623945686
H           -3.75692170778646        2.02229198343181       -1.56297623896319
H           -2.88270396099260        4.31641189255789       -1.22413802551656
H           -0.65883417117886        4.62418075706513       -0.19179272076822

 Bond Distances (Angstroems)
 ---------------------------
Cl1-C2=1.7333        C2-Cl1=1.7333        C2-C3=1.3975         C2-C25=1.3861        C3-C2=1.3975         C3-C4=1.5289         
C3-C22=1.3901        C4-C3=1.5289         C4-C5=1.5276         C4-C11=1.5315        C4-N17=1.4574        C5-C4=1.5276         
C5-C6=1.3871         C5-C10=1.3930        C6-C5=1.3871         C6-C7=1.3849         C6-H26=1.0791        C7-C6=1.3849         
C7-C8=1.3827         C7-H27=1.0800        C8-C7=1.3827         C8-C9=1.3846         C8-H28=1.0797        C9-C8=1.3846         
C9-C10=1.3821        C9-H29=1.0800        C10-C5=1.3930        C10-C9=1.3821        C10-H30=1.0810       C11-C4=1.5315        
C11-C12=1.3941       C11-C16=1.3866       C12-C11=1.3941       C12-C13=1.3814       C12-H31=1.0812       C13-C12=1.3814       
C13-C14=1.3853       C13-H32=1.0797       C14-C13=1.3853       C14-C15=1.3824       C14-H33=1.0797       C15-C14=1.3824       
C15-C16=1.3860       C15-H34=1.0800       C16-C11=1.3866       C16-C15=1.3860       C16-H35=1.0790       N17-C4=1.4574        
N17-C18=1.3714       N17-C21=1.3552       C18-N17=1.3714       C18-C19=1.3626       C18-H36=1.0711       C19-C18=1.3626       
C19-N20=1.3586       C19-H37=1.0715       N20-C19=1.3586       N20-C21=1.3026       C21-N17=1.3552       C21-N20=1.3026       
C21-H38=1.0708       C22-C3=1.3901        C22-C23=1.3838       C22-H39=1.0788       C23-C22=1.3838       C23-C24=1.3825       
C23-H40=1.0791       C24-C23=1.3825       C24-C25=1.3825       C24-H41=1.0790       C25-C2=1.3861        C25-C24=1.3825       
C25-H42=1.0786       H26-C6=1.0791        H27-C7=1.0800        H28-C8=1.0797        H29-C9=1.0800        H30-C10=1.0810       
H31-C12=1.0812       H32-C13=1.0797       H33-C14=1.0797       H34-C15=1.0800       H35-C16=1.0790       H36-C18=1.0711       
H37-C19=1.0715       H38-C21=1.0708       H39-C22=1.0788       H40-C23=1.0791       H41-C24=1.0790       H42-C25=1.0786       
 C  H  Rav=1.0781 sigma=0.0033  Rmin=1.0708  Rmax=1.0812    17
 C  C  Rav=1.4047 sigma=0.0499  Rmin=1.3626  Rmax=1.5315    22
 N  C  Rav=1.3690 sigma=0.0500  Rmin=1.3026  Rmax=1.4574     5
 Cl C  Rav=1.7333 sigma=0.0000  Rmin=1.7333  Rmax=1.7333     1

 selected bond angles (degree)
 --------------------
C3-C2-Cl1=121.63               C25-C2-Cl1=117.13              C25-C2-C3=121.23               C4-C3-C2=120.82                
C22-C3-C2=117.37               C22-C3-C4=121.75               C5-C4-C3=106.62                C11-C4-C3=111.84               
C11-C4-C5=111.17               N17-C4-C3=109.91               N17-C4-C5=112.40               N17-C4-C11=104.99              
C6-C5-C4=123.48                C10-C5-C4=117.79               C10-C5-C6=118.73               C7-C6-C5=120.43                
H26-C6-C5=120.64               H26-C6-C7=118.91               C8-C7-C6=120.51                H27-C7-C6=119.34               
H27-C7-C8=120.15               C9-C8-C7=119.45                H28-C8-C7=120.29               H28-C8-C9=120.27               
C10-C9-C8=120.14               H29-C9-C8=120.23               H29-C9-C10=119.63              C9-C10-C5=120.74               
H30-C10-C5=119.56              H30-C10-C9=119.70              

 selected dihedral angles (degree)
 ---------------------------------
C4-C3-C2-Cl1=358.35           C4-C3-C2-C25=178.46           C22-C3-C2-Cl1=181.30          C22-C3-C2-C25=  1.40          
C5-C4-C3-C2=304.85            C5-C4-C3-C22=121.77           C11-C4-C3-C2=183.13           C11-C4-C3-C22=  0.05          
N17-C4-C3-C2= 66.92           N17-C4-C3-C22=243.85          C6-C5-C4-C3=131.82            C6-C5-C4-C11=253.96           
C6-C5-C4-N17= 11.33           C10-C5-C4-C3=312.26           C10-C5-C4-C11= 74.39          C10-C5-C4-N17=191.76          
C7-C6-C5-C4=180.12            C7-C6-C5-C10=359.69           H26-C6-C5-C4=358.55           H26-C6-C5-C10=178.11          
C8-C7-C6-C5=  0.00            C8-C7-C6-H26=181.53           H27-C7-C6-C5=179.58           H27-C7-C6-H26=  1.13          
C9-C8-C7-C6=  0.28            C9-C8-C7-H27=180.68           H28-C8-C7-C6=179.78           H28-C8-C7-H27=  0.18          
C10-C9-C8-C7=359.80           C10-C9-C8-H28=180.30          H29-C9-C8-C7=179.48           H29-C9-C8-H28=  0.00          
C9-C10-C5-C4=179.98           C9-C10-C5-C6=  0.39           H30-C10-C5-C4=  0.33          H30-C10-C5-C6=180.74          
C5-C10-C9-C8=359.86           C5-C10-C9-H29=180.18          H30-C10-C9-C8=179.51          H30-C10-C9-H29=359.83         
           -------------------------------------------------
          |                Final Singlepoint                |
           -------------------------------------------------

          ...................................................
          :                      SETUP                      :
          :.................................................:
          :  # basis functions                 123          :
          :  # atomic orbitals                 122          :
          :  # shells                           68          :
          :  # electrons                       122          :
          :  max. iterations                   250          :
          :  Hamiltonian                  GFN2-xTB          :
          :  restarted?                      false          :
          :  GBSA solvation                  false          :
          :  PC potential                    false          :
          :  electronic temp.          300.0000000     K    :
          :  accuracy                    1.0000000          :
          :  -> integral cutoff          0.2500000E+02      :
          :  -> integral neglect         0.1000000E-07      :
          :  -> SCF convergence          0.1000000E-05 Eh   :
          :  -> wf. convergence          0.1000000E-03 e    :
          :  Broyden damping             0.4000000          :
          :  net charge                          0          :
          :  unpaired electrons                  0          :
          ...................................................

 iter      E             dE          RMSdq      gap      omega  full diag
   1    -67.2935153 -0.672935E+02  0.262E-04    3.15       0.0  T
   2    -67.2935153 -0.435563E-09  0.226E-04    3.15      68.3  T
   3    -67.2935153 -0.391736E-09  0.196E-04    3.15      78.9  T

   *** convergence criteria satisfied after 3 iterations ***

         #    Occupation            Energy/Eh            Energy/eV
      -------------------------------------------------------------
         1        2.0000           -1.0608975             -28.8685
       ...           ...                  ...                  ...
        55        2.0000           -0.4162360             -11.3264
        56        2.0000           -0.4114780             -11.1969
        57        2.0000           -0.4056022             -11.0370
        58        2.0000           -0.4034891             -10.9795
        59        2.0000           -0.4018673             -10.9354
        60        2.0000           -0.3774490             -10.2709
        61        2.0000           -0.3667258              -9.9791 (HOMO)
        62                         -0.2511282              -6.8335 (LUMO)
        63                         -0.2474025              -6.7322
        64                         -0.2382740              -6.4838
        65                         -0.2353952              -6.4054
        66                         -0.2319772              -6.3124
       ...                                ...                  ...
       122                          0.6572654              17.8851
      -------------------------------------------------------------
                  HL-Gap            0.1155976 Eh            3.1456 eV
             Fermi-level           -0.3089270 Eh           -8.4063 eV

 SCC (total)                   0 d,  0 h,  0 min,  0.102 sec
 SCC setup                      ...        0 min,  0.000 sec (  0.310%)
 Dispersion                     ...        0 min,  0.000 sec (  0.303%)
 classical contributions        ...        0 min,  0.000 sec (  0.144%)
 integral evaluation            ...        0 min,  0.010 sec (  9.466%)
 iterations                     ...        0 min,  0.007 sec (  7.243%)
 molecular gradient             ...        0 min,  0.084 sec ( 82.363%)
 printout                       ...        0 min,  0.000 sec (  0.163%)

         :::::::::::::::::::::::::::::::::::::::::::::::::::::
         ::                     SUMMARY                     ::
         :::::::::::::::::::::::::::::::::::::::::::::::::::::
         :: total energy             -66.163950622568 Eh    ::
         :: gradient norm              0.000488997788 Eh/a0 ::
         :: HOMO-LUMO gap              3.145571515758 eV    ::
         ::.................................................::
         :: SCC energy               -67.291859449789 Eh    ::
         :: -> isotropic ES            0.018552949403 Eh    ::
         :: -> anisotropic ES          0.003070882921 Eh    ::
         :: -> anisotropic XC          0.042720870086 Eh    ::
         :: -> dispersion             -0.061617489038 Eh    ::
         :: repulsion energy           1.127908827221 Eh    ::
         :: add. restraining           0.000000000000 Eh    ::
         :: total charge              -0.000000000000 e     ::
         :::::::::::::::::::::::::::::::::::::::::::::::::::::

           -------------------------------------------------
          |                Property Printout                |
           -------------------------------------------------

    * Orbital Energies and Occupations

         #    Occupation            Energy/Eh            Energy/eV
      -------------------------------------------------------------
         1        2.0000           -1.0608975             -28.8685
       ...           ...                  ...                  ...
        49        2.0000           -0.4375916             -11.9075
        50        2.0000           -0.4324098             -11.7665
        51        2.0000           -0.4305038             -11.7146
        52        2.0000           -0.4273956             -11.6300
        53        2.0000           -0.4248365             -11.5604
        54        2.0000           -0.4180263             -11.3751
        55        2.0000           -0.4162360             -11.3264
        56        2.0000           -0.4114780             -11.1969
        57        2.0000           -0.4056022             -11.0370
        58        2.0000           -0.4034891             -10.9795
        59        2.0000           -0.4018673             -10.9354
        60        2.0000           -0.3774490             -10.2709
        61        2.0000           -0.3667258              -9.9791 (HOMO)
        62                         -0.2511282              -6.8335 (LUMO)
        63                         -0.2474025              -6.7322
        64                         -0.2382740              -6.4838
        65                         -0.2353952              -6.4054
        66                         -0.2319772              -6.3124
        67                         -0.2298465              -6.2544
        68                         -0.1936179              -5.2686
        69                         -0.1544182              -4.2019
        70                         -0.1428620              -3.8875
        71                         -0.1230994              -3.3497
        72                         -0.1084491              -2.9511
       ...                                ...                  ...
       122                          0.6572654              17.8851
      -------------------------------------------------------------
                  HL-Gap            0.1155976 Eh            3.1456 eV
             Fermi-level           -0.3089270 Eh           -8.4063 eV

     #   Z          covCN         q      C6AA      α(0)
     1  17 Cl       0.968    -0.169   104.446    15.635
     2   6 C        2.891     0.094    25.917     8.347
     3   6 C        2.998    -0.001    28.034     8.685
     4   6 C        3.851     0.068    19.411     6.267
     5   6 C        2.979     0.010    27.799     8.649
     6   6 C        2.922    -0.030    28.750     8.793
     7   6 C        2.921    -0.027    28.678     8.782
     8   6 C        2.919    -0.029    28.725     8.789
     9   6 C        2.919    -0.028    28.711     8.787
    10   6 C        2.925    -0.034    28.835     8.806
    11   6 C        2.979     0.005    27.907     8.665
    12   6 C        2.925    -0.031    28.768     8.796
    13   6 C        2.919    -0.028    28.710     8.787
    14   6 C        2.919    -0.029    28.724     8.789
    15   6 C        2.920    -0.028    28.713     8.787
    16   6 C        2.922    -0.035    28.882     8.813
    17   7 N        2.866    -0.022    21.664     6.913
    18   6 C        3.051    -0.023    28.519     8.758
    19   6 C        3.157     0.016    27.349     8.551
    20   7 N        1.916    -0.272    27.894     7.831
    21   6 C        3.175     0.087    25.697     8.279
    22   6 C        2.927    -0.034    28.855     8.809
    23   6 C        2.918    -0.032    28.807     8.801
    24   6 C        2.920    -0.027    28.667     8.780
    25   6 C        2.968    -0.039    28.955     8.826
    26   1 H        0.926     0.042     2.428     2.437
    27   1 H        0.926     0.035     2.518     2.481
    28   1 H        0.926     0.034     2.533     2.489
    29   1 H        0.926     0.033     2.550     2.497
    30   1 H        0.926     0.027     2.632     2.537
    31   1 H        0.926     0.035     2.515     2.480
    32   1 H        0.926     0.037     2.495     2.470
    33   1 H        0.926     0.036     2.506     2.476
    34   1 H        0.926     0.035     2.514     2.480
    35   1 H        0.926     0.037     2.496     2.470
    36   1 H        0.926     0.024     2.670     2.555
    37   1 H        0.926     0.028     2.615     2.529
    38   1 H        0.926     0.028     2.610     2.526
    39   1 H        0.926     0.051     2.312     2.378
    40   1 H        0.926     0.047     2.356     2.401
    41   1 H        0.926     0.051     2.313     2.378
    42   1 H        0.926     0.061     2.186     2.312

 Mol. C6AA /au·bohr⁶  :      26546.416276
 Mol. C8AA /au·bohr⁸  :     688312.652992
 Mol. α(0) /au        :        261.620064


Wiberg/Mayer (AO) data.
largest (>0.10) Wiberg bond orders for each atom

 ---------------------------------------------------------------------------
     #   Z sym  total        # sym  WBO       # sym  WBO       # sym  WBO
 ---------------------------------------------------------------------------
     1  17 Cl   1.126 --     2 C    0.977
     2   6 C    3.917 --    25 C    1.410     3 C    1.370     1 Cl   0.977
                            23 C    0.101
     3   6 C    3.984 --    22 C    1.417     2 C    1.370     4 C    0.961
                            24 C    0.107
     4   6 C    3.968 --     3 C    0.961     5 C    0.961    11 C    0.956
                            17 N    0.955
     5   6 C    3.985 --     6 C    1.424    10 C    1.399     4 C    0.961
                             8 C    0.110
     6   6 C    3.990 --     7 C    1.435     5 C    1.424    26 H    0.962
                             9 C    0.109
     7   6 C    3.991 --     8 C    1.445     6 C    1.435    27 H    0.971
                            10 C    0.111
     8   6 C    3.991 --     7 C    1.445     9 C    1.432    28 H    0.971
                             5 C    0.110
     9   6 C    3.991 --    10 C    1.451     8 C    1.432    29 H    0.971
                             6 C    0.109
    10   6 C    3.991 --     9 C    1.451     5 C    1.399    30 H    0.968
                             7 C    0.111
    11   6 C    3.985 --    16 C    1.428    12 C    1.398     4 C    0.956
                            14 C    0.110
    12   6 C    3.991 --    13 C    1.454    11 C    1.398    31 H    0.968
                            15 C    0.113
    13   6 C    3.991 --    12 C    1.454    14 C    1.429    32 H    0.971
                            16 C    0.109
    14   6 C    3.991 --    15 C    1.449    13 C    1.429    33 H    0.971
                            11 C    0.110
    15   6 C    3.991 --    14 C    1.449    16 C    1.431    34 H    0.971
                            12 C    0.113
    16   6 C    3.990 --    15 C    1.431    11 C    1.428    35 H    0.963
                            13 C    0.109
    17   7 N    3.631 --    21 C    1.248    18 C    1.192     4 C    0.955
                            20 N    0.103
    18   6 C    3.942 --    19 C    1.585    17 N    1.192    36 H    0.969
                            21 C    0.112
    19   6 C    3.974 --    18 C    1.585    20 N    1.294    37 H    0.971
    20   7 N    3.026 --    21 C    1.549    19 C    1.294    17 N    0.103
    21   6 C    3.958 --    20 N    1.549    17 N    1.248    38 H    0.963
                            18 C    0.112
    22   6 C    3.989 --    23 C    1.437     3 C    1.417    39 H    0.960
                            25 C    0.107
    23   6 C    3.991 --    22 C    1.437    24 C    1.437    40 H    0.970
                             2 C    0.101
    24   6 C    3.989 --    25 C    1.438    23 C    1.437    41 H    0.969
                             3 C    0.107
    25   6 C    3.987 --    24 C    1.438     2 C    1.410    42 H    0.967
                            22 C    0.107
    26   1 H    0.998 --     6 C    0.962
    27   1 H    0.998 --     7 C    0.971
    28   1 H    0.998 --     8 C    0.971
    29   1 H    0.998 --     9 C    0.971
    30   1 H    0.999 --    10 C    0.968
    31   1 H    0.999 --    12 C    0.968
    32   1 H    0.998 --    13 C    0.971
    33   1 H    0.998 --    14 C    0.971
    34   1 H    0.998 --    15 C    0.971
    35   1 H    0.999 --    16 C    0.963
    36   1 H    0.999 --    18 C    0.969
    37   1 H    0.998 --    19 C    0.971
    38   1 H    0.999 --    21 C    0.963
    39   1 H    0.997 --    22 C    0.960
    40   1 H    0.997 --    23 C    0.970
    41   1 H    0.997 --    24 C    0.969
    42   1 H    0.996 --    25 C    0.967
 ---------------------------------------------------------------------------

Topologies differ in total number of bonds
Writing topology from bond orders to xtbtopo.mol

molecular dipole:
                 x           y           z       tot (Debye)
 q only:       -0.750      -0.309      -1.587
   full:       -0.436      -0.411      -1.890       5.040
molecular quadrupole (traceless):
                xx          xy          yy          xz          yz          zz
 q only:        7.184      -5.642       5.586      -0.080      -4.876     -12.770
  q+dip:       11.386      -3.339       7.597       0.443      -5.683     -18.983
   full:       10.945      -3.547       7.909       0.948      -6.159     -18.855

           -------------------------------------------------
          |                Geometry Summary                 |
           -------------------------------------------------

      molecular mass/u    :      344.8375265
   center of mass at/Å    :        0.1182559       0.3012634       0.2043425
  moments of inertia/u·Å² :        0.1955059E+04   0.2331196E+04   0.2513663E+04
rotational constants/cm⁻¹ :        0.8622571E-02   0.7231324E-02   0.6706401E-02

 * 42 selected distances

     #   Z          #   Z                                           value/Å
     1  17 Cl       2   6 C                                       1.7333437 (max)
     2   6 C        3   6 C                                       1.3975174
     5   6 C        6   6 C                                       1.3871361
     6   6 C        7   6 C                                       1.3848856
     7   6 C        8   6 C                                       1.3826544
     8   6 C        9   6 C                                       1.3846441
     5   6 C       10   6 C                                       1.3930165
     9   6 C       10   6 C                                       1.3821154
    11   6 C       12   6 C                                       1.3941304
    12   6 C       13   6 C                                       1.3813523
    13   6 C       14   6 C                                       1.3852967
    14   6 C       15   6 C                                       1.3823896
    11   6 C       16   6 C                                       1.3866492
    15   6 C       16   6 C                                       1.3860280
     4   6 C       17   7 N                                       1.4573616
    17   7 N       18   6 C                                       1.3713744
[...]
     2023, XX, XXXX-XXXX. DOI: 10.1021/acs.jpca.3c04382
   
   for DFT-D4:
   * E. Caldeweyher, C. Bannwarth and S. Grimme, J. Chem. Phys., 2017,
     147, 034112. DOI: 10.1063/1.4993215
   * E. Caldeweyher, S. Ehlert, A. Hansen, H. Neugebauer, S. Spicher,
     C. Bannwarth and S. Grimme, J. Chem. Phys., 2019, 150, 154122.
     DOI: 10.1063/1.5090222
   * E. Caldeweyher, J.-M. Mewes, S. Ehlert and S. Grimme, Phys. Chem. Chem. Phys.
     2020, 22, 8499-8512. DOI: 10.1039/D0CP00502A
   
   for sTDA-xTB:
   * S. Grimme and C. Bannwarth, J. Chem. Phys., 2016, 145, 054103.
     DOI: 10.1063/1.4959605
   
   in the mass-spec context:
   * V. Asgeirsson, C. Bauer and S. Grimme, Chem. Sci., 2017, 8, 4879.
     DOI: 10.1039/c7sc00601b
   * J. Koopman and S. Grimme, ACS Omega 2019, 4, 12, 15120-15133.
     DOI: 10.1021/acsomega.9b02011
   
   for metadynamics refer to:
   * S. Grimme, J. Chem. Theory Comput., 2019, 155, 2847-2862
     DOI: 10.1021/acs.jctc.9b00143
   
   for SPH calculations refer to:
   * S. Spicher and S. Grimme, J. Chem. Theory Comput., 2021, 17, 1701-1714
     DOI: 10.1021/acs.jctc.0c01306
   
   for ONIOM refer to:
   * C. Plett, A. Katbashev, S. Ehlert, S. Grimme, M. Bursch,
     Phys. Chem. Chem. Phys., 2023, 25, 17860-17868. DOI: 10.1039/D3CP02178E
   
   for DIPRO refer to:
   * J. Kohn, N. Gildemeister, S. Grimme, D. Fazzi, A. Hansen,
     J. Chem. Phys., 2023, just accepted.
   
   for PTB refer to:
   * S. Grimme, M. Mueller, A. Hansen, J. Chem. Phys., 2023, 158, 124111.
     DOI: 10.1063/5.0137838
   
   with help from (in alphabetical order)
   P. Atkinson, C. Bannwarth, F. Bohle, G. Brandenburg, E. Caldeweyher
   M. Checinski, S. Dohm, S. Ehlert, S. Ehrlich, I. Gerasimov, C. Hölzer
   A. Katbashev, J. Kohn, J. Koopman, C. Lavigne, S. Lehtola, F. März, M. Müller,
   F. Musil, H. Neugebauer, J. Pisarek, C. Plett, P. Pracht, F. Pultar,
   J. Seibert, P. Shushkov, S. Spicher, M. Stahn, M. Steiner, T. Strunk,
   J. Stückrath, T. Rose, and J. Unsleber
   
 * started run on 2025/05/15 at 16:27:05.517     
   ID    Z sym.   atoms
    1   17 Cl     1
    2    6 C      2-16, 18, 19, 21-25
    3    7 N      17, 20
    4    1 H      26-42

           -------------------------------------------------
          |                Calculation Setup                |
           -------------------------------------------------

          program call               : xtb /rds/general/user/hgt20/home/callum/QDESCP/Clotrimazole_rdkit_conf_6/Clotrimazole_rdkit_conf_6.xyz --acc 1 --gfn 2 --chrg 0 --uhf 2 --etemp 300 --input /rds/general/user/hgt20/home/callum/QDESCP/Clotrimazole_rdkit_conf_6/Clotrimazole_rdkit_conf_6_xtb.inp -P 1
          hostname                   : login-c
          coordinate file            : /rds/general/user/hgt20/home/callum/QDESCP/Clotrimazole_rdkit_conf_6/Clotrimazole_rdkit_conf_6.xyz
          omp threads                :                     1


           -------------------------------------------------
          |                 G F N 2 - x T B                 |
           -------------------------------------------------

        Reference                      10.1021/acs.jctc.8b01176
      * Hamiltonian:
        H0-scaling (s, p, d)           1.850000    2.230000    2.230000
        zeta-weighting                 0.500000
      * Dispersion:
        s8                             2.700000
        a1                             0.520000
        a2                             5.000000
        s9                             5.000000
      * Repulsion:
        kExp                           1.500000    1.000000
        rExp                           1.000000
      * Coulomb:
        alpha                          2.000000
        third order                    shell-resolved
        anisotropic                    true
        a3                             3.000000
        a5                             4.000000
        cn-shift                       1.200000
        cn-exp                         4.000000
        max-rad                        5.000000


          ...................................................
          :                      SETUP                      :
          :.................................................:
          :  # basis functions                 123          :
          :  # atomic orbitals                 122          :
          :  # shells                           68          :
          :  # electrons                       122          :
          :  max. iterations                   250          :
          :  Hamiltonian                  GFN2-xTB          :
          :  restarted?                      false          :
          :  GBSA solvation                  false          :
          :  PC potential                    false          :
          :  electronic temp.          300.0000000     K    :
          :  accuracy                    1.0000000          :
          :  -> integral cutoff          0.2500000E+02      :
          :  -> integral neglect         0.1000000E-07      :
          :  -> SCF convergence          0.1000000E-05 Eh   :
          :  -> wf. convergence          0.1000000E-03 e    :
          :  Broyden damping             0.4000000          :
          :  net charge                          0          :
          :  unpaired electrons                  2          :
          ...................................................

 iter      E             dE          RMSdq      gap      omega  full diag
   1    -66.9751926 -0.669752E+02  0.407E+00    0.08       0.0  T
   2    -66.7809320  0.194261E+00  0.359E+00    0.62       1.0  T
   3    -66.8899456 -0.109014E+00  0.273E+00    0.20       1.0  T
   4    -66.9300075 -0.400619E-01  0.196E+00    0.03       1.0  T
   5    -66.9545062 -0.244987E-01  0.183E+00    0.24       1.0  T
   6    -66.9730797 -0.185735E-01  0.154E+00    0.14       1.0  T
   7    -67.1235967 -0.150517E+00  0.631E-01    0.11       1.0  T
   8    -67.0753259  0.482708E-01  0.962E-01    0.09       1.0  T
   9    -67.0963505 -0.210246E-01  0.782E-01    0.13       1.0  T
  10    -67.1133758 -0.170252E-01  0.601E-01    0.10       1.0  T
  11    -67.1355235 -0.221477E-01  0.301E-01    0.11       1.0  T
  12    -67.1343818  0.114170E-02  0.306E-01    0.08       1.0  T
  13    -67.1357597 -0.137788E-02  0.251E-01    0.10       1.0  T
  14    -67.1375015 -0.174178E-02  0.208E-01    0.10       1.0  T
  15    -67.1396059 -0.210443E-02  0.102E-01    0.09       1.0  T
  16    -67.1401211 -0.515191E-03  0.504E-02    0.09       1.0  T
  17    -67.1401996 -0.785637E-04  0.359E-02    0.09       1.0  T
  18    -67.1401785  0.211592E-04  0.374E-02    0.09       1.0  T
  19    -67.1402690 -0.905154E-04  0.201E-02    0.09       1.0  T
  20    -67.1402686  0.374506E-06  0.210E-02    0.09       1.0  T
  21    -67.1402937 -0.251101E-04  0.814E-03    0.09       1.9  T
  22    -67.1402889  0.479165E-05  0.108E-02    0.09       1.4  T
  23    -67.1402963 -0.732991E-05  0.290E-03    0.09       5.3  T
  24    -67.1402967 -0.441649E-06  0.102E-03    0.09      15.1  T
  25    -67.1402967 -0.309505E-07  0.552E-04    0.09      27.9  T
  26    -67.1402967  0.606663E-07  0.991E-04    0.09      15.6  T

   *** convergence criteria satisfied after 26 iterations ***

         #    Occupation            Energy/Eh            Energy/eV
      -------------------------------------------------------------
         1        2.0000           -1.0674563             -29.0470
       ...           ...                  ...                  ...
        56        2.0000           -0.4080487             -11.1036
        57        1.9997           -0.4056384             -11.0380
        58        1.9718           -0.4013233             -10.9206
        59        1.9652           -0.4011182             -10.9150
        60        1.7597           -0.3990542             -10.8588
        61        1.3036           -0.3971723             -10.8076
        62        0.8390           -0.2364798              -6.4349 (HOMO)
        63        0.1343           -0.2331416              -6.3441 (LUMO)
        64        0.0224           -0.2313234              -6.2946
        65        0.0040           -0.2296791              -6.2499
        66        0.0002           -0.2267020              -6.1689
        67        0.0001           -0.2260917              -6.1523
       ...           ...                  ...                  ...
       122                          0.6597476              17.9526
      -------------------------------------------------------------
                  HL-Gap            0.0033382 Eh            0.0908 eV
             Fermi-level           -0.3164362 Eh           -8.6107 eV

 transition dipole moment (au) for excitation:          61          62
     X       Y       Z   
   0.1567   0.7904   0.3225  total (au/Debye):    0.868   2.206
 dE (eV)             :    4.373
 oscillator strength :  0.11413E+00

 SCC (total)                   0 d,  0 h,  0 min,  0.209 sec
 SCC setup                      ...        0 min,  0.000 sec (  0.178%)
 Dispersion                     ...        0 min,  0.000 sec (  0.239%)
 classical contributions        ...        0 min,  0.000 sec (  0.070%)
 integral evaluation            ...        0 min,  0.010 sec (  4.868%)
 iterations                     ...        0 min,  0.159 sec ( 76.137%)
 molecular gradient             ...        0 min,  0.029 sec ( 13.699%)
 printout                       ...        0 min,  0.010 sec (  4.807%)

         :::::::::::::::::::::::::::::::::::::::::::::::::::::
         ::                     SUMMARY                     ::
         :::::::::::::::::::::::::::::::::::::::::::::::::::::
         :: total energy             -66.010731985792 Eh    ::
         :: gradient norm              0.095728722496 Eh/a0 ::
         :: HOMO-LUMO gap              0.090835843100 eV    ::
         ::.................................................::
         :: SCC energy               -67.138640813013 Eh    ::
         :: -> isotropic ES            0.012344951448 Eh    ::
         :: -> anisotropic ES          0.005132013583 Eh    ::
         :: -> anisotropic XC          0.039345761300 Eh    ::
         :: -> dispersion             -0.061638771395 Eh    ::
         :: repulsion energy           1.127908827221 Eh    ::
         :: add. restraining           0.000000000000 Eh    ::
         :: total charge              -0.000000000001 e     ::
         :::::::::::::::::::::::::::::::::::::::::::::::::::::

           -------------------------------------------------
          |                Property Printout                |
           -------------------------------------------------

    * Orbital Energies and Occupations

         #    Occupation            Energy/Eh            Energy/eV
      -------------------------------------------------------------
         1        2.0000           -1.0674563             -29.0470
       ...           ...                  ...                  ...
        50        2.0000           -0.4308399             -11.7237
        51        2.0000           -0.4283514             -11.6560
        52        2.0000           -0.4267114             -11.6114
        53        2.0000           -0.4215195             -11.4701
        54        2.0000           -0.4115191             -11.1980
        55        2.0000           -0.4098693             -11.1531
        56        2.0000           -0.4080487             -11.1036
        57        1.9997           -0.4056384             -11.0380
        58        1.9718           -0.4013233             -10.9206
        59        1.9652           -0.4011182             -10.9150
        60        1.7597           -0.3990542             -10.8588
        61        1.3036           -0.3971723             -10.8076
        62        0.8390           -0.2364798              -6.4349 (HOMO)
        63        0.1343           -0.2331416              -6.3441 (LUMO)
        64        0.0224           -0.2313234              -6.2946
        65        0.0040           -0.2296791              -6.2499
        66        0.0002           -0.2267020              -6.1689
        67        0.0001           -0.2260917              -6.1523
        68                         -0.2159209              -5.8755
        69                         -0.1821357              -4.9562
        70                         -0.1440262              -3.9192
        71                         -0.1076822              -2.9302
        72                         -0.1015136              -2.7623
        73                         -0.1003294              -2.7301
       ...                                ...                  ...
       122                          0.6597476              17.9526
      -------------------------------------------------------------
                  HL-Gap            0.0033382 Eh            0.0908 eV
             Fermi-level           -0.3164362 Eh           -8.6107 eV

     #   Z          covCN         q      C6AA      α(0)
     1  17 Cl       0.968    -0.123   102.984    15.525
     2   6 C        2.891     0.073    26.363     8.418
     3   6 C        2.998    -0.025    28.616     8.775
     4   6 C        3.851     0.066    19.441     6.271
     5   6 C        2.979     0.008    27.830     8.654
     6   6 C        2.922    -0.037    28.916     8.818
     7   6 C        2.921    -0.027    28.679     8.782
     8   6 C        2.919    -0.031    28.767     8.795
     9   6 C        2.919    -0.032    28.794     8.800
    10   6 C        2.925    -0.030    28.745     8.792
    11   6 C        2.979    -0.002    28.077     8.692
    12   6 C        2.925    -0.038    28.945     8.823
    13   6 C        2.919    -0.030    28.739     8.791
    14   6 C        2.919    -0.036    28.886     8.814
    15   6 C        2.920    -0.033    28.822     8.804
    16   6 C        2.922    -0.036    28.908     8.817
    17   7 N        2.866    -0.005    21.347     6.862
    18   6 C        3.051    -0.010    28.220     8.712
    19   6 C        3.157     0.019    27.281     8.540
    20   7 N        1.916    -0.215    26.512     7.634
    21   6 C        3.175     0.090    25.629     8.268
    22   6 C        2.927    -0.042    29.033     8.836
    23   6 C        2.918    -0.036    28.886     8.813
    24   6 C        2.920    -0.046    29.137     8.852
    25   6 C        2.968    -0.044    29.099     8.848
    26   1 H        0.926     0.032     2.562     2.503
    27   1 H        0.926     0.032     2.555     2.500
    28   1 H        0.926     0.032     2.561     2.503
    29   1 H        0.926     0.032     2.560     2.502
    30   1 H        0.926     0.033     2.547     2.496
    31   1 H        0.926     0.027     2.633     2.537
    32   1 H        0.926     0.032     2.565     2.504
    33   1 H        0.926     0.030     2.582     2.513
    34   1 H        0.926     0.032     2.564     2.504
    35   1 H        0.926     0.033     2.546     2.495
    36   1 H        0.926     0.047     2.358     2.401
    37   1 H        0.926     0.045     2.380     2.412
    38   1 H        0.926     0.053     2.285     2.364
    39   1 H        0.926     0.042     2.421     2.433
    40   1 H        0.926     0.036     2.497     2.471
    41   1 H        0.926     0.036     2.496     2.471
    42   1 H        0.926     0.046     2.365     2.405

 Mol. C6AA /au·bohr⁶  :      26567.161719
 Mol. C8AA /au·bohr⁸  :     688701.621565
 Mol. α(0) /au        :        261.751286


Wiberg/Mayer (AO) data.
largest (>0.10) Wiberg bond orders for each atom

 ---------------------------------------------------------------------------
     #   Z sym  total        # sym  WBO       # sym  WBO       # sym  WBO
 ---------------------------------------------------------------------------
     1  17 Cl   1.155 --     2 C    0.998
     2   6 C    3.680 --    25 C    1.349     3 C    1.151     1 Cl   0.998
     3   6 C    3.801 --    22 C    1.381     2 C    1.151     4 C    0.960
     4   6 C    3.947 --     5 C    0.963     3 C    0.960    11 C    0.947
                            17 N    0.936
     5   6 C    3.896 --     6 C    1.353    10 C    1.321     4 C    0.963
     6   6 C    3.939 --     7 C    1.460     5 C    1.353    26 H    0.962
     7   6 C    3.944 --     6 C    1.460     8 C    1.378    27 H    0.971
     8   6 C    3.863 --     9 C    1.383     7 C    1.378    28 H    0.971
     9   6 C    3.951 --    10 C    1.469     8 C    1.383    29 H    0.971
    10   6 C    3.942 --     9 C    1.469     5 C    1.321    30 H    0.967
    11   6 C    3.927 --    16 C    1.404    12 C    1.342     4 C    0.947
    12   6 C    3.946 --    13 C    1.459    11 C    1.342    31 H    0.967
    13   6 C    3.983 --    12 C    1.459    14 C    1.419    32 H    0.971
                            16 C    0.106
    14   6 C    3.911 --    13 C    1.419    15 C    1.395    33 H    0.971
    15   6 C    3.941 --    16 C    1.446    14 C    1.395    34 H    0.969
    16   6 C    3.977 --    15 C    1.446    11 C    1.404    35 H    0.962
                            13 C    0.106
    17   7 N    3.634 --    21 C    1.260    18 C    1.207     4 C    0.936
    18   6 C    3.899 --    19 C    1.544    17 N    1.207    36 H    0.967
    19   6 C    3.931 --    18 C    1.544    20 N    1.293    37 H    0.969
    20   7 N    3.021 --    21 C    1.515    19 C    1.293
    21   6 C    3.926 --    20 N    1.515    17 N    1.260    38 H    0.959
    22   6 C    3.917 --    23 C    1.421     3 C    1.381    39 H    0.959
    23   6 C    3.760 --    22 C    1.421    24 C    1.226    40 H    0.970
    24   6 C    3.800 --    25 C    1.449    23 C    1.226    41 H    0.969
    25   6 C    3.909 --    24 C    1.449     2 C    1.349    42 H    0.968
    26   1 H    0.998 --     6 C    0.962
    27   1 H    0.998 --     7 C    0.971
    28   1 H    0.998 --     8 C    0.971
    29   1 H    0.998 --     9 C    0.971
    30   1 H    0.999 --    10 C    0.967
    31   1 H    0.998 --    12 C    0.967
    32   1 H    0.998 --    13 C    0.971
    33   1 H    0.998 --    14 C    0.971
    34   1 H    0.996 --    15 C    0.969
    35   1 H    0.998 --    16 C    0.962
    36   1 H    0.997 --    18 C    0.967
    37   1 H    0.996 --    19 C    0.969
    38   1 H    0.996 --    21 C    0.959
    39   1 H    0.996 --    22 C    0.959
    40   1 H    0.997 --    23 C    0.970
    41   1 H    0.997 --    24 C    0.969
    42   1 H    0.997 --    25 C    0.968
 ---------------------------------------------------------------------------

Topologies differ in total number of bonds
Writing topology from bond orders to xtbtopo.mol

molecular dipole:
                 x           y           z       tot (Debye)
 q only:       -0.151      -0.448      -0.486
   full:        0.178      -0.477      -0.725       2.251
molecular quadrupole (traceless):
                xx          xy          yy          xz          yz          zz
 q only:        3.318      -3.725       0.865       0.065      -3.570      -4.183
  q+dip:        7.055      -1.386       2.242       0.185      -4.213      -9.297
   full:        6.498      -1.418       2.760       0.704      -4.636      -9.259


           -------------------------------------------------
          | TOTAL ENERGY              -66.010731985792 Eh   |
          | GRADIENT NORM               0.095728722496 Eh/α |
          | HOMO-LUMO GAP               0.090835843100 eV   |
           -------------------------------------------------

------------------------------------------------------------------------
 * finished run on 2025/05/15 at 16:27:05.786     
------------------------------------------------------------------------
 total:
 * wall-time:     0 d,  0 h,  0 min,  0.269 sec
 *  cpu-time:     0 d,  0 h,  0 min,  0.130 sec
 * ratio c/w:     0.484 speedup
 SCF:
 * wall-time:     0 d,  0 h,  0 min,  0.209 sec
 *  cpu-time:     0 d,  0 h,  0 min,  0.117 sec
 * ratio c/w:     0.557 speedup


