42
 energy: -66.163950622568 gnorm: 0.000488997788 xtb: 6.7.1 (edcfbbe)
Cl           1.24016783611763        2.84874624584660        0.75588740053084
C           -0.31396668610663        2.53639418922885        0.05475828122311
C           -0.79710150774635        1.23500983472958       -0.10659261618848
C            0.05059603081839        0.02893498935112        0.29895260532549
C            1.37904763110108        0.15877888343475       -0.44398145561037
C            2.61544096332884        0.01924794921707        0.16921425078013
C            3.78180576180688        0.15232704723035       -0.56549045217331
C            3.73088950434265        0.42556639109286       -1.91992044634372
C            2.50105489690087        0.57176554288789       -2.53909052812408
C            1.33580450953438        0.44096820329813       -1.80743066836980
C           -0.64384256575102       -1.29419792013166       -0.03664150957938
C           -1.75789064402980       -1.65677197334257        0.71902779992506
C           -2.40850722275658       -2.85364732243546        0.49028917537573
C           -1.95349067841643       -3.71415073571514       -0.49537835584053
C           -0.84423941009253       -3.36607661663059       -1.24331324871207
C           -0.19072093730534       -2.16513061323608       -1.01590278773737
N            0.22330526496488        0.00772493647976        1.74588873166767
C            0.81064765453407       -1.02559438604622        2.42995552469378
C            0.68630052394361       -0.72568436434449        3.75327849666313
N            0.02329573158278        0.45115275812718        3.89931544348624
C           -0.24598164100683        0.85768782297317        2.69141759675757
C           -2.04319924701732        1.08542552655520       -0.70429981612645
C           -2.79282430161509        2.17787169052300       -1.10377903429238
C           -2.30530453715789        3.45811247033051       -0.91736653654148
C           -1.06206406381489        3.63474297994066       -0.33909621290394
H            2.68543987984039       -0.16931878842873        1.22943100761407
H            4.73502992654464        0.04703872080420       -0.06888388040808
H            4.64254010929659        0.53217736528862       -2.48854817171546
H            2.44669193540589        0.79362812422364       -3.59465227415290
H            0.37957231157499        0.56430297091853       -2.29637593503006
H           -2.11655227922222       -0.99476973848641        1.49494920685762
H           -3.27029635944656       -3.11564362457102        1.08571830750752
H           -2.45878467697890       -4.65135804130461       -0.67425471039718
H           -0.47588989708563       -4.03281728979045       -2.00890197252063
H            0.67965807275613       -1.92034280876982       -1.60467515176345
H            1.23063917983521       -1.87418902635011        1.92920997515471
H            1.02844531450778       -1.27812378222498        4.60527633148125
H           -0.79056648427575        1.75268687610803        2.47003885418860
H           -2.43639005895434        0.09434088016424       -0.86872623945686
H           -3.75692170778646        2.02229198343181       -1.56297623896319
H           -2.88270396099260        4.31641189255789       -1.22413802551656
H           -0.65883417117886        4.62418075706513       -0.19179272076822
