----- Optimization -----
      -----------------------------------------------------------      
     |                   =====================                   |     
     |                           x T B                           |     
     |                   =====================                   |     
     |                         S. Grimme                         |     
     |          Mulliken Center for Theoretical Chemistry        |     
     |                    University of Bonn                     |     
      -----------------------------------------------------------      

   * xtb version 6.7.1 (edcfbbe) compiled by 'conda@3ef47c1a292c' on 2024-11-25

   xtb is free software: you can redistribute it and/or modify it under
   the terms of the GNU Lesser General Public License as published by
   the Free Software Foundation, either version 3 of the License, or
   (at your option) any later version.
   
   xtb is distributed in the hope that it will be useful,
   but WITHOUT ANY WARRANTY; without even the implied warranty of
   MERCHANTABILITY or FITNESS FOR A PARTICULAR PURPOSE.  See the
   GNU Lesser General Public License for more details.
   
   Cite this work as:
   * C. Bannwarth, E. Caldeweyher, S. Ehlert, A. Hansen, P. Pracht,
     J. Seibert, S. Spicher, S. Grimme, WIREs Comput. Mol. Sci., 2020, 11,
     e01493. DOI: 10.1002/wcms.1493
   
   for GFN2-xTB:
   * C. Bannwarth, S. Ehlert and S. Grimme., J. Chem. Theory Comput., 2019,
     15, 1652-1671. DOI: 10.1021/acs.jctc.8b01176
   for GFN1-xTB:
   * S. Grimme, C. Bannwarth, P. Shushkov, J. Chem. Theory Comput., 2017,
     13, 1989-2009. DOI: 10.1021/acs.jctc.7b00118
   for GFN0-xTB:
   * P. Pracht, E. Caldeweyher, S. Ehlert, S. Grimme, ChemRxiv, 2019, preprint.
     DOI: 10.26434/chemrxiv.8326202.v1
   for GFN-FF:
   * S. Spicher and S. Grimme, Angew. Chem. Int. Ed., 2020, 59, 15665-15673.
     DOI: 10.1002/anie.202004239
   
   for ALPB and GBSA implicit solvation:
   * S. Ehlert, M. Stahn, S. Spicher, S. Grimme, J. Chem. Theory Comput.,
     2021, 17, 4250-4261. DOI: 10.1021/acs.jctc.1c00471
   
   for ddCOSMO and CPCM-X implicit solvation:
   * M. Stahn, S. Ehlert, S. Grimme, J. Phys. Chem. A,
     2023, XX, XXXX-XXXX. DOI: 10.1021/acs.jpca.3c04382
   
   for DFT-D4:
   * E. Caldeweyher, C. Bannwarth and S. Grimme, J. Chem. Phys., 2017,
     147, 034112. DOI: 10.1063/1.4993215
   * E. Caldeweyher, S. Ehlert, A. Hansen, H. Neugebauer, S. Spicher,
     C. Bannwarth and S. Grimme, J. Chem. Phys., 2019, 150, 154122.
     DOI: 10.1063/1.5090222
   * E. Caldeweyher, J.-M. Mewes, S. Ehlert and S. Grimme, Phys. Chem. Chem. Phys.
     2020, 22, 8499-8512. DOI: 10.1039/D0CP00502A
   
   for sTDA-xTB:
   * S. Grimme and C. Bannwarth, J. Chem. Phys., 2016, 145, 054103.
     DOI: 10.1063/1.4959605
   
   in the mass-spec context:
   * V. Asgeirsson, C. Bauer and S. Grimme, Chem. Sci., 2017, 8, 4879.
     DOI: 10.1039/c7sc00601b
   * J. Koopman and S. Grimme, ACS Omega 2019, 4, 12, 15120-15133.
     DOI: 10.1021/acsomega.9b02011
   
   for metadynamics refer to:
   * S. Grimme, J. Chem. Theory Comput., 2019, 155, 2847-2862
     DOI: 10.1021/acs.jctc.9b00143
   
   for SPH calculations refer to:
   * S. Spicher and S. Grimme, J. Chem. Theory Comput., 2021, 17, 1701-1714
     DOI: 10.1021/acs.jctc.0c01306
   
   for ONIOM refer to:
   * C. Plett, A. Katbashev, S. Ehlert, S. Grimme, M. Bursch,
     Phys. Chem. Chem. Phys., 2023, 25, 17860-17868. DOI: 10.1039/D3CP02178E
   
   for DIPRO refer to:
   * J. Kohn, N. Gildemeister, S. Grimme, D. Fazzi, A. Hansen,
     J. Chem. Phys., 2023, just accepted.
   
   for PTB refer to:
   * S. Grimme, M. Mueller, A. Hansen, J. Chem. Phys., 2023, 158, 124111.
     DOI: 10.1063/5.0137838
   
   with help from (in alphabetical order)
   P. Atkinson, C. Bannwarth, F. Bohle, G. Brandenburg, E. Caldeweyher
   M. Checinski, S. Dohm, S. Ehlert, S. Ehrlich, I. Gerasimov, C. Hölzer
   A. Katbashev, J. Kohn, J. Koopman, C. Lavigne, S. Lehtola, F. März, M. Müller,
   F. Musil, H. Neugebauer, J. Pisarek, C. Plett, P. Pracht, F. Pultar,
   J. Seibert, P. Shushkov, S. Spicher, M. Stahn, M. Steiner, T. Strunk,
   J. Stückrath, T. Rose, and J. Unsleber
   
 * started run on 2025/05/15 at 16:18:18.904     
   ID    Z sym.   atoms
    1    6 C      1-8, 10-13, 15-19
    2    7 N      9
    3    8 O      14, 20, 21
    4    1 H      22-42

           -------------------------------------------------
          |                Calculation Setup                |
           -------------------------------------------------

          program call               : xtb /rds/general/user/hgt20/home/callum/QDESCP/Etodolac_rdkit_conf_16/Etodolac_rdkit_conf_16.xyz --opt normal --acc 1 --gfn 2 --chrg 0 --uhf 0 -P 1
          hostname                   : login-c
          coordinate file            : /rds/general/user/hgt20/home/callum/QDESCP/Etodolac_rdkit_conf_16/Etodolac_rdkit_conf_16.xyz
          omp threads                :                     1


           -------------------------------------------------
          |                 G F N 2 - x T B                 |
           -------------------------------------------------

        Reference                      10.1021/acs.jctc.8b01176
      * Hamiltonian:
        H0-scaling (s, p, d)           1.850000    2.230000    2.230000
        zeta-weighting                 0.500000
      * Dispersion:
        s8                             2.700000
        a1                             0.520000
        a2                             5.000000
        s9                             5.000000
      * Repulsion:
        kExp                           1.500000    1.000000
        rExp                           1.000000
      * Coulomb:
        alpha                          2.000000
        third order                    shell-resolved
        anisotropic                    true
        a3                             3.000000
        a5                             4.000000
        cn-shift                       1.200000
        cn-exp                         4.000000
        max-rad                        5.000000


          ...................................................
          :                      SETUP                      :
          :.................................................:
          :  # basis functions                 105          :
          :  # atomic orbitals                 105          :
          :  # shells                           63          :
          :  # electrons                       112          :
          :  max. iterations                   250          :
          :  Hamiltonian                  GFN2-xTB          :
          :  restarted?                      false          :
          :  GBSA solvation                  false          :
          :  PC potential                    false          :
          :  electronic temp.          300.0000000     K    :
          :  accuracy                    1.0000000          :
          :  -> integral cutoff          0.2500000E+02      :
          :  -> integral neglect         0.1000000E-07      :
          :  -> SCF convergence          0.1000000E-05 Eh   :
          :  -> wf. convergence          0.1000000E-03 e    :
          :  Broyden damping             0.4000000          :
          :  net charge                          0          :
          :  unpaired electrons                  0          :
          ...................................................

 iter      E             dE          RMSdq      gap      omega  full diag
   1    -62.9587081 -0.629587E+02  0.389E+00    3.10       0.0  T
   2    -63.0782661 -0.119558E+00  0.229E+00    3.00       1.0  T
   3    -63.0830028 -0.473676E-02  0.127E+00    3.32       1.0  T
   4    -63.0916433 -0.864046E-02  0.552E-01    2.94       1.0  T
   5    -63.1011441 -0.950075E-02  0.132E-01    2.88       1.0  T
   6    -63.1014959 -0.351838E-03  0.601E-02    2.91       1.0  T
   7    -63.1015306 -0.347200E-04  0.261E-02    2.91       1.0  T
   8    -63.1015325 -0.193239E-05  0.123E-02    2.91       1.3  T
   9    -63.1015362 -0.364675E-05  0.299E-03    2.92       5.2  T
  10    -63.1015362 -0.401859E-07  0.146E-03    2.92      10.6  T
  11    -63.1015363 -0.271667E-07  0.602E-04    2.91      25.6  T
  12    -63.1015363 -0.553420E-08  0.245E-04    2.91      62.9  T

   *** convergence criteria satisfied after 12 iterations ***

         #    Occupation            Energy/Eh            Energy/eV
      -------------------------------------------------------------
         1        2.0000           -0.7493130             -20.3898
       ...           ...                  ...                  ...
        50        2.0000           -0.4252904             -11.5727
        51        2.0000           -0.4204455             -11.4409
        52        2.0000           -0.4133407             -11.2476
        53        2.0000           -0.4031770             -10.9710
        54        2.0000           -0.3962513             -10.7825
        55        2.0000           -0.3799602             -10.3392
        56        2.0000           -0.3549285              -9.6581 (HOMO)
        57                         -0.2478298              -6.7438 (LUMO)
        58                         -0.2311762              -6.2906
        59                         -0.1959500              -5.3321
        60                         -0.1595891              -4.3426
        61                         -0.0745161              -2.0277
       ...                                ...                  ...
       105                          0.7054692              19.1968
      -------------------------------------------------------------
                  HL-Gap            0.1070987 Eh            2.9143 eV
             Fermi-level           -0.3013791 Eh           -8.2009 eV

 SCC (total)                   0 d,  0 h,  0 min,  0.092 sec
 SCC setup                      ...        0 min,  0.000 sec (  0.396%)
 Dispersion                     ...        0 min,  0.000 sec (  0.493%)
 classical contributions        ...        0 min,  0.000 sec (  0.159%)
 integral evaluation            ...        0 min,  0.008 sec (  8.201%)
 iterations                     ...        0 min,  0.024 sec ( 26.001%)
 molecular gradient             ...        0 min,  0.059 sec ( 64.547%)
 printout                       ...        0 min,  0.000 sec (  0.196%)

         :::::::::::::::::::::::::::::::::::::::::::::::::::::
         ::                     SUMMARY                     ::
         :::::::::::::::::::::::::::::::::::::::::::::::::::::
         :: total energy             -62.281112983135 Eh    ::
         :: gradient norm              0.079408898814 Eh/a0 ::
         :: HOMO-LUMO gap              2.914303788654 eV    ::
         ::.................................................::
         :: SCC energy               -63.100922446626 Eh    ::
         :: -> isotropic ES            0.075537604307 Eh    ::
         :: -> anisotropic ES          0.011644275853 Eh    ::
         :: -> anisotropic XC          0.018698664443 Eh    ::
         :: -> dispersion             -0.044551598693 Eh    ::
         :: repulsion energy           0.819809463491 Eh    ::
         :: add. restraining           0.000000000000 Eh    ::
         :: total charge              -0.000000000000 e     ::
         :::::::::::::::::::::::::::::::::::::::::::::::::::::

      ----------------------------------------------------------- 
     |                   =====================                   |
     |                        A N C O P T                        |
     |                   =====================                   |
     |               Approximate Normal Coordinate               |
     |                Rational Function Optimizer                |
      ----------------------------------------------------------- 
      ----------------------------------------------------------- 
     |                   =====================                   |
     |                        A N C O P T                        |
     |                   =====================                   |
     |               Approximate Normal Coordinate               |
     |                Rational Function Optimizer                |
      ----------------------------------------------------------- 

          ...................................................
          :                      SETUP                      :
          :.................................................:
          :   optimization level            normal          :
          :   max. optcycles                   200          :
          :   ANC micro-cycles                  20          :
          :   degrees of freedom               120          :
          :.................................................:
          :   RF solver                   davidson          :
          :   write xtbopt.log                true          :
          :   linear?                        false          :
          :   energy convergence         0.5000000E-05 Eh   :
          :   grad. convergence          0.1000000E-02 Eh/α :
          :   maxmium RF displ.          1.0000000          :
          :   Hlow (freq-cutoff)         0.1000000E-01      :
          :   Hmax (freq-cutoff)         5.0000000          :
          :   S6 in model hess.         20.0000000          :
          ...................................................

generating ANC from exact Hessian ...
Using Lindh-Hessian (1995)
 Shifting diagonal of input Hessian by    9.4838849229133375E-003
 Lowest  eigenvalues of input Hessian
    0.000000    0.000000    0.000000    0.000000    0.000000    0.000000
    0.010000    0.010210    0.010681    0.011358    0.011664    0.012049
    0.013093    0.013573    0.013929    0.015497    0.015976    0.017069
 Highest eigenvalues
    1.832391    1.930681    1.985269    2.025374    2.126836    2.275575


........................................................................
.............................. CYCLE    1 ..............................
........................................................................

 iter      E             dE          RMSdq      gap      omega  full diag
   1    -63.1015363 -0.631015E+02  0.119E-04    2.91       0.0  T
   2    -63.1015363 -0.995186E-10  0.759E-05    2.91     203.4  T
   3    -63.1015363 -0.537241E-10  0.499E-05    2.91     309.4  T
     SCC iter.                  ...        0 min,  0.006 sec
     gradient                   ...        0 min,  0.060 sec
 * total energy  :   -62.2811130 Eh     change       -0.6835563E-09 Eh
   gradient norm :     0.0794108 Eh/α   predicted     0.0000000E+00 (-100.00%)
   displ. norm   :     0.2863135 α      lambda       -0.1028555E-01
   maximum displ.:     0.0832663 α      in ANC's #23, #34, #24, ...

........................................................................
.............................. CYCLE    2 ..............................
........................................................................

 iter      E             dE          RMSdq      gap      omega  full diag
   1    -63.1336467 -0.631336E+02  0.192E-01    3.13       0.0  T
   2    -63.1337421 -0.954584E-04  0.114E-01    3.11       1.0  T
   3    -63.1337335  0.862128E-05  0.328E-02    3.12       1.0  T
   4    -63.1337478 -0.142724E-04  0.905E-03    3.11       1.7  T
   5    -63.1337500 -0.224012E-05  0.334E-03    3.11       4.6  T
   6    -63.1337502 -0.160402E-06  0.170E-03    3.11       9.1  T
   7    -63.1337502 -0.292648E-07  0.736E-04    3.11      21.0  T
   8    -63.1337502 -0.804455E-08  0.271E-04    3.11      57.0  T
     SCC iter.                  ...        0 min,  0.015 sec
     gradient                   ...        0 min,  0.064 sec
 * total energy  :   -62.2880536 Eh     change       -0.6940644E-02 Eh
   gradient norm :     0.0304653 Eh/α   predicted    -0.5566715E-02 ( -19.80%)
   displ. norm   :     0.2363308 α      lambda       -0.2817431E-02
   maximum displ.:     0.0972475 α      in ANC's #12, #9, #7, ...

........................................................................
.............................. CYCLE    3 ..............................
........................................................................

 iter      E             dE          RMSdq      gap      omega  full diag
   1    -63.1490151 -0.631490E+02  0.105E-01    3.21       0.0  T
   2    -63.1490554 -0.402167E-04  0.632E-02    3.20       1.0  T
   3    -63.1490533  0.209417E-05  0.208E-02    3.20       1.0  T
   4    -63.1490576 -0.428137E-05  0.620E-03    3.20       2.5  T
   5    -63.1490587 -0.114482E-05  0.267E-03    3.20       5.8  T
   6    -63.1490589 -0.194873E-06  0.105E-03    3.20      14.8  T
   7    -63.1490589 -0.880872E-08  0.517E-04    3.20      29.8  T
   8    -63.1490589 -0.179001E-08  0.165E-04    3.20      93.6  T
     SCC iter.                  ...        0 min,  0.018 sec
     gradient                   ...        0 min,  0.080 sec
 * total energy  :   -62.2897357 Eh     change       -0.1682034E-02 Eh
   gradient norm :     0.0094139 Eh/α   predicted    -0.1488026E-02 ( -11.53%)
   displ. norm   :     0.1551719 α      lambda       -0.4719720E-03
   maximum displ.:     0.0733955 α      in ANC's #12, #7, #9, ...

........................................................................
.............................. CYCLE    4 ..............................
........................................................................

 iter      E             dE          RMSdq      gap      omega  full diag
   1    -63.1504651 -0.631505E+02  0.338E-02    3.21       0.0  T
   2    -63.1504688 -0.362911E-05  0.209E-02    3.21       1.0  T
   3    -63.1504671  0.166114E-05  0.924E-03    3.21       1.7  T
   4    -63.1504693 -0.223108E-05  0.299E-03    3.21       5.2  T
   5    -63.1504696 -0.264402E-06  0.920E-04    3.21      16.8  T
   6    -63.1504696 -0.131562E-07  0.399E-04    3.21      38.7  T
     SCC iter.                  ...        0 min,  0.012 sec
     gradient                   ...        0 min,  0.069 sec
 * total energy  :   -62.2900719 Eh     change       -0.3362706E-03 Eh
   gradient norm :     0.0054869 Eh/α   predicted    -0.2416705E-03 ( -28.13%)
   displ. norm   :     0.1827736 α      lambda       -0.2832116E-03
   maximum displ.:     0.0843651 α      in ANC's #7, #4, #12, ...

........................................................................
.............................. CYCLE    5 ..............................
........................................................................

 iter      E             dE          RMSdq      gap      omega  full diag
   1    -63.1499536 -0.631500E+02  0.340E-02    3.22       0.0  T
   2    -63.1499549 -0.127895E-05  0.206E-02    3.21       1.0  T
   3    -63.1499524  0.249681E-05  0.936E-03    3.22       1.6  T
   4    -63.1499555 -0.307194E-05  0.178E-03    3.22       8.7  T
   5    -63.1499556 -0.913511E-07  0.667E-04    3.22      23.1  T
   6    -63.1499556 -0.210238E-08  0.305E-04    3.22      50.6  T
     SCC iter.                  ...        0 min,  0.011 sec
     gradient                   ...        0 min,  0.025 sec
 * total energy  :   -62.2902557 Eh     change       -0.1837645E-03 Eh
   gradient norm :     0.0037821 Eh/α   predicted    -0.1463371E-03 ( -20.37%)
   displ. norm   :     0.1344813 α      lambda       -0.1019082E-03
   maximum displ.:     0.0759966 α      in ANC's #4, #7, #5, ...

........................................................................
.............................. CYCLE    6 ..............................
........................................................................

 iter      E             dE          RMSdq      gap      omega  full diag
   1    -63.1496042 -0.631496E+02  0.235E-02    3.22       0.0  T
   2    -63.1496046 -0.384879E-06  0.140E-02    3.22       1.1  T
   3    -63.1496039  0.745812E-06  0.506E-03    3.22       3.0  T
   4    -63.1496048 -0.892937E-06  0.102E-03    3.22      15.2  T
   5    -63.1496048 -0.278458E-07  0.434E-04    3.22      35.6  T
   6    -63.1496048 -0.144746E-08  0.178E-04    3.22      86.9  T
     SCC iter.                  ...        0 min,  0.012 sec
     gradient                   ...        0 min,  0.024 sec
 * total energy  :   -62.2903310 Eh     change       -0.7532674E-04 Eh
   gradient norm :     0.0032485 Eh/α   predicted    -0.5190614E-04 ( -31.09%)
   displ. norm   :     0.1516266 α      lambda       -0.8988127E-04
   maximum displ.:     0.0935062 α      in ANC's #4, #7, #2, ...

........................................................................
.............................. CYCLE    7 ..............................
........................................................................

 iter      E             dE          RMSdq      gap      omega  full diag
   1    -63.1495514 -0.631496E+02  0.303E-02    3.22       0.0  T
   2    -63.1495522 -0.813591E-06  0.180E-02    3.22       1.0  T
   3    -63.1495517  0.508761E-06  0.478E-03    3.22       3.2  T
   4    -63.1495524 -0.674069E-06  0.131E-03    3.22      11.8  T
   5    -63.1495524 -0.383828E-07  0.644E-04    3.22      24.0  T
   6    -63.1495524 -0.781750E-08  0.284E-04    3.22      54.4  T
     SCC iter.                  ...        0 min,  0.056 sec
     gradient                   ...        0 min,  0.024 sec
 * total energy  :   -62.2903998 Eh     change       -0.6879845E-04 Eh
   gradient norm :     0.0029774 Eh/α   predicted    -0.4597824E-04 ( -33.17%)
   displ. norm   :     0.1643672 α      lambda       -0.8258655E-04
   maximum displ.:     0.1039231 α      in ANC's #4, #7, #2, ...

........................................................................
.............................. CYCLE    8 ..............................
........................................................................

 iter      E             dE          RMSdq      gap      omega  full diag
   1    -63.1497097 -0.631497E+02  0.348E-02    3.22       0.0  T
   2    -63.1497104 -0.706433E-06  0.206E-02    3.22       1.0  T
   3    -63.1497102  0.179216E-06  0.356E-03    3.22       4.3  T
   4    -63.1497105 -0.353227E-06  0.133E-03    3.22      11.6  T
   5    -63.1497106 -0.269890E-07  0.728E-04    3.22      21.2  T
   6    -63.1497106 -0.842668E-08  0.331E-04    3.22      46.6  T
     SCC iter.                  ...        0 min,  0.062 sec
     gradient                   ...        0 min,  0.023 sec
 * total energy  :   -62.2904652 Eh     change       -0.6536613E-04 Eh
   gradient norm :     0.0029227 Eh/α   predicted    -0.4240940E-04 ( -35.12%)
   displ. norm   :     0.1962676 α      lambda       -0.8515707E-04
   maximum displ.:     0.1264450 α      in ANC's #4, #7, #2, ...

........................................................................
.............................. CYCLE    9 ..............................
........................................................................

 iter      E             dE          RMSdq      gap      omega  full diag
   1    -63.1498149 -0.631498E+02  0.444E-02    3.22       0.0  T
   2    -63.1498157 -0.820494E-06  0.262E-02    3.22       1.0  T
   3    -63.1498156  0.836793E-07  0.361E-03    3.22       4.3  T
   4    -63.1498159 -0.346840E-06  0.155E-03    3.22       9.9  T
   5    -63.1498160 -0.283271E-07  0.906E-04    3.22      17.0  T
   6    -63.1498160 -0.105810E-07  0.358E-04    3.22      43.2  T
     SCC iter.                  ...        0 min,  0.011 sec
     gradient                   ...        0 min,  0.075 sec
 * total energy  :   -62.2905315 Eh     change       -0.6629782E-04 Eh
   gradient norm :     0.0032661 Eh/α   predicted    -0.4422199E-04 ( -33.30%)
   displ. norm   :     0.2097633 α      lambda       -0.7810112E-04
   maximum displ.:     0.1363300 α      in ANC's #4, #7, #2, ...

........................................................................
.............................. CYCLE   10 ..............................
........................................................................

 iter      E             dE          RMSdq      gap      omega  full diag
   1    -63.1499944 -0.631500E+02  0.452E-02    3.21       0.0  T
   2    -63.1499949 -0.508165E-06  0.267E-02    3.21       1.0  T
   3    -63.1499950 -0.114508E-06  0.272E-03    3.21       5.7  T
   4    -63.1499952 -0.161276E-06  0.149E-03    3.21      10.4  T
   5    -63.1499952 -0.154417E-07  0.738E-04    3.21      20.9  T
   6    -63.1499952 -0.756920E-08  0.219E-04    3.21      70.3  T
     SCC iter.                  ...        0 min,  0.012 sec
     gradient                   ...        0 min,  0.023 sec
 * total energy  :   -62.2905902 Eh     change       -0.5874107E-04 Eh
   gradient norm :     0.0035019 Eh/α   predicted    -0.4077137E-04 ( -30.59%)
   displ. norm   :     0.1999896 α      lambda       -0.6621044E-04
   maximum displ.:     0.1326239 α      in ANC's #4, #2, #7, ...

........................................................................
.............................. CYCLE   11 ..............................
........................................................................

 iter      E             dE          RMSdq      gap      omega  full diag
   1    -63.1501572 -0.631502E+02  0.425E-02    3.21       0.0  T
   2    -63.1501579 -0.736998E-06  0.252E-02    3.21       1.0  T
   3    -63.1501579  0.558812E-07  0.340E-03    3.21       4.5  T
   4    -63.1501582 -0.305505E-06  0.129E-03    3.21      12.0  T
   5    -63.1501582 -0.876740E-08  0.814E-04    3.21      19.0  T
   6    -63.1501582 -0.601825E-08  0.366E-04    3.21      42.1  T
     SCC iter.                  ...        0 min,  0.011 sec
     gradient                   ...        0 min,  0.023 sec
 * total energy  :   -62.2906406 Eh     change       -0.5036397E-04 Eh
   gradient norm :     0.0034658 Eh/α   predicted    -0.3443073E-04 ( -31.64%)
   displ. norm   :     0.2159352 α      lambda       -0.6885638E-04
   maximum displ.:     0.1415638 α      in ANC's #4, #2, #7, ...

........................................................................
.............................. CYCLE   12 ..............................
........................................................................

 iter      E             dE          RMSdq      gap      omega  full diag
   1    -63.1505032 -0.631505E+02  0.420E-02    3.22       0.0  T
   2    -63.1505039 -0.752828E-06  0.249E-02    3.22       1.0  T
   3    -63.1505037  0.167827E-06  0.395E-03    3.22       3.9  T
   4    -63.1505042 -0.437990E-06  0.115E-03    3.22      13.4  T
   5    -63.1505042 -0.973714E-09  0.658E-04    3.22      23.5  T
   6    -63.1505042 -0.355898E-08  0.246E-04    3.22      62.8  T
     SCC iter.                  ...        0 min,  0.057 sec
     gradient                   ...        0 min,  0.023 sec
 * total energy  :   -62.2906922 Eh     change       -0.5162376E-04 Eh
   gradient norm :     0.0034266 Eh/α   predicted    -0.3603510E-04 ( -30.20%)
   displ. norm   :     0.2450086 α      lambda       -0.6697904E-04
   maximum displ.:     0.1601833 α      in ANC's #4, #2, #3, ...

........................................................................
.............................. CYCLE   13 ..............................
........................................................................

 iter      E             dE          RMSdq      gap      omega  full diag
   1    -63.1499839 -0.631500E+02  0.484E-02    3.21       0.0  T
   2    -63.1499852 -0.134494E-05  0.287E-02    3.21       1.0  T
   3    -63.1499850  0.218630E-06  0.443E-03    3.21       3.5  T
   4    -63.1499855 -0.521902E-06  0.139E-03    3.21      11.1  T
   5    -63.1499855 -0.162242E-07  0.854E-04    3.21      18.1  T
   6    -63.1499856 -0.485899E-08  0.463E-04    3.21      33.3  T
     SCC iter.                  ...        0 min,  0.011 sec
     gradient                   ...        0 min,  0.065 sec
 * total energy  :   -62.2907403 Eh     change       -0.4804019E-04 Eh
   gradient norm :     0.0037143 Eh/α   predicted    -0.3550265E-04 ( -26.10%)
   displ. norm   :     0.2118593 α      lambda       -0.7577441E-04
   maximum displ.:     0.1237731 α      in ANC's #4, #5, #2, ...

........................................................................
.............................. CYCLE   14 ..............................
........................................................................

 iter      E             dE          RMSdq      gap      omega  full diag
   1    -63.1511808 -0.631512E+02  0.384E-02    3.24       0.0  T
   2    -63.1511838 -0.304648E-05  0.231E-02    3.24       1.0  T
   3    -63.1511831  0.722597E-06  0.872E-03    3.24       1.8  T
   4    -63.1511845 -0.138581E-05  0.149E-03    3.24      10.4  T
   5    -63.1511845 -0.494291E-07  0.789E-04    3.24      19.5  T
   6    -63.1511845 -0.877726E-08  0.328E-04    3.24      47.0  T
     SCC iter.                  ...        0 min,  0.011 sec
     gradient                   ...        0 min,  0.024 sec
 * total energy  :   -62.2907820 Eh     change       -0.4173478E-04 Eh
   gradient norm :     0.0041473 Eh/α   predicted    -0.3958916E-04 (  -5.14%)
   displ. norm   :     0.2775501 α      lambda       -0.6869286E-04
   maximum displ.:     0.1787079 α      in ANC's #4, #2, #3, ...

........................................................................
.............................. CYCLE   15 ..............................
........................................................................

 iter      E             dE          RMSdq      gap      omega  full diag
   1    -63.1492589 -0.631493E+02  0.534E-02    3.21       0.0  T
   2    -63.1492600 -0.108943E-05  0.316E-02    3.21       1.0  T
   3    -63.1492598  0.199269E-06  0.435E-03    3.21       3.5  T
   4    -63.1492603 -0.544490E-06  0.178E-03    3.21       8.7  T
   5    -63.1492604 -0.364286E-07  0.106E-03    3.21      14.5  T
   6    -63.1492604 -0.130498E-07  0.351E-04    3.21      44.0  T
   7    -63.1492604 -0.114311E-08  0.112E-04    3.21     137.5  T
     SCC iter.                  ...        0 min,  0.013 sec
     gradient                   ...        0 min,  0.024 sec
 * total energy  :   -62.2908169 Eh     change       -0.3489060E-04 Eh
   gradient norm :     0.0044013 Eh/α   predicted    -0.3699689E-04 (   6.04%)
   displ. norm   :     0.0757604 α      lambda       -0.5673263E-04
   maximum displ.:     0.0374328 α      in ANC's #5, #3, #7, ...

........................................................................
.............................. CYCLE   16 ..............................
........................................................................

 iter      E             dE          RMSdq      gap      omega  full diag
   1    -63.1503941 -0.631504E+02  0.149E-02    3.22       0.0  T
   2    -63.1503953 -0.124374E-05  0.890E-03    3.22       1.7  T
   3    -63.1503953 -0.280375E-07  0.416E-03    3.22       3.7  T
   4    -63.1503955 -0.122114E-06  0.897E-04    3.22      17.2  T
   5    -63.1503955 -0.158966E-07  0.445E-04    3.22      34.7  T
     SCC iter.                  ...        0 min,  0.009 sec
     gradient                   ...        0 min,  0.062 sec
 * total energy  :   -62.2908577 Eh     change       -0.4082812E-04 Eh
   gradient norm :     0.0032518 Eh/α   predicted    -0.2853648E-04 ( -30.11%)
   displ. norm   :     0.2226082 α      lambda       -0.6529414E-04
   maximum displ.:     0.1188203 α      in ANC's #4, #5, #3, ...

........................................................................
.............................. CYCLE   17 ..............................
........................................................................

 iter      E             dE          RMSdq      gap      omega  full diag
   1    -63.1503251 -0.631503E+02  0.388E-02    3.23       0.0  T
   2    -63.1503262 -0.116845E-05  0.231E-02    3.22       1.0  T
   3    -63.1503256  0.691916E-06  0.559E-03    3.22       2.8  T
   4    -63.1503265 -0.966580E-06  0.153E-03    3.22      10.1  T
   5    -63.1503266 -0.384727E-07  0.853E-04    3.22      18.1  T
   6    -63.1503266 -0.123049E-07  0.341E-04    3.22      45.3  T
     SCC iter.                  ...        0 min,  0.011 sec
     gradient                   ...        0 min,  0.069 sec
 * total energy  :   -62.2909033 Eh     change       -0.4557225E-04 Eh
   gradient norm :     0.0028846 Eh/α   predicted    -0.3426512E-04 ( -24.81%)
   displ. norm   :     0.2050632 α      lambda       -0.4314479E-04
   maximum displ.:     0.1133176 α      in ANC's #4, #3, #5, ...

........................................................................
.............................. CYCLE   18 ..............................
........................................................................

 iter      E             dE          RMSdq      gap      omega  full diag
   1    -63.1501784 -0.631502E+02  0.349E-02    3.23       0.0  T
   2    -63.1501788 -0.417412E-06  0.207E-02    3.22       1.0  T
   3    -63.1501785  0.254234E-06  0.359E-03    3.22       4.3  T
   4    -63.1501790 -0.407274E-06  0.116E-03    3.22      13.2  T
   5    -63.1501790 -0.141875E-07  0.681E-04    3.22      22.7  T
   6    -63.1501790 -0.558739E-08  0.225E-04    3.22      68.6  T
     SCC iter.                  ...        0 min,  0.012 sec
     gradient                   ...        0 min,  0.071 sec
 * total energy  :   -62.2909357 Eh     change       -0.3237575E-04 Eh
   gradient norm :     0.0028583 Eh/α   predicted    -0.2248281E-04 ( -30.56%)
   displ. norm   :     0.1961551 α      lambda       -0.4655757E-04
   maximum displ.:     0.0991378 α      in ANC's #4, #3, #5, ...

........................................................................
.............................. CYCLE   19 ..............................
........................................................................

 iter      E             dE          RMSdq      gap      omega  full diag
   1    -63.1505963 -0.631506E+02  0.325E-02    3.23       0.0  T
   2    -63.1505967 -0.400232E-06  0.194E-02    3.22       1.0  T
   3    -63.1505965  0.155919E-06  0.324E-03    3.22       4.8  T
   4    -63.1505968 -0.289497E-06  0.992E-04    3.22      15.6  T
   5    -63.1505968 -0.666456E-08  0.609E-04    3.22      25.3  T
     SCC iter.                  ...        0 min,  0.009 sec
     gradient                   ...        0 min,  0.024 sec
 * total energy  :   -62.2909673 Eh     change       -0.3166071E-04 Eh
   gradient norm :     0.0023148 Eh/α   predicted    -0.2417549E-04 ( -23.64%)
   displ. norm   :     0.2113297 α      lambda       -0.3299631E-04
   maximum displ.:     0.1324667 α      in ANC's #4, #3, #5, ...

........................................................................
.............................. CYCLE   20 ..............................
........................................................................

 iter      E             dE          RMSdq      gap      omega  full diag
   1    -63.1495160 -0.631495E+02  0.373E-02    3.21       0.0  T
   2    -63.1495164 -0.357139E-06  0.221E-02    3.21       1.0  T
   3    -63.1495164 -0.151907E-07  0.227E-03    3.21       6.8  T
   4    -63.1495165 -0.125066E-06  0.106E-03    3.21      14.5  T
   5    -63.1495165 -0.744362E-08  0.562E-04    3.21      27.5  T
   6    -63.1495165 -0.117399E-08  0.225E-04    3.21      68.5  T
     SCC iter.                  ...        0 min,  0.056 sec
     gradient                   ...        0 min,  0.023 sec
 * total energy  :   -62.2909844 Eh     change       -0.1712553E-04 Eh
   gradient norm :     0.0035126 Eh/α   predicted    -0.1723931E-04 (   0.66%)
   displ. norm   :     0.1015396 α      lambda       -0.4215783E-04
   maximum displ.:     0.0661780 α      in ANC's #8, #7, #6, ...
 * RMSD in coord.:     0.4269207 α      energy gain  -0.9871460E-02 Eh

generating ANC from exact Hessian ...
Using Lindh-Hessian (1995)
 Shifting diagonal of input Hessian by    9.4620317930917634E-003
 Lowest  eigenvalues of input Hessian
    0.000000    0.000000    0.000000    0.000000    0.000000    0.000000
    0.010000    0.010217    0.010733    0.011360    0.011773    0.012220
    0.013186    0.013854    0.014159    0.015553    0.016291    0.017078
 Highest eigenvalues
    1.872044    1.984834    2.020128    2.077891    2.176725    2.376171


........................................................................
.............................. CYCLE   21 ..............................
........................................................................

 iter      E             dE          RMSdq      gap      omega  full diag
   1    -63.1512983 -0.631513E+02  0.205E-02    3.22       0.0  T
   2    -63.1512995 -0.120019E-05  0.122E-02    3.22       1.3  T
   3    -63.1512994  0.113064E-06  0.469E-03    3.22       3.3  T
   4    -63.1512996 -0.277212E-06  0.898E-04    3.22      17.2  T
   5    -63.1512997 -0.161838E-07  0.469E-04    3.22      32.9  T
     SCC iter.                  ...        0 min,  0.010 sec
     gradient                   ...        0 min,  0.024 sec
 * total energy  :   -62.2910009 Eh     change       -0.1647367E-04 Eh
   gradient norm :     0.0028784 Eh/α   predicted     0.0000000E+00 (-100.00%)
   displ. norm   :     0.0246066 α      lambda       -0.1837914E-04
   maximum displ.:     0.0111745 α      in ANC's #3, #2, #7, ...

........................................................................
.............................. CYCLE   22 ..............................
........................................................................

 iter      E             dE          RMSdq      gap      omega  full diag
   1    -63.1508235 -0.631508E+02  0.654E-03    3.22       0.0  T
   2    -63.1508236 -0.940465E-07  0.386E-03    3.22       4.0  T
   3    -63.1508235  0.215426E-07  0.127E-03    3.22      12.2  T
   4    -63.1508236 -0.304718E-07  0.363E-04    3.22      42.5  T
   5    -63.1508236 -0.356391E-08  0.132E-04    3.22     116.6  T
     SCC iter.                  ...        0 min,  0.009 sec
     gradient                   ...        0 min,  0.064 sec
 * total energy  :   -62.2910164 Eh     change       -0.1551357E-04 Eh
   gradient norm :     0.0013838 Eh/α   predicted    -0.9956718E-05 ( -35.82%)
   displ. norm   :     0.1000405 α      lambda       -0.2844010E-04
   maximum displ.:     0.0476293 α      in ANC's #3, #2, #1, ...

........................................................................
.............................. CYCLE   23 ..............................
........................................................................

 iter      E             dE          RMSdq      gap      omega  full diag
   1    -63.1498611 -0.631499E+02  0.212E-02    3.22       0.0  T
   2    -63.1498619 -0.791149E-06  0.126E-02    3.22       1.2  T
   3    -63.1498617  0.188326E-06  0.386E-03    3.22       4.0  T
   4    -63.1498620 -0.298850E-06  0.957E-04    3.22      16.1  T
   5    -63.1498620 -0.175919E-07  0.429E-04    3.22      36.0  T
     SCC iter.                  ...        0 min,  0.009 sec
     gradient                   ...        0 min,  0.062 sec
 * total energy  :   -62.2910362 Eh     change       -0.1977877E-04 Eh
   gradient norm :     0.0027426 Eh/α   predicted    -0.1428379E-04 ( -27.78%)
   displ. norm   :     0.0344810 α      lambda       -0.1185073E-04
   maximum displ.:     0.0181995 α      in ANC's #3, #2, #6, ...

........................................................................
.............................. CYCLE   24 ..............................
........................................................................

 iter      E             dE          RMSdq      gap      omega  full diag
   1    -63.1501382 -0.631501E+02  0.646E-03    3.22       0.0  T
   2    -63.1501383 -0.245686E-07  0.384E-03    3.22       4.0  T
   3    -63.1501383  0.140103E-07  0.809E-04    3.22      19.1  T
   4    -63.1501383 -0.207103E-07  0.241E-04    3.22      63.9  T
     SCC iter.                  ...        0 min,  0.007 sec
     gradient                   ...        0 min,  0.024 sec
 * total energy  :   -62.2910466 Eh     change       -0.1038203E-04 Eh
   gradient norm :     0.0022786 Eh/α   predicted    -0.5933127E-05 ( -42.85%)
   displ. norm   :     0.1332144 α      lambda       -0.3902533E-04
   maximum displ.:     0.0679135 α      in ANC's #3, #2, #6, ...

........................................................................
.............................. CYCLE   25 ..............................
........................................................................

 iter      E             dE          RMSdq      gap      omega  full diag
   1    -63.1508972 -0.631509E+02  0.256E-02    3.23       0.0  T
   2    -63.1508976 -0.383280E-06  0.153E-02    3.22       1.0  T
   3    -63.1508973  0.223552E-06  0.320E-03    3.22       4.8  T
   4    -63.1508977 -0.319943E-06  0.905E-04    3.22      17.0  T
   5    -63.1508977 -0.137885E-07  0.514E-04    3.22      30.0  T
     SCC iter.                  ...        0 min,  0.009 sec
     gradient                   ...        0 min,  0.024 sec
 * total energy  :   -62.2910741 Eh     change       -0.2747430E-04 Eh
   gradient norm :     0.0011061 Eh/α   predicted    -0.1985919E-04 ( -27.72%)
   displ. norm   :     0.2003858 α      lambda       -0.1980912E-04
   maximum displ.:     0.1069369 α      in ANC's #3, #2, #6, ...

........................................................................
.............................. CYCLE   26 ..............................
........................................................................

 iter      E             dE          RMSdq      gap      omega  full diag
   1    -63.1507838 -0.631508E+02  0.371E-02    3.22       0.0  T
   2    -63.1507842 -0.389003E-06  0.220E-02    3.22       1.0  T
   3    -63.1507841  0.352167E-07  0.267E-03    3.22       5.8  T
   4    -63.1507843 -0.191296E-06  0.108E-03    3.22      14.3  T
   5    -63.1507843 -0.488967E-08  0.673E-04    3.22      22.9  T
   6    -63.1507843 -0.526965E-08  0.244E-04    3.22      63.1  T
     SCC iter.                  ...        0 min,  0.011 sec
     gradient                   ...        0 min,  0.070 sec
 * total energy  :   -62.2910930 Eh     change       -0.1894613E-04 Eh
   gradient norm :     0.0015898 Eh/α   predicted    -0.1008207E-04 ( -46.79%)
   displ. norm   :     0.0900061 α      lambda       -0.9734423E-05
   maximum displ.:     0.0545708 α      in ANC's #3, #2, #6, ...

........................................................................
.............................. CYCLE   27 ..............................
........................................................................

 iter      E             dE          RMSdq      gap      omega  full diag
   1    -63.1508677 -0.631509E+02  0.171E-02    3.22       0.0  T
   2    -63.1508678 -0.157891E-06  0.102E-02    3.22       1.5  T
   3    -63.1508678  0.643373E-07  0.194E-03    3.22       7.9  T
   4    -63.1508679 -0.115683E-06  0.564E-04    3.22      27.4  T
   5    -63.1508679 -0.203664E-08  0.362E-04    3.22      42.7  T
     SCC iter.                  ...        0 min,  0.009 sec
     gradient                   ...        0 min,  0.063 sec
 * total energy  :   -62.2911049 Eh     change       -0.1185581E-04 Eh
   gradient norm :     0.0008900 Eh/α   predicted    -0.4887889E-05 ( -58.77%)
   displ. norm   :     0.0961695 α      lambda       -0.1108503E-04
   maximum displ.:     0.0637347 α      in ANC's #3, #2, #6, ...

........................................................................
.............................. CYCLE   28 ..............................
........................................................................

 iter      E             dE          RMSdq      gap      omega  full diag
   1    -63.1507998 -0.631508E+02  0.184E-02    3.22       0.0  T
   2    -63.1508000 -0.232404E-06  0.110E-02    3.22       1.4  T
   3    -63.1508000  0.700739E-07  0.213E-03    3.22       7.2  T
   4    -63.1508001 -0.128209E-06  0.675E-04    3.22      22.9  T
   5    -63.1508001 -0.598589E-08  0.402E-04    3.22      38.4  T
     SCC iter.                  ...        0 min,  0.009 sec
     gradient                   ...        0 min,  0.024 sec
 * total energy  :   -62.2911181 Eh     change       -0.1323966E-04 Eh
   gradient norm :     0.0007454 Eh/α   predicted    -0.5567684E-05 ( -57.95%)
   displ. norm   :     0.1005549 α      lambda       -0.9414561E-05
   maximum displ.:     0.0687628 α      in ANC's #3, #2, #6, ...

........................................................................
.............................. CYCLE   29 ..............................
........................................................................

 iter      E             dE          RMSdq      gap      omega  full diag
   1    -63.1507096 -0.631507E+02  0.180E-02    3.22       0.0  T
   2    -63.1507098 -0.181122E-06  0.107E-02    3.22       1.4  T
   3    -63.1507098  0.320404E-07  0.176E-03    3.22       8.8  T
   4    -63.1507099 -0.842344E-07  0.572E-04    3.22      27.0  T
   5    -63.1507099 -0.195667E-08  0.354E-04    3.22      43.6  T
     SCC iter.                  ...        0 min,  0.048 sec
     gradient                   ...        0 min,  0.024 sec
 * total energy  :   -62.2911296 Eh     change       -0.1150173E-04 Eh
   gradient norm :     0.0010198 Eh/α   predicted    -0.4730306E-05 ( -58.87%)
   displ. norm   :     0.0988844 α      lambda       -0.8186676E-05
   maximum displ.:     0.0688586 α      in ANC's #3, #2, #6, ...

........................................................................
.............................. CYCLE   30 ..............................
........................................................................

 iter      E             dE          RMSdq      gap      omega  full diag
   1    -63.1506524 -0.631507E+02  0.165E-02    3.22       0.0  T
   2    -63.1506525 -0.142366E-06  0.979E-03    3.22       1.6  T
   3    -63.1506525  0.174965E-07  0.148E-03    3.22      10.5  T
   4    -63.1506526 -0.575415E-07  0.490E-04    3.22      31.5  T
   5    -63.1506526 -0.818034E-09  0.306E-04    3.22      50.5  T
     SCC iter.                  ...        0 min,  0.009 sec
     gradient                   ...        0 min,  0.063 sec
 * total energy  :   -62.2911398 Eh     change       -0.1015980E-04 Eh
   gradient norm :     0.0009395 Eh/α   predicted    -0.4112311E-05 ( -59.52%)
   displ. norm   :     0.0987589 α      lambda       -0.7284897E-05
   maximum displ.:     0.0699434 α      in ANC's #3, #2, #5, ...

........................................................................
.............................. CYCLE   31 ..............................
........................................................................

 iter      E             dE          RMSdq      gap      omega  full diag
   1    -63.1506610 -0.631507E+02  0.154E-02    3.22       0.0  T
   2    -63.1506611 -0.132691E-06  0.913E-03    3.22       1.7  T
   3    -63.1506611  0.306623E-07  0.159E-03    3.22       9.7  T
   4    -63.1506612 -0.691786E-07  0.438E-04    3.22      35.2  T
   5    -63.1506612 -0.152284E-09  0.260E-04    3.22      59.4  T
     SCC iter.                  ...        0 min,  0.009 sec
     gradient                   ...        0 min,  0.024 sec
 * total energy  :   -62.2911484 Eh     change       -0.8657735E-05 Eh
   gradient norm :     0.0005749 Eh/α   predicted    -0.3658534E-05 ( -57.74%)
   displ. norm   :     0.0847711 α      lambda       -0.4919454E-05
   maximum displ.:     0.0616436 α      in ANC's #3, #2, #5, ...

........................................................................
.............................. CYCLE   32 ..............................
........................................................................

 iter      E             dE          RMSdq      gap      omega  full diag
   1    -63.1506614 -0.631507E+02  0.131E-02    3.22       0.0  T
   2    -63.1506615 -0.894707E-07  0.777E-03    3.22       2.0  T
   3    -63.1506615  0.318119E-07  0.139E-03    3.22      11.1  T
   4    -63.1506615 -0.576422E-07  0.420E-04    3.22      36.7  T
   5    -63.1506615 -0.141656E-08  0.273E-04    3.22      56.5  T
     SCC iter.                  ...        0 min,  0.009 sec
     gradient                   ...        0 min,  0.024 sec
 * total energy  :   -62.2911539 Eh     change       -0.5507970E-05 Eh
   gradient norm :     0.0004283 Eh/α   predicted    -0.2469172E-05 ( -55.17%)
   displ. norm   :     0.0562265 α      lambda       -0.2584728E-05
   maximum displ.:     0.0421086 α      in ANC's #3, #2, #5, ...

........................................................................
.............................. CYCLE   33 ..............................
........................................................................

 iter      E             dE          RMSdq      gap      omega  full diag
   1    -63.1507473 -0.631507E+02  0.861E-03    3.22       0.0  T
   2    -63.1507474 -0.541596E-07  0.512E-03    3.22       3.0  T
   3    -63.1507474  0.256868E-07  0.119E-03    3.22      12.9  T
   4    -63.1507474 -0.405895E-07  0.269E-04    3.22      57.4  T
   5    -63.1507474 -0.516494E-09  0.182E-04    3.22      85.0  T
     SCC iter.                  ...        0 min,  0.009 sec
     gradient                   ...        0 min,  0.069 sec
 * total energy  :   -62.2911568 Eh     change       -0.2865708E-05 Eh
   gradient norm :     0.0003051 Eh/α   predicted    -0.1295966E-05 ( -54.78%)
   displ. norm   :     0.0379059 α      lambda       -0.1376060E-05
   maximum displ.:     0.0287506 α      in ANC's #3, #2, #4, ...

   *** GEOMETRY OPTIMIZATION CONVERGED AFTER 33 ITERATIONS ***

------------------------------------------------------------------------
 total energy gain   :        -0.0100438 Eh       -6.3026 kcal/mol
 total RMSD          :         0.4936506 a0        0.2612 Å
 total power (kW/mol):        -0.7990921 (step)   -9.7550 (real)
------------------------------------------------------------------------

 ANCopt (total)                0 d,  0 h,  0 min,  2.703 sec
 optimizer setup                ...        0 min,  0.000 sec (  0.003%)
 model hessian                  ...        0 min,  0.039 sec (  1.446%)
 ANC generation                 ...        0 min,  0.003 sec (  0.112%)
 coordinate transformation      ...        0 min,  0.000 sec (  0.012%)
 single point calculation       ...        0 min,  2.569 sec ( 95.024%)
 optimization log               ...        0 min,  0.088 sec (  3.254%)
 hessian update                 ...        0 min,  0.000 sec (  0.018%)
 rational function              ...        0 min,  0.002 sec (  0.089%)

================
 final structure:
================
42
 xtb: 6.7.1 (edcfbbe)
C            3.36267885850995        2.32309084238062        1.19289422361392
C            3.61401590455067        1.44321486637139       -0.03380571330251
C            3.11266687440142        0.04511921410235        0.19669202750953
C            3.95482312130288       -0.99078440358644        0.55294964364040
C            3.48021555832684       -2.28077043844281        0.80374441476250
C            2.14148610110534       -2.58320538571896        0.71097848410499
C            1.25779329227958       -1.56480777318265        0.35437927700636
C            1.75583481571357       -0.26248457962885        0.10244951553742
N            0.69461328487132        0.53825880686923       -0.22425205895659
C           -0.45197250199157       -0.21312743190772       -0.18143464269393
C           -0.15304488931797       -1.50032641773484        0.16048721602975
C           -1.21749994729275       -2.53938932480151        0.27105075817050
C           -2.43690213210803       -2.02863234770449       -0.50555513439814
O           -2.78554133111115       -0.70333382173663       -0.15144052336144
C           -1.82774085668138        0.29322888986168       -0.47979527856645
C           -2.17369846349395        1.52249644388968        0.37945801326379
C           -2.06160974020972        1.22025598131551        1.86886947415927
C           -1.90945152680139        0.65593517822019       -2.00192352170613
C           -3.33522949079784        0.55569826922908       -2.47918219746674
O           -4.07087453270647        1.61028185282212       -2.10810104778441
O           -3.78688025701559       -0.35245487949014       -3.12130031927087
H            3.89278404869703        1.92241603439343        2.05359190503669
H            3.70990896588013        3.33840149364336        1.01358581325685
H            2.30268940723005        2.35567676061146        1.43596563846042
H            4.68511489449509        1.41605488374962       -0.24116996714818
H            3.11647075331075        1.87880352371222       -0.90491173716698
H            5.01474141471491       -0.79785728455323        0.63817947824415
H            4.18672374024908       -3.05074631415224        1.07739117646075
H            1.77745447577487       -3.58002437656231        0.90874176790762
H            0.74654864435273        1.51463428382255       -0.45415518909214
H           -0.88572227589825       -3.49315816936951       -0.14220627467032
H           -1.48253555271510       -2.69542280521211        1.32120038682811
H           -2.24646405783744       -2.09467167367555       -1.58414109885378
H           -3.32654303878198       -2.61754754818207       -0.27364804947770
H           -3.19433569121237        1.82113405970760        0.14228090332867
H           -1.50581144994705        2.34433927586465        0.11352379725637
H           -2.36017303526053        2.08874443570059        2.45096130321967
H           -1.04056928307701        0.95493222978961        2.13541607584467
H           -2.71095816634340        0.38739415851349        2.12211693702624
H           -1.30590824759375       -0.04347332302323       -2.58153095161463
H           -1.54507040871426        1.67111173467054       -2.15062269410436
H           -4.99232727885888        1.49089507942229       -2.38773183103129

 Bond Distances (Angstroems)
 ---------------------------
C1-C2=1.5304         C1-H22=1.0874        C1-H23=1.0879        C1-H24=1.0880        C2-C1=1.5304         C2-C3=1.5030         
C2-H25=1.0913        C2-H26=1.0937        C3-C2=1.5030         C3-C4=1.3818         C3-C8=1.3945         C4-C3=1.3818         
C4-C5=1.3972         C4-H27=1.0807        C5-C4=1.3972         C5-C6=1.3756         C5-H28=1.0802        C6-C5=1.3756         
C6-C7=1.3947         C6-H29=1.0795        C7-C6=1.3947         C7-C8=1.4169         C7-C11=1.4256        C8-C3=1.3945         
C8-C7=1.4169         C8-N9=1.3690         N9-C8=1.3690         N9-C10=1.3715        N9-H30=1.0044        C10-N9=1.3715        
C10-C11=1.3650       C10-C15=1.4960       C11-C7=1.4256        C11-C10=1.3650       C11-C12=1.4916       C12-C11=1.4916       
C12-C13=1.5333       C12-H31=1.0911       C12-H32=1.0943       C13-C12=1.5333       C13-O14=1.4154       C13-H33=1.0973       
C13-H34=1.0918       O14-C13=1.4154       O14-C15=1.4207       C15-C10=1.4960       C15-O14=1.4207       C15-C16=1.5392       
C15-C18=1.5669       C16-C15=1.5392       C16-C17=1.5239       C16-H35=1.0896       C16-H36=1.0919       C17-C16=1.5239       
C17-H37=1.0873       C17-H38=1.0881       C17-H39=1.0860       C18-C15=1.5669       C18-C19=1.5069       C18-H40=1.0906       
C18-H41=1.0888       C19-C18=1.5069       C19-O20=1.3383       C19-O21=1.2004       O20-C19=1.3383       O20-H42=0.9703       
O21-C19=1.2004       H22-C1=1.0874        H23-C1=1.0879        H24-C1=1.0880        H25-C2=1.0913        H26-C2=1.0937        
H27-C4=1.0807        H28-C5=1.0802        H29-C6=1.0795        H30-N9=1.0044        H31-C12=1.0911       H32-C12=1.0943       
H33-C13=1.0973       H34-C13=1.0918       H35-C16=1.0896       H36-C16=1.0919       H37-C17=1.0873       H38-C17=1.0881       
H39-C17=1.0860       H40-C18=1.0906       H41-C18=1.0888       H42-O20=0.9703       
 C  H  Rav=1.0887 sigma=0.0046  Rmin=1.0795  Rmax=1.0973    19
 C  C  Rav=1.4613 sigma=0.0670  Rmin=1.3650  Rmax=1.5669    17
 N  H  Rav=1.0044 sigma=0.0000  Rmin=1.0044  Rmax=1.0044     1
 N  C  Rav=1.3703 sigma=0.0013  Rmin=1.3690  Rmax=1.3715     2
 O  H  Rav=0.9703 sigma=0.0000  Rmin=0.9703  Rmax=0.9703     1
 O  C  Rav=1.3437 sigma=0.0889  Rmin=1.2004  Rmax=1.4207     4

 selected bond angles (degree)
 --------------------
H22-C1-C2=110.03               H23-C1-C2=110.61               H23-C1-H22=108.59              H24-C1-C2=110.87               
H24-C1-H22=108.01              H24-C1-H23=108.65              C3-C2-C1=110.92                H25-C2-C1=109.14               
H25-C2-C3=109.47               H26-C2-C1=109.56               H26-C2-C3=109.93               H26-C2-H25=107.76              
C4-C3-C2=122.25                C8-C3-C2=121.29                C8-C3-C4=116.43                C5-C4-C3=122.10                
H27-C4-C3=118.96               H27-C4-C5=118.93               C6-C5-C4=121.43                H28-C5-C4=118.78               
H28-C5-C6=119.79               C7-C6-C5=118.25                H29-C6-C5=121.26               H29-C6-C7=120.49               
C8-C7-C6=119.60                C11-C7-C6=134.02               C11-C7-C8=106.39               C7-C8-C3=122.19                
N9-C8-C3=129.89                N9-C8-C7=107.91                C10-N9-C8=108.67               H30-N9-C8=125.67               
H30-N9-C10=125.66              C11-C10-N9=109.96              C15-C10-N9=125.25              C15-C10-C11=124.79             

 selected dihedral angles (degree)
 ---------------------------------
C3-C2-C1-H22= 61.12           C3-C2-C1-H23=181.09           C3-C2-C1-H24=301.70           H25-C2-C1-H22=300.43          
H25-C2-C1-H23= 60.40          H25-C2-C1-H24=181.01          H26-C2-C1-H22=182.66          H26-C2-C1-H23=302.63          
H26-C2-C1-H24= 63.24          C4-C3-C2-C1=260.24            C4-C3-C2-H25= 20.73           C4-C3-C2-H26=138.92           
C8-C3-C2-C1= 78.12            C8-C3-C2-H25=198.61           C8-C3-C2-H26=316.80           C5-C4-C3-C2=178.13            
C5-C4-C3-C8=  0.15            H27-C4-C3-C2=357.99           H27-C4-C3-C8=180.01           C6-C5-C4-C3=359.82            
C6-C5-C4-H27=179.96           H28-C5-C4-C3=179.92           H28-C5-C4-H27=  0.06          C7-C6-C5-C4=  0.15            
C7-C6-C5-H28=180.04           H29-C6-C5-C4=180.22           H29-C6-C5-H28=  0.12          C8-C7-C6-C5=359.91            
C8-C7-C6-H29=179.83           C11-C7-C6-C5=179.83           C11-C7-C6-H29=359.76          C7-C8-C3-C2=181.90            
C7-C8-C3-C4=359.90            N9-C8-C3-C2=  2.01            N9-C8-C3-C4=180.01            C3-C8-C7-C6=  0.07            
C3-C8-C7-C11=180.13           N9-C8-C7-C6=179.98            N9-C8-C7-C11=  0.04           C10-N9-C8-C3=180.13           
C10-N9-C8-C7=  0.23           H30-N9-C8-C3=359.94           H30-N9-C8-C7=180.04           C11-C10-N9-C8=359.57          
C11-C10-N9-H30=179.75         C15-C10-N9-C8=180.23          C15-C10-N9-H30=  0.41         
           -------------------------------------------------
          |                Final Singlepoint                |
           -------------------------------------------------

          ...................................................
          :                      SETUP                      :
          :.................................................:
          :  # basis functions                 105          :
          :  # atomic orbitals                 105          :
          :  # shells                           63          :
          :  # electrons                       112          :
          :  max. iterations                   250          :
          :  Hamiltonian                  GFN2-xTB          :
          :  restarted?                      false          :
          :  GBSA solvation                  false          :
          :  PC potential                    false          :
          :  electronic temp.          300.0000000     K    :
          :  accuracy                    1.0000000          :
          :  -> integral cutoff          0.2500000E+02      :
          :  -> integral neglect         0.1000000E-07      :
          :  -> SCF convergence          0.1000000E-05 Eh   :
          :  -> wf. convergence          0.1000000E-03 e    :
          :  Broyden damping             0.4000000          :
          :  net charge                          0          :
          :  unpaired electrons                  0          :
          ...................................................

 iter      E             dE          RMSdq      gap      omega  full diag
   1    -63.1507474 -0.631507E+02  0.645E-05    3.22       0.0  T
   2    -63.1507474 -0.140545E-10  0.434E-05    3.22     355.8  T
   3    -63.1507474 -0.152767E-11  0.313E-05    3.22     493.2  T

   *** convergence criteria satisfied after 3 iterations ***

         #    Occupation            Energy/Eh            Energy/eV
      -------------------------------------------------------------
         1        2.0000           -0.7470722             -20.3289
       ...           ...                  ...                  ...
        50        2.0000           -0.4243284             -11.5466
        51        2.0000           -0.4185080             -11.3882
        52        2.0000           -0.4119199             -11.2089
        53        2.0000           -0.4050454             -11.0218
        54        2.0000           -0.3951540             -10.7527
        55        2.0000           -0.3764738             -10.2444
        56        2.0000           -0.3575727              -9.7300 (HOMO)
        57                         -0.2391494              -6.5076 (LUMO)
        58                         -0.2241020              -6.0981
        59                         -0.1949439              -5.3047
        60                         -0.1552578              -4.2248
        61                         -0.0699602              -1.9037
       ...                                ...                  ...
       105                          0.7211005              19.6221
      -------------------------------------------------------------
                  HL-Gap            0.1184233 Eh            3.2225 eV
             Fermi-level           -0.2983610 Eh           -8.1188 eV

 SCC (total)                   0 d,  0 h,  0 min,  0.080 sec
 SCC setup                      ...        0 min,  0.000 sec (  0.358%)
 Dispersion                     ...        0 min,  0.000 sec (  0.421%)
 classical contributions        ...        0 min,  0.000 sec (  0.174%)
 integral evaluation            ...        0 min,  0.007 sec (  9.147%)
 iterations                     ...        0 min,  0.006 sec (  7.199%)
 molecular gradient             ...        0 min,  0.066 sec ( 82.465%)
 printout                       ...        0 min,  0.000 sec (  0.226%)

         :::::::::::::::::::::::::::::::::::::::::::::::::::::
         ::                     SUMMARY                     ::
         :::::::::::::::::::::::::::::::::::::::::::::::::::::
         :: total energy             -62.291156800896 Eh    ::
         :: gradient norm              0.000304949850 Eh/a0 ::
         :: HOMO-LUMO gap              3.222462186065 eV    ::
         ::.................................................::
         :: SCC energy               -63.150072329053 Eh    ::
         :: -> isotropic ES            0.074612896485 Eh    ::
         :: -> anisotropic ES          0.009063890493 Eh    ::
         :: -> anisotropic XC          0.017570651164 Eh    ::
         :: -> dispersion             -0.045505882846 Eh    ::
         :: repulsion energy           0.858915528157 Eh    ::
         :: add. restraining           0.000000000000 Eh    ::
         :: total charge              -0.000000000000 e     ::
         :::::::::::::::::::::::::::::::::::::::::::::::::::::

           -------------------------------------------------
          |                Property Printout                |
           -------------------------------------------------

    * Orbital Energies and Occupations

         #    Occupation            Energy/Eh            Energy/eV
      -------------------------------------------------------------
         1        2.0000           -0.7470722             -20.3289
       ...           ...                  ...                  ...
        44        2.0000           -0.4545504             -12.3689
        45        2.0000           -0.4475420             -12.1782
        46        2.0000           -0.4430254             -12.0553
        47        2.0000           -0.4410474             -12.0015
        48        2.0000           -0.4358312             -11.8596
        49        2.0000           -0.4296262             -11.6907
        50        2.0000           -0.4243284             -11.5466
        51        2.0000           -0.4185080             -11.3882
        52        2.0000           -0.4119199             -11.2089
        53        2.0000           -0.4050454             -11.0218
        54        2.0000           -0.3951540             -10.7527
        55        2.0000           -0.3764738             -10.2444
        56        2.0000           -0.3575727              -9.7300 (HOMO)
        57                         -0.2391494              -6.5076 (LUMO)
        58                         -0.2241020              -6.0981
        59                         -0.1949439              -5.3047
        60                         -0.1552578              -4.2248
        61                         -0.0699602              -1.9037
        62                         -0.0011402              -0.0310
        63                          0.0125474               0.3414
        64                          0.0444352               1.2091
        65                          0.0592733               1.6129
        66                          0.0739091               2.0112
        67                          0.0858022               2.3348
       ...                                ...                  ...
       105                          0.7211005              19.6221
      -------------------------------------------------------------
                  HL-Gap            0.1184233 Eh            3.2225 eV
             Fermi-level           -0.2983610 Eh           -8.1188 eV

     #   Z          covCN         q      C6AA      α(0)
     1   6 C        3.753    -0.098    22.436     6.754
     2   6 C        3.805    -0.056    21.569     6.612
     3   6 C        2.960    -0.011    28.286     8.723
     4   6 C        2.929    -0.047    29.165     8.857
     5   6 C        2.919    -0.043    29.060     8.840
     6   6 C        2.911    -0.041    29.008     8.832
     7   6 C        3.108    -0.022    28.401     8.731
     8   6 C        3.094     0.037    27.057     8.525
     9   7 N        2.774    -0.119    23.585     7.213
    10   6 C        3.089     0.018    27.515     8.598
    11   6 C        3.071    -0.033    28.742     8.791
    12   6 C        3.805    -0.064    21.723     6.635
    13   6 C        3.698     0.079    19.413     6.302
    14   8 O        1.700    -0.322    19.391     5.945
    15   6 C        3.794     0.146    18.234     6.081
    16   6 C        3.804    -0.062    21.687     6.630
    17   6 C        3.752    -0.103    22.534     6.770
    18   6 C        3.804    -0.101    22.417     6.740
    19   6 C        2.689     0.372    20.703     7.446
    20   8 O        1.660    -0.375    20.363     6.092
    21   8 O        0.856    -0.405    21.782     6.257
    22   1 H        0.925     0.038     2.469     2.457
    23   1 H        0.925     0.034     2.532     2.488
    24   1 H        0.925     0.031     2.568     2.506
    25   1 H        0.924     0.037     2.486     2.466
    26   1 H        0.924     0.026     2.640     2.541
    27   1 H        0.926     0.026     2.637     2.540
    28   1 H        0.926     0.026     2.648     2.545
    29   1 H        0.926     0.027     2.625     2.534
    30   1 H        0.860     0.159     1.340     1.813
    31   1 H        0.924     0.041     2.435     2.440
    32   1 H        0.924     0.047     2.361     2.403
    33   1 H        0.924     0.031     2.574     2.509
    34   1 H        0.924     0.049     2.330     2.387
    35   1 H        0.925     0.060     2.193     2.316
    36   1 H        0.924     0.029     2.601     2.522
    37   1 H        0.925     0.038     2.473     2.459
    38   1 H        0.925     0.037     2.485     2.465
    39   1 H        0.925     0.055     2.256     2.349
    40   1 H        0.924     0.064     2.157     2.297
    41   1 H        0.925     0.060     2.193     2.316
    42   1 H        0.804     0.331     0.636     1.253

 Mol. C6AA /au·bohr⁶  :      17928.763768
 Mol. C8AA /au·bohr⁸  :     415631.592249
 Mol. α(0) /au        :        204.980473


Wiberg/Mayer (AO) data.
largest (>0.10) Wiberg bond orders for each atom

 ---------------------------------------------------------------------------
     #   Z sym  total        # sym  WBO       # sym  WBO       # sym  WBO
 ---------------------------------------------------------------------------
     1   6 C    3.996 --     2 C    1.003    22 H    0.989    24 H    0.988
                            23 H    0.987
     2   6 C    3.997 --     3 C    1.009     1 C    1.003    25 H    0.976
                            26 H    0.972
     3   6 C    3.985 --     4 C    1.465     8 C    1.316     2 C    1.009
                             6 C    0.109
     4   6 C    3.987 --     3 C    1.465     5 C    1.373    27 H    0.970
     5   6 C    3.991 --     6 C    1.505     4 C    1.373    28 H    0.972
     6   6 C    3.988 --     5 C    1.505     7 C    1.326    29 H    0.970
                             3 C    0.109
     7   6 C    3.983 --     6 C    1.326     8 C    1.251    11 C    1.205
     8   6 C    3.953 --     3 C    1.316     7 C    1.251     9 N    1.167
     9   7 N    3.524 --    10 C    1.171     8 C    1.167    30 H    0.943
    10   6 C    3.950 --    11 C    1.550     9 N    1.171    15 C    0.988
    11   6 C    3.974 --    10 C    1.550     7 C    1.205    12 C    1.015
    12   6 C    3.997 --    11 C    1.015    13 C    0.994    31 H    0.969
                            32 H    0.963
    13   6 C    3.951 --    12 C    0.994    14 O    0.978    34 H    0.970
                            33 H    0.970
    14   8 O    2.082 --    13 C    0.978    15 C    0.973
    15   6 C    3.953 --    10 C    0.988    14 O    0.973    16 C    0.969
                            18 C    0.923
    16   6 C    3.991 --    17 C    1.019    36 H    0.975    35 H    0.971
                            15 C    0.969
    17   6 C    3.994 --    16 C    1.019    37 H    0.987    38 H    0.987
                            39 H    0.985
    18   6 C    3.991 --    19 C    0.978    40 H    0.973    41 H    0.965
                            15 C    0.923
    19   6 C    3.913 --    21 O    1.771    20 O    1.131    18 C    0.978
    20   8 O    2.200 --    19 C    1.131    42 H    0.865    21 O    0.173
    21   8 O    2.041 --    19 C    1.771    20 O    0.173
    22   1 H    0.999 --     1 C    0.989
    23   1 H    0.998 --     1 C    0.987
    24   1 H    0.999 --     1 C    0.988
    25   1 H    0.998 --     2 C    0.976
    26   1 H    0.999 --     2 C    0.972
    27   1 H    0.999 --     4 C    0.970
    28   1 H    0.999 --     5 C    0.972
    29   1 H    0.998 --     6 C    0.970
    30   1 H    0.974 --     9 N    0.943
    31   1 H    0.998 --    12 C    0.969
    32   1 H    0.997 --    12 C    0.963
    33   1 H    0.999 --    13 C    0.970
    34   1 H    0.997 --    13 C    0.970
    35   1 H    0.996 --    16 C    0.971
    36   1 H    0.999 --    16 C    0.975
    37   1 H    0.998 --    17 C    0.987
    38   1 H    0.999 --    17 C    0.987
    39   1 H    0.997 --    17 C    0.985
    40   1 H    0.996 --    18 C    0.973
    41   1 H    0.996 --    18 C    0.965
    42   1 H    0.890 --    20 O    0.865
 ---------------------------------------------------------------------------

Topologies differ in total number of bonds
Writing topology from bond orders to xtbtopo.mol

molecular dipole:
                 x           y           z       tot (Debye)
 q only:        0.325       0.993       0.343
   full:        0.297       1.246       0.146       3.276
molecular quadrupole (traceless):
                xx          xy          yy          xz          yz          zz
 q only:       -1.358      -3.469       6.790      -5.528      -4.543      -5.431
  q+dip:        1.673      -3.382       7.634      -3.808      -7.872      -9.307
   full:       -0.188      -3.358       6.812      -4.494      -7.060      -6.625

           -------------------------------------------------
          |                Geometry Summary                 |
           -------------------------------------------------

      molecular mass/u    :      287.3541840
   center of mass at/Å    :       -0.2515150      -0.1728063      -0.2559362
  moments of inertia/u·Å² :        0.8904715E+03   0.2546661E+04   0.2895139E+04
rotational constants/cm⁻¹ :        0.1893113E-01   0.6619504E-02   0.5822736E-02

 * 41 selected distances

     #   Z          #   Z                                           value/Å
     1   6 C        2   6 C                                       1.5304069
     3   6 C        4   6 C                                       1.3817537
     4   6 C        5   6 C                                       1.3972168
     5   6 C        6   6 C                                       1.3755978
     6   6 C        7   6 C                                       1.3947079
     3   6 C        8   6 C                                       1.3944516
     7   6 C        8   6 C                                       1.4168839
     8   6 C        9   7 N                                       1.3689833
     9   7 N       10   6 C                                       1.3715225
     7   6 C       11   6 C                                       1.4255584
    10   6 C       11   6 C                                       1.3649725
    11   6 C       12   6 C                                       1.4916236
    12   6 C       13   6 C                                       1.5332748
    13   6 C       14   8 O                                       1.4154021
    10   6 C       15   6 C                                       1.4960464
    14   8 O       15   6 C                                       1.4206816
    15   6 C       16   6 C                                       1.5391888 (max)
    16   6 C       17   6 C                                       1.5238964
    19   6 C       20   8 O                                       1.3382906
    19   6 C       21   8 O                                       1.2004360
     1   6 C       22   1 H                                       1.0873604
     1   6 C       23   1 H                                       1.0879229
     1   6 C       24   1 H                                       1.0879905
     2   6 C       25   1 H                                       1.0913253
     2   6 C       26   1 H                                       1.0936702
     4   6 C       27   1 H                                       1.0806998
     5   6 C       28   1 H                                       1.0802312
     6   6 C       29   1 H                                       1.0794803
     9   7 N       30   1 H                                       1.0044212
    12   6 C       31   1 H                                       1.0911155
    12   6 C       32   1 H                                       1.0942599
    13   6 C       33   1 H                                       1.0972583
    13   6 C       34   1 H                                       1.0918165
    16   6 C       35   1 H                                       1.0895586
    16   6 C       36   1 H                                       1.0918882
    17   6 C       37   1 H                                       1.0873101
    17   6 C       38   1 H                                       1.0881028
    17   6 C       39   1 H                                       1.0860233
    18   6 C       40   1 H                                       1.0905878
    18   6 C       41   1 H                                       1.0887923
    20   8 O       42   1 H                                       0.9703205 (min)

 * 6 distinct bonds (by element types)

   Z      Z             #   av. dist./Å        max./Å        min./Å
   1 H    6 C          19     1.0887049     1.0972583     1.0794803
   6 C    6 C          14     1.4475414     1.5391888     1.3649725
   1 H    7 N           1     1.0044212     1.0044212     1.0044212
   6 C    7 N           2     1.3702529     1.3715225     1.3689833
   1 H    8 O           1     0.9703205     0.9703205     0.9703205
   6 C    8 O           4     1.3437026     1.4206816     1.2004360


optimized geometry written to: xtbopt.xyz


           -------------------------------------------------
          | TOTAL ENERGY              -62.291156800896 Eh   |
          | GRADIENT NORM               0.000304949850 Eh/α |
          | HOMO-LUMO GAP               3.222462186065 eV   |
           -------------------------------------------------

------------------------------------------------------------------------
 * finished run on 2025/05/15 at 16:18:21.801     
------------------------------------------------------------------------
 total:
 * wall-time:     0 d,  0 h,  0 min,  2.897 sec
 *  cpu-time:     0 d,  0 h,  0 min,  1.566 sec
 * ratio c/w:     0.540 speedup
 SCF:
 * wall-time:     0 d,  0 h,  0 min,  0.092 sec
 *  cpu-time:     0 d,  0 h,  0 min,  0.055 sec
 * ratio c/w:     0.603 speedup
 ANC optimizer:
 * wall-time:     0 d,  0 h,  0 min,  2.786 sec
 *  cpu-time:     0 d,  0 h,  0 min,  1.498 sec
 * ratio c/w:     0.538 speedup



----- Single-point -----
      -----------------------------------------------------------      
     |                   =====================                   |     
     |                           x T B                           |     
     |                   =====================                   |     
     |                         S. Grimme                         |     
     |          Mulliken Center for Theoretical Chemistry        |     
     |                    University of Bonn                     |     
      -----------------------------------------------------------      

   * xtb version 6.7.1 (edcfbbe) compiled by 'conda@3ef47c1a292c' on 2024-11-25

   xtb is free software: you can redistribute it and/or modify it under
   the terms of the GNU Lesser General Public License as published by
   the Free Software Foundation, either version 3 of the License, or
   (at your option) any later version.
   
   xtb is distributed in the hope that it will be useful,
   but WITHOUT ANY WARRANTY; without even the implied warranty of
   MERCHANTABILITY or FITNESS FOR A PARTICULAR PURPOSE.  See the
   GNU Lesser General Public License for more details.
   
   Cite this work as:
   * C. Bannwarth, E. Caldeweyher, S. Ehlert, A. Hansen, P. Pracht,
     J. Seibert, S. Spicher, S. Grimme, WIREs Comput. Mol. Sci., 2020, 11,
     e01493. DOI: 10.1002/wcms.1493
   
   for GFN2-xTB:
   * C. Bannwarth, S. Ehlert and S. Grimme., J. Chem. Theory Comput., 2019,
     15, 1652-1671. DOI: 10.1021/acs.jctc.8b01176
   for GFN1-xTB:
   * S. Grimme, C. Bannwarth, P. Shushkov, J. Chem. Theory Comput., 2017,
     13, 1989-2009. DOI: 10.1021/acs.jctc.7b00118
   for GFN0-xTB:
   * P. Pracht, E. Caldeweyher, S. Ehlert, S. Grimme, ChemRxiv, 2019, preprint.
     DOI: 10.26434/chemrxiv.8326202.v1
[...]
   for GFN-FF:
   * S. Spicher and S. Grimme, Angew. Chem. Int. Ed., 2020, 59, 15665-15673.
     DOI: 10.1002/anie.202004239
   
   for ALPB and GBSA implicit solvation:
   * S. Ehlert, M. Stahn, S. Spicher, S. Grimme, J. Chem. Theory Comput.,
     2021, 17, 4250-4261. DOI: 10.1021/acs.jctc.1c00471
   
   for ddCOSMO and CPCM-X implicit solvation:
   * M. Stahn, S. Ehlert, S. Grimme, J. Phys. Chem. A,
     2023, XX, XXXX-XXXX. DOI: 10.1021/acs.jpca.3c04382
   
   for DFT-D4:
   * E. Caldeweyher, C. Bannwarth and S. Grimme, J. Chem. Phys., 2017,
     147, 034112. DOI: 10.1063/1.4993215
   * E. Caldeweyher, S. Ehlert, A. Hansen, H. Neugebauer, S. Spicher,
     C. Bannwarth and S. Grimme, J. Chem. Phys., 2019, 150, 154122.
     DOI: 10.1063/1.5090222
   * E. Caldeweyher, J.-M. Mewes, S. Ehlert and S. Grimme, Phys. Chem. Chem. Phys.
     2020, 22, 8499-8512. DOI: 10.1039/D0CP00502A
   
   for sTDA-xTB:
   * S. Grimme and C. Bannwarth, J. Chem. Phys., 2016, 145, 054103.
     DOI: 10.1063/1.4959605
   
   in the mass-spec context:
   * V. Asgeirsson, C. Bauer and S. Grimme, Chem. Sci., 2017, 8, 4879.
     DOI: 10.1039/c7sc00601b
   * J. Koopman and S. Grimme, ACS Omega 2019, 4, 12, 15120-15133.
     DOI: 10.1021/acsomega.9b02011
   
   for metadynamics refer to:
   * S. Grimme, J. Chem. Theory Comput., 2019, 155, 2847-2862
     DOI: 10.1021/acs.jctc.9b00143
   
   for SPH calculations refer to:
   * S. Spicher and S. Grimme, J. Chem. Theory Comput., 2021, 17, 1701-1714
     DOI: 10.1021/acs.jctc.0c01306
   
   for ONIOM refer to:
   * C. Plett, A. Katbashev, S. Ehlert, S. Grimme, M. Bursch,
     Phys. Chem. Chem. Phys., 2023, 25, 17860-17868. DOI: 10.1039/D3CP02178E
   
   for DIPRO refer to:
   * J. Kohn, N. Gildemeister, S. Grimme, D. Fazzi, A. Hansen,
     J. Chem. Phys., 2023, just accepted.
   
   for PTB refer to:
   * S. Grimme, M. Mueller, A. Hansen, J. Chem. Phys., 2023, 158, 124111.
     DOI: 10.1063/5.0137838
   
   with help from (in alphabetical order)
   P. Atkinson, C. Bannwarth, F. Bohle, G. Brandenburg, E. Caldeweyher
   M. Checinski, S. Dohm, S. Ehlert, S. Ehrlich, I. Gerasimov, C. Hölzer
   A. Katbashev, J. Kohn, J. Koopman, C. Lavigne, S. Lehtola, F. März, M. Müller,
   F. Musil, H. Neugebauer, J. Pisarek, C. Plett, P. Pracht, F. Pultar,
   J. Seibert, P. Shushkov, S. Spicher, M. Stahn, M. Steiner, T. Strunk,
   J. Stückrath, T. Rose, and J. Unsleber
   
 * started run on 2025/05/15 at 16:18:24.038     
   ID    Z sym.   atoms
    1    6 C      1-8, 10-13, 15-19
    2    7 N      9
    3    8 O      14, 20, 21
    4    1 H      22-42

           -------------------------------------------------
          |                Calculation Setup                |
           -------------------------------------------------

          program call               : xtb /rds/general/user/hgt20/home/callum/QDESCP/Etodolac_rdkit_conf_16/Etodolac_rdkit_conf_16.xyz --acc 1 --gfn 2 --chrg 0 --uhf 2 --etemp 300 --input /rds/general/user/hgt20/home/callum/QDESCP/Etodolac_rdkit_conf_16/Etodolac_rdkit_conf_16_xtb.inp -P 1
          hostname                   : login-c
          coordinate file            : /rds/general/user/hgt20/home/callum/QDESCP/Etodolac_rdkit_conf_16/Etodolac_rdkit_conf_16.xyz
          omp threads                :                     1


           -------------------------------------------------
          |                 G F N 2 - x T B                 |
           -------------------------------------------------

        Reference                      10.1021/acs.jctc.8b01176
      * Hamiltonian:
        H0-scaling (s, p, d)           1.850000    2.230000    2.230000
        zeta-weighting                 0.500000
      * Dispersion:
        s8                             2.700000
        a1                             0.520000
        a2                             5.000000
        s9                             5.000000
      * Repulsion:
        kExp                           1.500000    1.000000
        rExp                           1.000000
      * Coulomb:
        alpha                          2.000000
        third order                    shell-resolved
        anisotropic                    true
        a3                             3.000000
        a5                             4.000000
        cn-shift                       1.200000
        cn-exp                         4.000000
        max-rad                        5.000000


          ...................................................
          :                      SETUP                      :
          :.................................................:
          :  # basis functions                 105          :
          :  # atomic orbitals                 105          :
          :  # shells                           63          :
          :  # electrons                       112          :
          :  max. iterations                   250          :
          :  Hamiltonian                  GFN2-xTB          :
          :  restarted?                      false          :
          :  GBSA solvation                  false          :
          :  PC potential                    false          :
          :  electronic temp.          300.0000000     K    :
          :  accuracy                    1.0000000          :
          :  -> integral cutoff          0.2500000E+02      :
          :  -> integral neglect         0.1000000E-07      :
          :  -> SCF convergence          0.1000000E-05 Eh   :
          :  -> wf. convergence          0.1000000E-03 e    :
          :  Broyden damping             0.4000000          :
          :  net charge                          0          :
          :  unpaired electrons                  2          :
          ...................................................

 iter      E             dE          RMSdq      gap      omega  full diag
   1    -62.8370329 -0.628370E+02  0.384E+00    0.94       0.0  T
   2    -62.7750583  0.619746E-01  0.311E+00    0.50       1.0  T
   3    -62.6200777  0.154981E+00  0.219E+00    0.89       1.0  T
   4    -62.7805880 -0.160510E+00  0.216E+00    1.09       1.0  T
   5    -62.9764499 -0.195862E+00  0.118E+00    0.53       1.0  T
   6    -63.0103550 -0.339051E-01  0.716E-01    0.39       1.0  T
   7    -63.0156557 -0.530065E-02  0.614E-01    0.45       1.0  T
   8    -63.0173668 -0.171114E-02  0.483E-01    0.53       1.0  T
   9    -63.0206511 -0.328425E-02  0.133E-01    0.51       1.0  T
  10    -63.0208468 -0.195670E-03  0.468E-02    0.51       1.0  T
  11    -63.0209197 -0.728967E-04  0.248E-02    0.50       1.0  T
  12    -63.0209259 -0.629120E-05  0.139E-02    0.50       1.1  T
  13    -63.0209324 -0.641470E-05  0.392E-03    0.50       3.9  T
  14    -63.0209331 -0.785912E-06  0.148E-03    0.50      10.4  T
  15    -63.0209332 -0.734887E-07  0.617E-04    0.50      25.0  T
  16    -63.0209332 -0.643291E-08  0.294E-04    0.51      52.5  T

   *** convergence criteria satisfied after 16 iterations ***

         #    Occupation            Energy/Eh            Energy/eV
      -------------------------------------------------------------
         1        2.0000           -0.7293229             -19.8459
       ...           ...                  ...                  ...
        51        2.0000           -0.4172008             -11.3526
        52        2.0000           -0.4139888             -11.2652
        53        2.0000           -0.4062200             -11.0538
        54        2.0000           -0.3978133             -10.8251
        55        1.9997           -0.3820283             -10.3955
        56        1.0003           -0.3669072              -9.9841
        57        0.9999           -0.2339999              -6.3675 (HOMO)
        58        0.0001           -0.2154392              -5.8624 (LUMO)
        59                         -0.2011186              -5.4727
        60                         -0.1645688              -4.4781
        61                         -0.0756072              -2.0574
        62                         -0.0070979              -0.1931
       ...                                ...                  ...
       105                          0.7135696              19.4172
      -------------------------------------------------------------
                  HL-Gap            0.0185607 Eh            0.5051 eV
             Fermi-level           -0.2995937 Eh           -8.1524 eV

 transition dipole moment (au) for excitation:          56          57
     X       Y       Z   
  -0.6324   1.5208  -0.4979  total (au/Debye):    1.721   4.374
 dE (eV)             :    3.617
 oscillator strength :  0.37100E+00

 SCC (total)                   0 d,  0 h,  0 min,  0.105 sec
 SCC setup                      ...        0 min,  0.000 sec (  0.400%)
 Dispersion                     ...        0 min,  0.001 sec (  0.535%)
 classical contributions        ...        0 min,  0.000 sec (  0.173%)
 integral evaluation            ...        0 min,  0.038 sec ( 36.148%)
 iterations                     ...        0 min,  0.033 sec ( 31.572%)
 molecular gradient             ...        0 min,  0.024 sec ( 23.040%)
 printout                       ...        0 min,  0.009 sec (  8.124%)

         :::::::::::::::::::::::::::::::::::::::::::::::::::::
         ::                     SUMMARY                     ::
         :::::::::::::::::::::::::::::::::::::::::::::::::::::
         :: total energy             -62.161342624185 Eh    ::
         :: gradient norm              0.155297886120 Eh/a0 ::
         :: HOMO-LUMO gap              0.505061030946 eV    ::
         ::.................................................::
         :: SCC energy               -63.020258152342 Eh    ::
         :: -> isotropic ES            0.077800714153 Eh    ::
         :: -> anisotropic ES          0.007997913582 Eh    ::
         :: -> anisotropic XC          0.017024384135 Eh    ::
         :: -> dispersion             -0.045406258875 Eh    ::
         :: repulsion energy           0.858915528157 Eh    ::
         :: add. restraining           0.000000000000 Eh    ::
         :: total charge               0.000000000005 e     ::
         :::::::::::::::::::::::::::::::::::::::::::::::::::::

           -------------------------------------------------
          |                Property Printout                |
           -------------------------------------------------

    * Orbital Energies and Occupations

         #    Occupation            Energy/Eh            Energy/eV
      -------------------------------------------------------------
         1        2.0000           -0.7293229             -19.8459
       ...           ...                  ...                  ...
        45        2.0000           -0.4526821             -12.3181
        46        2.0000           -0.4461273             -12.1397
        47        2.0000           -0.4431484             -12.0587
        48        2.0000           -0.4395893             -11.9618
        49        2.0000           -0.4313898             -11.7387
        50        2.0000           -0.4246533             -11.5554
        51        2.0000           -0.4172008             -11.3526
        52        2.0000           -0.4139888             -11.2652
        53        2.0000           -0.4062200             -11.0538
        54        2.0000           -0.3978133             -10.8251
        55        1.9997           -0.3820283             -10.3955
        56        1.0003           -0.3669072              -9.9841
        57        0.9999           -0.2339999              -6.3675 (HOMO)
        58        0.0001           -0.2154392              -5.8624 (LUMO)
        59                         -0.2011186              -5.4727
        60                         -0.1645688              -4.4781
        61                         -0.0756072              -2.0574
        62                         -0.0070979              -0.1931
        63                          0.0090707               0.2468
        64                          0.0472065               1.2846
        65                          0.0687508               1.8708
        66                          0.0706021               1.9212
        67                          0.0801842               2.1819
        68                          0.0931088               2.5336
       ...                                ...                  ...
       105                          0.7135696              19.4172
      -------------------------------------------------------------
                  HL-Gap            0.0185607 Eh            0.5051 eV
             Fermi-level           -0.2995937 Eh           -8.1524 eV

     #   Z          covCN         q      C6AA      α(0)
     1   6 C        3.753    -0.098    22.434     6.754
     2   6 C        3.805    -0.055    21.564     6.611
     3   6 C        2.960    -0.020    28.502     8.757
     4   6 C        2.929    -0.044    29.093     8.846
     5   6 C        2.919    -0.040    29.003     8.831
     6   6 C        2.911    -0.043    29.069     8.841
     7   6 C        3.108    -0.032    28.639     8.768
     8   6 C        3.094     0.039    27.018     8.519
     9   7 N        2.774    -0.099    23.183     7.151
    10   6 C        3.089     0.007    27.750     8.635
    11   6 C        3.071    -0.000    27.961     8.670
    12   6 C        3.805    -0.066    21.764     6.641
    13   6 C        3.698     0.079    19.417     6.302
    14   8 O        1.700    -0.318    19.315     5.934
    15   6 C        3.794     0.144    18.263     6.085
    16   6 C        3.804    -0.063    21.707     6.633
    17   6 C        3.752    -0.104    22.541     6.771
    18   6 C        3.804    -0.100    22.399     6.738
    19   6 C        2.689     0.354    20.993     7.498
    20   8 O        1.660    -0.391    20.671     6.138
    21   8 O        0.856    -0.434    22.379     6.343
    22   1 H        0.925     0.039     2.457     2.451
    23   1 H        0.925     0.035     2.515     2.480
    24   1 H        0.925     0.031     2.575     2.509
    25   1 H        0.924     0.039     2.465     2.455
    26   1 H        0.924     0.027     2.637     2.539
    27   1 H        0.926     0.027     2.623     2.533
    28   1 H        0.926     0.027     2.624     2.533
    29   1 H        0.926     0.025     2.654     2.548
    30   1 H        0.860     0.168     1.284     1.775
    31   1 H        0.924     0.053     2.287     2.365
    32   1 H        0.924     0.065     2.142     2.289
    33   1 H        0.924     0.037     2.485     2.465
    34   1 H        0.924     0.053     2.279     2.361
    35   1 H        0.925     0.066     2.135     2.285
    36   1 H        0.924     0.029     2.603     2.523
    37   1 H        0.925     0.039     2.461     2.453
    38   1 H        0.925     0.034     2.527     2.486
    39   1 H        0.925     0.055     2.262     2.352
    40   1 H        0.924     0.056     2.245     2.343
    41   1 H        0.925     0.054     2.270     2.356
    42   1 H        0.804     0.324     0.652     1.268

 Mol. C6AA /au·bohr⁶  :      17906.773693
 Mol. C8AA /au·bohr⁸  :     415366.735653
 Mol. α(0) /au        :        204.836074


Wiberg/Mayer (AO) data.
largest (>0.10) Wiberg bond orders for each atom

 ---------------------------------------------------------------------------
     #   Z sym  total        # sym  WBO       # sym  WBO       # sym  WBO
 ---------------------------------------------------------------------------
     1   6 C    3.988 --     2 C    0.993    22 H    0.989    24 H    0.988
                            23 H    0.986
     2   6 C    3.996 --     3 C    1.017     1 C    0.993    25 H    0.974
                            26 H    0.969
     3   6 C    3.838 --     8 C    1.356     4 C    1.169     2 C    1.017
                            10 C    0.104
     4   6 C    3.896 --     5 C    1.512     3 C    1.169    27 H    0.970
     5   6 C    3.983 --     4 C    1.512     6 C    1.339    28 H    0.971
     6   6 C    3.808 --     5 C    1.339     7 C    1.188    29 H    0.970
                            11 C    0.104
     7   6 C    3.962 --    11 C    1.311     8 C    1.251     6 C    1.188
     8   6 C    3.950 --     3 C    1.356     7 C    1.251     9 N    1.127
     9   7 N    3.551 --    10 C    1.237     8 C    1.127    30 H    0.940
    10   6 C    3.842 --     9 N    1.237    11 C    1.206    15 C    1.008
                             3 C    0.104
    11   6 C    3.895 --     7 C    1.311    10 C    1.206    12 C    1.036
                             6 C    0.104
    12   6 C    3.995 --    11 C    1.036    13 C    0.990    31 H    0.961
                            32 H    0.942
    13   6 C    3.951 --    12 C    0.990    14 O    0.982    34 H    0.970
                            33 H    0.969
    14   8 O    2.084 --    13 C    0.982    15 C    0.971
    15   6 C    3.951 --    10 C    1.008    14 O    0.971    16 C    0.964
                            18 C    0.908
    16   6 C    3.986 --    17 C    1.019    36 H    0.975    35 H    0.970
                            15 C    0.964
    17   6 C    3.994 --    16 C    1.019    38 H    0.986    37 H    0.986
                            39 H    0.985
    18   6 C    3.983 --    19 C    0.981    40 H    0.975    41 H    0.967
                            15 C    0.908
    19   6 C    3.857 --    21 O    1.710    20 O    1.101    18 C    0.981
    20   8 O    2.162 --    19 C    1.101    42 H    0.870    21 O    0.157
    21   8 O    1.975 --    19 C    1.710    20 O    0.157
    22   1 H    0.998 --     1 C    0.989
    23   1 H    0.997 --     1 C    0.986
    24   1 H    0.999 --     1 C    0.988
    25   1 H    0.997 --     2 C    0.974
    26   1 H    0.998 --     2 C    0.969
    27   1 H    0.999 --     4 C    0.970
    28   1 H    0.999 --     5 C    0.971
    29   1 H    0.998 --     6 C    0.970
    30   1 H    0.971 --     9 N    0.940
    31   1 H    0.993 --    12 C    0.961
    32   1 H    0.985 --    12 C    0.942
    33   1 H    0.998 --    13 C    0.969
    34   1 H    0.996 --    13 C    0.970
    35   1 H    0.995 --    16 C    0.970
    36   1 H    0.999 --    16 C    0.975
    37   1 H    0.998 --    17 C    0.986
    38   1 H    0.999 --    17 C    0.986
    39   1 H    0.997 --    17 C    0.985
    40   1 H    0.996 --    18 C    0.975
    41   1 H    0.996 --    18 C    0.967
    42   1 H    0.894 --    20 O    0.870
 ---------------------------------------------------------------------------

Topologies differ in total number of bonds
Writing topology from bond orders to xtbtopo.mol

molecular dipole:
                 x           y           z       tot (Debye)
 q only:        0.748       0.709       0.755
   full:        0.752       0.946       0.588       3.418
molecular quadrupole (traceless):
                xx          xy          yy          xz          yz          zz
 q only:       -3.769      -1.553      10.312      -9.506      -4.284      -6.543
  q+dip:       -1.074      -0.712      11.200      -8.418      -7.427     -10.126
   full:       -3.030      -1.092      10.526      -8.964      -6.627      -7.496


           -------------------------------------------------
          | TOTAL ENERGY              -62.161342624185 Eh   |
          | GRADIENT NORM               0.155297886120 Eh/α |
          | HOMO-LUMO GAP               0.505061030946 eV   |
           -------------------------------------------------

------------------------------------------------------------------------
 * finished run on 2025/05/15 at 16:18:24.182     
------------------------------------------------------------------------
 total:
 * wall-time:     0 d,  0 h,  0 min,  0.144 sec
 *  cpu-time:     0 d,  0 h,  0 min,  0.088 sec
 * ratio c/w:     0.615 speedup
 SCF:
 * wall-time:     0 d,  0 h,  0 min,  0.105 sec
 *  cpu-time:     0 d,  0 h,  0 min,  0.076 sec
 * ratio c/w:     0.720 speedup


