42
 energy: -62.291156800896 gnorm: 0.000304949850 xtb: 6.7.1 (edcfbbe)
C            3.36267885850995        2.32309084238062        1.19289422361392
C            3.61401590455067        1.44321486637139       -0.03380571330251
C            3.11266687440142        0.04511921410235        0.19669202750953
C            3.95482312130288       -0.99078440358644        0.55294964364040
C            3.48021555832684       -2.28077043844281        0.80374441476250
C            2.14148610110534       -2.58320538571896        0.71097848410499
C            1.25779329227958       -1.56480777318265        0.35437927700636
C            1.75583481571357       -0.26248457962885        0.10244951553742
N            0.69461328487132        0.53825880686923       -0.22425205895659
C           -0.45197250199157       -0.21312743190772       -0.18143464269393
C           -0.15304488931797       -1.50032641773484        0.16048721602975
C           -1.21749994729275       -2.53938932480151        0.27105075817050
C           -2.43690213210803       -2.02863234770449       -0.50555513439814
O           -2.78554133111115       -0.70333382173663       -0.15144052336144
C           -1.82774085668138        0.29322888986168       -0.47979527856645
C           -2.17369846349395        1.52249644388968        0.37945801326379
C           -2.06160974020972        1.22025598131551        1.86886947415927
C           -1.90945152680139        0.65593517822019       -2.00192352170613
C           -3.33522949079784        0.55569826922908       -2.47918219746674
O           -4.07087453270647        1.61028185282212       -2.10810104778441
O           -3.78688025701559       -0.35245487949014       -3.12130031927087
H            3.89278404869703        1.92241603439343        2.05359190503669
H            3.70990896588013        3.33840149364336        1.01358581325685
H            2.30268940723005        2.35567676061146        1.43596563846042
H            4.68511489449509        1.41605488374962       -0.24116996714818
H            3.11647075331075        1.87880352371222       -0.90491173716698
H            5.01474141471491       -0.79785728455323        0.63817947824415
H            4.18672374024908       -3.05074631415224        1.07739117646075
H            1.77745447577487       -3.58002437656231        0.90874176790762
H            0.74654864435273        1.51463428382255       -0.45415518909214
H           -0.88572227589825       -3.49315816936951       -0.14220627467032
H           -1.48253555271510       -2.69542280521211        1.32120038682811
H           -2.24646405783744       -2.09467167367555       -1.58414109885378
H           -3.32654303878198       -2.61754754818207       -0.27364804947770
H           -3.19433569121237        1.82113405970760        0.14228090332867
H           -1.50581144994705        2.34433927586465        0.11352379725637
H           -2.36017303526053        2.08874443570059        2.45096130321967
H           -1.04056928307701        0.95493222978961        2.13541607584467
H           -2.71095816634340        0.38739415851349        2.12211693702624
H           -1.30590824759375       -0.04347332302323       -2.58153095161463
H           -1.54507040871426        1.67111173467054       -2.15062269410436
H           -4.99232727885888        1.49089507942229       -2.38773183103129
