29
 energy: -55.285028642669 gnorm: 0.000340275041 xtb: 6.7.1 (edcfbbe)
O           -0.72953264771185        2.07093838621099        0.38430639388440
C           -1.89587249735979        1.72033938514172       -0.30540742043597
C           -2.00578616901374        0.20712452472994       -0.53940691866623
C           -1.68955177907072       -0.62837758806881        0.71731604313833
C           -0.93879862021392       -1.84598423135437        0.14719391388953
C           -0.28881944492324       -1.26772024072966       -1.12538876967520
N            1.07143703077241       -0.83838940627418       -0.87902597875480
C            2.23882024835061       -1.37836567114079       -1.28869258105282
N            3.24530804713896       -0.69394995553855       -0.81839051719195
C            2.66515988302717        0.29572151950664       -0.10543361235746
C            3.41671397595253        1.35105830217264        0.62587143851742
N            2.61393929990489        2.22006432418147        1.28233683703341
O            4.62300275294880        1.42111878024061        0.63836355991262
N            1.34350208336736        0.23006116546623       -0.12212460296924
O           -1.06282011282354       -0.18334658197584       -1.53704442055072
O           -1.80289060956200       -2.87991354616353       -0.21001347380082
O           -2.83048143112964       -1.07408433555004        1.40341634072176
H            0.01524842399022        1.60043647815667       -0.03701420551423
H           -1.93753554088479        2.21548932463178       -1.28484162621235
H           -2.73792872061277        2.06563928056950        0.30073761468997
H           -3.01229350025093       -0.03955379544742       -0.90537418638073
H           -1.02152118545675       -0.05985908295181        1.37777429048939
H           -0.17235380824210       -2.21191513754140        0.84698350279244
H           -0.25726997726710       -2.02500642626828       -1.91770739667988
H            2.30436700026728       -2.24723298508607       -1.90950042843734
H            3.04583340082693        2.97739663509626        1.78517199106663
H            1.61130336607524        2.16252243398070        1.24467820966726
H           -2.56601381012685       -2.83674193562180        0.38443051222816
H           -3.24486565797259       -0.32756962037305        1.84688549064833
