57
 energy: -90.581753735354 gnorm: 0.000652851178 xtb: 6.7.1 (edcfbbe)
C            4.22353746741053        2.72179143126540        0.39703370232173
N            3.31159679408572        1.70025580902366       -0.07489286198989
C            3.46804431593965        1.23235452884736       -1.33581620422689
N            4.44846572780161        1.74744408774267       -2.04609559506477
C            4.63447165774273        1.30070218880572       -3.29848190979750
C            3.87792895061044        0.34079408376283       -3.88731628971253
C            2.80514910358904       -0.24958760448468       -3.14503268893361
N            2.65459791492506        0.26940316089355       -1.84721795072732
O            2.04777400531224       -1.12310800148835       -3.52580305900740
C            2.28073095722693        1.30529709687374        0.87179385989038
C            2.38938147361449       -0.16648919340008        1.29294601894391
C            1.27022850312012       -0.49666744995955        2.28323254186707
C            0.86781528716436        1.67517816422664        0.39814862129492
C           -0.15143427505979        1.25338091996947        1.45952551827894
N           -0.05465317697363       -0.16586888003033        1.77665479724502
C           -0.46455375505593       -0.97952133826950        0.71000641683108
N            0.15969570675382       -1.20086810733780       -0.41391950758298
C           -0.64495908371499       -2.06330577126282       -1.12099777588551
C           -1.80008192259183       -2.35060324208120       -0.35912710172787
N           -1.65236198365327       -1.64810166431974        0.81339239699270
C           -2.58093787033094       -1.53853092607180        1.90740324421060
C           -3.37831759101033       -0.25969853059789        1.81874101364635
C           -3.40960643982780        0.63092912381090        2.88325138860639
C           -4.12090412040723        1.81413060475271        2.79388525767254
C           -4.79407229574699        2.09705113613464        1.61969808360679
F           -5.48438292554350        3.25156888883071        1.52290660246202
C           -4.77544111279610        1.23142386210645        0.54092159540724
C           -4.06443949284173        0.05062851898851        0.64964629858104
C           -2.78968445531142       -3.19792159437658       -0.83213572469280
C           -2.59629934243674       -3.74892718182808       -2.08313221267223
C           -1.45931734416334       -3.46312335892358       -2.84157714492572
C           -0.46809344866036       -2.62210464993732       -2.38088229719809
H            3.67549808698043        3.63424830118757        0.64410909280810
H            4.75389180542618        2.37040820746158        1.28495228850118
H            4.93801703607234        2.93202622303431       -0.39362984143159
H            5.45693512755641        1.77586660581188       -3.81768601294084
H            4.04930973383649       -0.00231231328543       -4.89284389720561
H            1.88455444214668       -0.15364890943579       -1.32850037760973
H            2.47358956192278        1.90297030687897        1.77214264465799
H            3.36135135636255       -0.33846976691245        1.75898249319617
H            2.29622016542500       -0.83575813243378        0.44054044909745
H            1.28550034545466       -1.56189356840880        2.52462897846095
H            1.40269172779871        0.07086161842797        3.21003076802485
H            0.61957775983459        1.17458233744081       -0.53625386204717
H            0.81129235852619        2.75253917138125        0.23279576567811
H           -1.16766129378148        1.46102184988738        1.11593166449286
H            0.01652365923002        1.80263183044350        2.39103068013562
H           -2.01632027367105       -1.55736196994512        2.84352288968129
H           -3.24757200084915       -2.40558090406971        1.87279527535668
H           -2.87085323039599        0.40003170466864        3.78967089251913
H           -4.15501446538185        2.51362308482180        3.61391181977383
H           -5.30968234153766        1.48448012511820       -0.36092339896700
H           -4.03682358457605       -0.63227310003199       -0.18654665381963
H           -3.67440957202716       -3.42046925899479       -0.25248988540412
H           -3.34508743300372       -4.41504252482527       -2.48623485763488
H           -1.35754050502040       -3.91486508177665       -3.81683795443366
H            0.40623430450207       -2.38512194811235       -2.96455799460305
