42
 energy: -62.290867727757 gnorm: 0.000782790087 xtb: 6.7.1 (edcfbbe)
C            3.16525335622360        2.27418948613775       -1.27276337143642
C            2.93584855981141        2.29917803336049        0.23959561438437
C            2.78244126691983        0.90629071375273        0.78225860150541
C            3.81334049436621        0.24234941658233        1.41815795107797
C            3.67454995693112       -1.06566388985488        1.89067132276093
C            2.49570715512796       -1.75919496234042        1.74629523929116
C            1.42873085539222       -1.12186156531849        1.11290212971337
C            1.58771588361236        0.20173542893306        0.63372536853708
N            0.41190589492224        0.58370301599009        0.04989160342197
C           -0.49207037312940       -0.43879920487807        0.17094011143987
C            0.09193193143225       -1.50264892082166        0.80009112510741
C           -0.65363590475958       -2.76652571944561        1.06690506476076
C           -1.87289774064927       -2.77870918435291        0.13935822967573
O           -2.59013754556050       -1.56145755597976        0.17348142354313
C           -1.90364726154360       -0.41677412585559       -0.33358143055017
C           -1.91674813026641       -0.40726329343381       -1.88151580021270
C           -3.31869103530588       -0.56632785774662       -2.45874736307554
C           -2.70979388190564        0.77629125637946        0.25141111897295
C           -2.67440827873985        2.04846731061127       -0.54870302331930
O           -1.49437248633201        2.69618928167623       -0.47517678493577
O           -3.58904951043296        2.49960829739947       -1.18082580722355
H            3.25532699647455        3.28538559547708       -1.66383298322290
H            2.34114775305220        1.77627952218987       -1.77868717853353
H            4.07914234916215        1.73137844057988       -1.50229269906462
H            2.03942882344008        2.88437618086887        0.46280408630750
H            3.78373750614445        2.78733614608333        0.72320379726151
H            4.75676890510815        0.75079431528651        1.55780066056638
H            4.51601513405684       -1.53401885146377        2.38023257923804
H            2.39158876777355       -2.76890386927219        2.11400086945597
H            0.19113730825149        1.50419134741453       -0.28880916077667
H           -0.03127795751790       -3.64317985060736        0.87897655258574
H           -0.97895892698550       -2.79636893424940        2.11114195946615
H           -1.54957212757329       -3.00548736401601       -0.88561490609585
H           -2.59775858333769       -3.53416917024848        0.45106052372964
H           -1.28385502073220       -1.22748559584163       -2.22949778856358
H           -1.46231539507038        0.52189972491397       -2.23134262815150
H           -3.26264753893979       -0.73801980071449       -3.53091790013285
H           -3.81409453882703       -1.41488388096092       -1.99433890217354
H           -3.91732794611232        0.32258270186965       -2.28374653871681
H           -2.33841280033749        0.98178540526786        1.25677849063076
H           -3.74743415912961        0.44828570412925        0.31485589759763
H           -1.54281175501503        3.52574627249759       -0.97774605484644
