42
 energy: -62.290968256798 gnorm: 0.000872396856 xtb: 6.7.1 (edcfbbe)
C            2.98703380119815        1.93023184138370        2.01437122144384
C            2.89929987837382        2.27243498144216        0.52575557792087
C            2.84446625539319        1.02493586495626       -0.31020165950007
C            3.94887402009832        0.53154563966911       -0.97725526673712
C            3.89849813562371       -0.64728421558908       -1.72629585286640
C            2.73856346438334       -1.37808662907996       -1.83711616190154
C            1.59978567393567       -0.91155550797984       -1.18038510669391
C            1.66883741991052        0.28260137486579       -0.42113400867046
N            0.43579621829456        0.50878091551972        0.12454453315675
C           -0.41583368757549       -0.48199509541284       -0.28713015974588
C            0.25554252141387       -1.37209103581705       -1.07832520947975
C           -0.43477208874600       -2.54695151561426       -1.68405789431847
C           -1.93197409877433       -2.22346580386907       -1.68126237927263
O           -2.38606066888166       -1.81881597055755       -0.40671668829871
C           -1.86251349459803       -0.59427009203819        0.08883412658641
C           -2.01755187669665       -0.66429293198465        1.62091080506982
C           -3.45568641061304       -0.90789750872203        2.06277949041721
C           -2.68738497914089        0.58867862277915       -0.52820102026625
C           -2.80516143728002        1.81211752016336        0.33171547878712
O           -1.64208266385870        2.47921090834215        0.48193856217044
O           -3.81841399822093        2.21259160209689        0.83738646476232
H            3.01331012989196        2.83691521375987        2.61525879859050
H            3.88976083232909        1.35750448930759        2.21249936586576
H            2.13310937505818        1.33133488824937        2.32314614808300
H            3.77158156121832        2.86357119656376        0.24135221979153
H            2.00830914588789        2.87954002767651        0.34268121911053
H            4.88123560942435        1.07521862869110       -0.92059124106818
H            4.79476019191398       -0.98438551247693       -2.22639557095676
H            2.70414596625337       -2.28908296463125       -2.41541919359757
H            0.15398717505917        1.33713759482425        0.61885514530222
H           -0.09007841454335       -2.72906508538936       -2.70297278102341
H           -0.24880353269653       -3.44775153065795       -1.09214641018848
H           -2.52887204416421       -3.10611299265688       -1.92116779920904
H           -2.13956023948374       -1.44275252257918       -2.42671604169212
H           -1.39174238656495       -1.49003969818627        1.96630611172092
H           -1.63526978570001        0.25710010284883        2.06458898821195
H           -3.48609757861265       -1.08014986746558        3.13611346832385
H           -4.08863349007816       -0.05534490468242        1.83436678941640
H           -3.84844344296764       -1.78393889229947        1.55564913154186
H           -2.22313687964414        0.87858147297253       -1.47322204178581
H           -3.69570608752589        0.21825950488458       -0.71679732468534
H           -1.79311808929698        3.27723788669218        1.01435616568552
