62
 energy: -94.883246295569 gnorm: 0.000885609215 xtb: 6.7.1 (edcfbbe)
C           -7.11486425503156        2.89794748072100        1.57674481459774
C           -6.32954126117329        2.97477480043401        0.30049531132822
C           -5.07718012700193        2.15305717223018        0.26922466787671
C           -3.88421385735590        2.69308164100616       -0.11431219601588
C           -3.71680577692758        4.12963828709676       -0.49399431650269
C           -2.72773305927925        1.85352586952582       -0.11329447383903
C           -1.43057495757324        2.26583793283651       -0.44289521897484
N           -0.38821205387109        1.47062884997353       -0.43426200567519
C           -0.60676233590015        0.19207291327197       -0.08928099607104
N            0.41627490459616       -0.68576789015623       -0.04332675778122
C            1.77208153203057       -0.52483439282551       -0.28397997540261
N            2.47345401486315       -1.63747377629374       -0.07892644499582
C            3.77399273135927       -1.62050484550483       -0.26942922198281
C            4.49607027573731       -0.48885783503183       -0.67699903962225
C            3.73831148833222        0.67094356485135       -0.89407957585447
C            2.37200344680836        0.66086287390632       -0.69997811387974
N            5.85737527836107       -0.56262744384079       -0.90587355696945
C            6.54702618161954        0.52095340233665       -1.57381824479302
C            7.80046369476845       -0.03789012272765       -2.26844257059545
N            8.68551909319516       -0.74714650144240       -1.36758437460317
C            7.95314464603831       -1.79143740865676       -0.67805675750706
C            6.71374008996345       -1.24776717677844        0.04374447793479
N           -1.79307026428233       -0.32229649013681        0.23109929424195
C           -2.84883997960452        0.48131138355483        0.22589779954014
N           -4.05899806934038       -0.03959498629841        0.55593788903994
C           -4.20551054242363       -1.45760547981313        0.86838499530129
C           -3.73810706338522       -2.40005268202240       -0.26055640391452
C           -2.74964571849604       -3.37022826966494        0.39223881230916
C           -3.13839689947349       -3.36211289777642        1.86791982325794
C           -3.44343364166851       -1.89138898794570        2.12961709321120
C           -5.21168801676253        0.74495838925598        0.63300878858596
O           -6.26558877383394        0.23257144337543        0.97115995990437
O           -6.66479913852507        3.66332883141911       -0.63530499880018
H           -7.91959577291744        3.62844856012839        1.56140649341830
H           -6.46323677281163        3.06477888246423        2.43264081283648
H           -7.52583643272805        1.89265384272404        1.66174811550839
H           -3.32950944409764        4.19701220777479       -1.50961266490125
H           -3.00540546762733        4.61409113706126        0.17448165176144
H           -4.66011791861494        4.66251450489409       -0.45703803046201
H           -1.22328733545563        3.28822238006115       -0.72782373442263
H            0.16369563097079       -1.62586281245768        0.23728782443409
H            4.26419196673438       -2.56953259979273       -0.10103042051735
H            4.21160835294861        1.59123857444235       -1.19930444290826
H            1.77454297295771        1.54245877586789       -0.85346633223761
H            5.89352292997867        0.95397362099355       -2.33132166087239
H            6.84130729416656        1.31081013457420       -0.86075072900916
H            7.48885939510333       -0.74545052214552       -3.04208627271848
H            8.35406249492470        0.77560334198653       -2.74129504894814
H            9.07299852337074       -0.09773359924089       -0.68700161024299
H            7.64243708332735       -2.52501072787631       -1.42711484915507
H            8.61866603451977       -2.27900921005695        0.03681064085194
H            6.17064516031126       -2.05994770006832        0.52214293421092
H            7.03791386580028       -0.54249459795540        0.83041294082462
H           -5.27815900145755       -1.58885173642304        1.03331401134927
H           -4.59599340860367       -2.93831006297884       -0.66353968526807
H           -3.27638490266239       -1.84603147330174       -1.07490508774739
H           -2.79622875231731       -4.36446515541634       -0.04910563062357
H           -1.73571057840886       -2.98708322709987        0.28314707904227
H           -2.34938566779218       -3.74537954842397        2.51296652639525
H           -4.03622803788857       -3.96267140098254        2.02275383843297
H           -4.03164006666865       -1.73089249138394        3.03203315869261
H           -2.51292373083053       -1.33118674625000        2.20817168893552
