----- Optimization -----
      -----------------------------------------------------------      
     |                   =====================                   |     
     |                           x T B                           |     
     |                   =====================                   |     
     |                         S. Grimme                         |     
     |          Mulliken Center for Theoretical Chemistry        |     
     |                    University of Bonn                     |     
      -----------------------------------------------------------      

   * xtb version 6.7.1 (edcfbbe) compiled by 'conda@3ef47c1a292c' on 2024-11-25

   xtb is free software: you can redistribute it and/or modify it under
   the terms of the GNU Lesser General Public License as published by
   the Free Software Foundation, either version 3 of the License, or
   (at your option) any later version.
   
   xtb is distributed in the hope that it will be useful,
   but WITHOUT ANY WARRANTY; without even the implied warranty of
   MERCHANTABILITY or FITNESS FOR A PARTICULAR PURPOSE.  See the
   GNU Lesser General Public License for more details.
   
   Cite this work as:
   * C. Bannwarth, E. Caldeweyher, S. Ehlert, A. Hansen, P. Pracht,
     J. Seibert, S. Spicher, S. Grimme, WIREs Comput. Mol. Sci., 2020, 11,
     e01493. DOI: 10.1002/wcms.1493
   
   for GFN2-xTB:
   * C. Bannwarth, S. Ehlert and S. Grimme., J. Chem. Theory Comput., 2019,
     15, 1652-1671. DOI: 10.1021/acs.jctc.8b01176
   for GFN1-xTB:
   * S. Grimme, C. Bannwarth, P. Shushkov, J. Chem. Theory Comput., 2017,
     13, 1989-2009. DOI: 10.1021/acs.jctc.7b00118
   for GFN0-xTB:
   * P. Pracht, E. Caldeweyher, S. Ehlert, S. Grimme, ChemRxiv, 2019, preprint.
     DOI: 10.26434/chemrxiv.8326202.v1
   for GFN-FF:
   * S. Spicher and S. Grimme, Angew. Chem. Int. Ed., 2020, 59, 15665-15673.
     DOI: 10.1002/anie.202004239
   
   for ALPB and GBSA implicit solvation:
   * S. Ehlert, M. Stahn, S. Spicher, S. Grimme, J. Chem. Theory Comput.,
     2021, 17, 4250-4261. DOI: 10.1021/acs.jctc.1c00471
   
   for ddCOSMO and CPCM-X implicit solvation:
   * M. Stahn, S. Ehlert, S. Grimme, J. Phys. Chem. A,
     2023, XX, XXXX-XXXX. DOI: 10.1021/acs.jpca.3c04382
   
   for DFT-D4:
   * E. Caldeweyher, C. Bannwarth and S. Grimme, J. Chem. Phys., 2017,
     147, 034112. DOI: 10.1063/1.4993215
   * E. Caldeweyher, S. Ehlert, A. Hansen, H. Neugebauer, S. Spicher,
     C. Bannwarth and S. Grimme, J. Chem. Phys., 2019, 150, 154122.
     DOI: 10.1063/1.5090222
   * E. Caldeweyher, J.-M. Mewes, S. Ehlert and S. Grimme, Phys. Chem. Chem. Phys.
     2020, 22, 8499-8512. DOI: 10.1039/D0CP00502A
   
   for sTDA-xTB:
   * S. Grimme and C. Bannwarth, J. Chem. Phys., 2016, 145, 054103.
     DOI: 10.1063/1.4959605
   
   in the mass-spec context:
   * V. Asgeirsson, C. Bauer and S. Grimme, Chem. Sci., 2017, 8, 4879.
     DOI: 10.1039/c7sc00601b
   * J. Koopman and S. Grimme, ACS Omega 2019, 4, 12, 15120-15133.
     DOI: 10.1021/acsomega.9b02011
   
   for metadynamics refer to:
   * S. Grimme, J. Chem. Theory Comput., 2019, 155, 2847-2862
     DOI: 10.1021/acs.jctc.9b00143
   
   for SPH calculations refer to:
   * S. Spicher and S. Grimme, J. Chem. Theory Comput., 2021, 17, 1701-1714
     DOI: 10.1021/acs.jctc.0c01306
   
   for ONIOM refer to:
   * C. Plett, A. Katbashev, S. Ehlert, S. Grimme, M. Bursch,
     Phys. Chem. Chem. Phys., 2023, 25, 17860-17868. DOI: 10.1039/D3CP02178E
   
   for DIPRO refer to:
   * J. Kohn, N. Gildemeister, S. Grimme, D. Fazzi, A. Hansen,
     J. Chem. Phys., 2023, just accepted.
   
   for PTB refer to:
   * S. Grimme, M. Mueller, A. Hansen, J. Chem. Phys., 2023, 158, 124111.
     DOI: 10.1063/5.0137838
   
   with help from (in alphabetical order)
   P. Atkinson, C. Bannwarth, F. Bohle, G. Brandenburg, E. Caldeweyher
   M. Checinski, S. Dohm, S. Ehlert, S. Ehrlich, I. Gerasimov, C. Hölzer
   A. Katbashev, J. Kohn, J. Koopman, C. Lavigne, S. Lehtola, F. März, M. Müller,
   F. Musil, H. Neugebauer, J. Pisarek, C. Plett, P. Pracht, F. Pultar,
   J. Seibert, P. Shushkov, S. Spicher, M. Stahn, M. Steiner, T. Strunk,
   J. Stückrath, T. Rose, and J. Unsleber
   
 * started run on 2025/05/15 at 16:18:48.442     
   ID    Z sym.   atoms
    1    6 C      1-7, 9, 11, 13-16, 18, 19, 21, 22, 24, 26-31
    2    7 N      8, 10, 12, 17, 20, 23, 25
    3    8 O      32, 33
    4    1 H      34-62

           -------------------------------------------------
          |                Calculation Setup                |
           -------------------------------------------------

          program call               : xtb /rds/general/user/hgt20/home/callum/QDESCP/Palbociclib_rdkit_conf_11/Palbociclib_rdkit_conf_11.xyz --opt normal --acc 1 --gfn 2 --chrg 0 --uhf 0 -P 1
          hostname                   : login-c
          coordinate file            : /rds/general/user/hgt20/home/callum/QDESCP/Palbociclib_rdkit_conf_11/Palbociclib_rdkit_conf_11.xyz
          omp threads                :                     1


           -------------------------------------------------
          |                 G F N 2 - x T B                 |
           -------------------------------------------------

        Reference                      10.1021/acs.jctc.8b01176
      * Hamiltonian:
        H0-scaling (s, p, d)           1.850000    2.230000    2.230000
        zeta-weighting                 0.500000
      * Dispersion:
        s8                             2.700000
        a1                             0.520000
        a2                             5.000000
        s9                             5.000000
      * Repulsion:
        kExp                           1.500000    1.000000
        rExp                           1.000000
      * Coulomb:
        alpha                          2.000000
        third order                    shell-resolved
        anisotropic                    true
        a3                             3.000000
        a5                             4.000000
        cn-shift                       1.200000
        cn-exp                         4.000000
        max-rad                        5.000000


          ...................................................
          :                      SETUP                      :
          :.................................................:
          :  # basis functions                 161          :
          :  # atomic orbitals                 161          :
          :  # shells                           95          :
          :  # electrons                       172          :
          :  max. iterations                   250          :
          :  Hamiltonian                  GFN2-xTB          :
          :  restarted?                      false          :
          :  GBSA solvation                  false          :
          :  PC potential                    false          :
          :  electronic temp.          300.0000000     K    :
          :  accuracy                    1.0000000          :
          :  -> integral cutoff          0.2500000E+02      :
          :  -> integral neglect         0.1000000E-07      :
          :  -> SCF convergence          0.1000000E-05 Eh   :
          :  -> wf. convergence          0.1000000E-03 e    :
          :  Broyden damping             0.4000000          :
          :  net charge                          0          :
          :  unpaired electrons                  0          :
          ...................................................

 iter      E             dE          RMSdq      gap      omega  full diag
   1    -95.9245356 -0.959245E+02  0.388E+00    1.84       0.0  T
   2    -96.0726420 -0.148106E+00  0.230E+00    1.93       1.0  T
   3    -96.0797747 -0.713277E-02  0.123E+00    1.83       1.0  T
   4    -96.0889119 -0.913716E-02  0.342E-01    1.63       1.0  T
   5    -96.0938296 -0.491767E-02  0.137E-01    1.71       1.0  T
   6    -96.0945538 -0.724290E-03  0.539E-02    1.70       1.0  T
   7    -96.0946270 -0.731945E-04  0.204E-02    1.71       1.0  T
   8    -96.0946304 -0.333477E-05  0.853E-03    1.72       1.5  T
   9    -96.0946313 -0.887318E-06  0.318E-03    1.72       4.0  T
  10    -96.0946314 -0.192661E-06  0.126E-03    1.71      10.1  T
  11    -96.0946315 -0.335069E-07  0.638E-04    1.71      19.9  T
  12    -96.0946315 -0.764061E-08  0.269E-04    1.71      47.1  T

   *** convergence criteria satisfied after 12 iterations ***

         #    Occupation            Energy/Eh            Energy/eV
      -------------------------------------------------------------
         1        2.0000           -0.7024031             -19.1134
       ...           ...                  ...                  ...
        80        2.0000           -0.4042777             -11.0010
        81        2.0000           -0.3973504             -10.8125
        82        2.0000           -0.3915107             -10.6535
        83        2.0000           -0.3797507             -10.3335
        84        2.0000           -0.3763190             -10.2402
        85        2.0000           -0.3742870             -10.1849
        86        2.0000           -0.3570762              -9.7165 (HOMO)
        87                         -0.2940844              -8.0024 (LUMO)
        88                         -0.2712534              -7.3812
        89                         -0.2531216              -6.8878
        90                         -0.2453081              -6.6752
        91                         -0.2358014              -6.4165
       ...                                ...                  ...
       161                          0.6826338              18.5754
      -------------------------------------------------------------
                  HL-Gap            0.0629918 Eh            1.7141 eV
             Fermi-level           -0.3255803 Eh           -8.8595 eV

 SCC (total)                   0 d,  0 h,  0 min,  0.137 sec
 SCC setup                      ...        0 min,  0.001 sec (  0.487%)
 Dispersion                     ...        0 min,  0.001 sec (  0.699%)
 classical contributions        ...        0 min,  0.000 sec (  0.229%)
 integral evaluation            ...        0 min,  0.013 sec (  9.694%)
 iterations                     ...        0 min,  0.057 sec ( 41.384%)
 molecular gradient             ...        0 min,  0.065 sec ( 47.233%)
 printout                       ...        0 min,  0.000 sec (  0.268%)

         :::::::::::::::::::::::::::::::::::::::::::::::::::::
         ::                     SUMMARY                     ::
         :::::::::::::::::::::::::::::::::::::::::::::::::::::
         :: total energy             -94.856586838641 Eh    ::
         :: gradient norm              0.126674939253 Eh/a0 ::
         :: HOMO-LUMO gap              1.714094104688 eV    ::
         ::.................................................::
         :: SCC energy               -96.094834286514 Eh    ::
         :: -> isotropic ES            0.111138894121 Eh    ::
         :: -> anisotropic ES          0.010549683916 Eh    ::
         :: -> anisotropic XC          0.055871449994 Eh    ::
         :: -> dispersion             -0.069927043168 Eh    ::
         :: repulsion energy           1.238247447873 Eh    ::
         :: add. restraining           0.000000000000 Eh    ::
         :: total charge               0.000000000000 e     ::
         :::::::::::::::::::::::::::::::::::::::::::::::::::::

      ----------------------------------------------------------- 
     |                   =====================                   |
     |                        A N C O P T                        |
     |                   =====================                   |
     |               Approximate Normal Coordinate               |
     |                Rational Function Optimizer                |
      ----------------------------------------------------------- 
      ----------------------------------------------------------- 
     |                   =====================                   |
     |                        A N C O P T                        |
     |                   =====================                   |
     |               Approximate Normal Coordinate               |
     |                Rational Function Optimizer                |
      ----------------------------------------------------------- 

          ...................................................
          :                      SETUP                      :
          :.................................................:
          :   optimization level            normal          :
          :   max. optcycles                   200          :
          :   ANC micro-cycles                  20          :
          :   degrees of freedom               180          :
          :.................................................:
          :   RF solver                   davidson          :
          :   write xtbopt.log                true          :
          :   linear?                        false          :
          :   energy convergence         0.5000000E-05 Eh   :
          :   grad. convergence          0.1000000E-02 Eh/α :
          :   maxmium RF displ.          1.0000000          :
          :   Hlow (freq-cutoff)         0.1000000E-01      :
          :   Hmax (freq-cutoff)         5.0000000          :
          :   S6 in model hess.         20.0000000          :
          ...................................................

generating ANC from exact Hessian ...
Using Lindh-Hessian (1995)
 Shifting diagonal of input Hessian by    9.8421409839604557E-003
 Lowest  eigenvalues of input Hessian
    0.000000    0.000000    0.000000    0.000000    0.000000    0.000000
    0.010000    0.010152    0.010266    0.010402    0.010693    0.011118
    0.011136    0.011818    0.011951    0.012522    0.012924    0.013824
 Highest eigenvalues
    2.047534    2.062188    2.120982    2.226783    2.258610    2.303293


........................................................................
.............................. CYCLE    1 ..............................
........................................................................

 iter      E             dE          RMSdq      gap      omega  full diag
   1    -96.0946315 -0.960946E+02  0.848E-05    1.71       0.0  T
   2    -96.0946315 -0.130072E-09  0.553E-05    1.71     229.5  T
   3    -96.0946315 -0.947580E-10  0.319E-05    1.71     397.9  T
     SCC iter.                  ...        0 min,  0.014 sec
     gradient                   ...        0 min,  0.073 sec
 * total energy  :   -94.8565868 Eh     change       -0.1254122E-08 Eh
   gradient norm :     0.1266760 Eh/α   predicted     0.0000000E+00 (-100.00%)
   displ. norm   :     0.3909380 α      lambda       -0.2090176E-01
   maximum displ.:     0.1271568 α      in ANC's #34, #13, #38, ...

........................................................................
.............................. CYCLE    2 ..............................
........................................................................

 iter      E             dE          RMSdq      gap      omega  full diag
   1    -96.1388700 -0.961389E+02  0.175E-01    1.72       0.0  T
   2    -96.1391272 -0.257269E-03  0.108E-01    1.79       1.0  T
   3    -96.1391414 -0.141732E-04  0.595E-02    1.78       1.0  T
   4    -96.1391937 -0.523222E-04  0.164E-02    1.78       1.0  T
   5    -96.1392074 -0.136401E-04  0.517E-03    1.79       2.5  T
   6    -96.1392084 -0.999537E-06  0.239E-03    1.79       5.3  T
   7    -96.1392084 -0.665042E-07  0.102E-03    1.79      12.5  T
   8    -96.1392085 -0.236432E-07  0.303E-04    1.79      42.0  T
   9    -96.1392085 -0.155565E-08  0.149E-04    1.79      85.1  T
     SCC iter.                  ...        0 min,  0.062 sec
     gradient                   ...        0 min,  0.052 sec
 * total energy  :   -94.8716831 Eh     change       -0.1509626E-01 Eh
   gradient norm :     0.0577892 Eh/α   predicted    -0.1207678E-01 ( -20.00%)
   displ. norm   :     0.4439222 α      lambda       -0.9128846E-02
   maximum displ.:     0.2010566 α      in ANC's #13, #11, #24, ...

........................................................................
.............................. CYCLE    3 ..............................
........................................................................

 iter      E             dE          RMSdq      gap      omega  full diag
   1    -96.1698018 -0.961698E+02  0.133E-01    1.75       0.0  T
   2    -96.1699783 -0.176511E-03  0.805E-02    1.81       1.0  T
   3    -96.1700104 -0.321737E-04  0.480E-02    1.80       1.0  T
   4    -96.1700368 -0.263360E-04  0.145E-02    1.81       1.0  T
   5    -96.1700477 -0.109104E-04  0.398E-03    1.81       3.2  T
   6    -96.1700484 -0.745611E-06  0.159E-03    1.81       8.0  T
   7    -96.1700485 -0.253080E-07  0.651E-04    1.81      19.5  T
   8    -96.1700485 -0.770234E-08  0.201E-04    1.81      63.0  T
     SCC iter.                  ...        0 min,  0.034 sec
     gradient                   ...        0 min,  0.073 sec
 * total energy  :   -94.8773967 Eh     change       -0.5713603E-02 Eh
   gradient norm :     0.0195409 Eh/α   predicted    -0.5467762E-02 (  -4.30%)
   displ. norm   :     0.3726303 α      lambda       -0.2328890E-02
   maximum displ.:     0.2163721 α      in ANC's #13, #11, #7, ...

........................................................................
.............................. CYCLE    4 ..............................
........................................................................

 iter      E             dE          RMSdq      gap      omega  full diag
   1    -96.1793247 -0.961793E+02  0.677E-02    1.77       0.0  T
   2    -96.1793501 -0.253864E-04  0.403E-02    1.79       1.0  T
   3    -96.1793436  0.642503E-05  0.245E-02    1.79       1.0  T
   4    -96.1793590 -0.153385E-04  0.594E-03    1.79       2.1  T
   5    -96.1793609 -0.197430E-05  0.169E-03    1.79       7.5  T
   6    -96.1793610 -0.105287E-06  0.763E-04    1.79      16.7  T
   7    -96.1793610 -0.463801E-08  0.230E-04    1.79      55.3  T
     SCC iter.                  ...        0 min,  0.029 sec
     gradient                   ...        0 min,  0.059 sec
 * total energy  :   -94.8791441 Eh     change       -0.1747376E-02 Eh
   gradient norm :     0.0142764 Eh/α   predicted    -0.1326191E-02 ( -24.10%)
   displ. norm   :     0.4633829 α      lambda       -0.1737121E-02
   maximum displ.:     0.2752858 α      in ANC's #13, #11, #7, ...

........................................................................
.............................. CYCLE    5 ..............................
........................................................................

 iter      E             dE          RMSdq      gap      omega  full diag
   1    -96.1846623 -0.961847E+02  0.698E-02    1.75       0.0  T
   2    -96.1846806 -0.183021E-04  0.417E-02    1.76       1.0  T
   3    -96.1846702  0.103118E-04  0.194E-02    1.76       1.0  T
   4    -96.1846839 -0.136684E-04  0.499E-03    1.76       2.5  T
   5    -96.1846853 -0.134280E-05  0.173E-03    1.76       7.3  T
   6    -96.1846853 -0.783193E-07  0.813E-04    1.76      15.6  T
   7    -96.1846853 -0.514505E-08  0.241E-04    1.76      52.6  T
     SCC iter.                  ...        0 min,  0.029 sec
     gradient                   ...        0 min,  0.073 sec
 * total energy  :   -94.8803688 Eh     change       -0.1224706E-02 Eh
   gradient norm :     0.0101156 Eh/α   predicted    -0.1055065E-02 ( -13.85%)
   displ. norm   :     0.3856555 α      lambda       -0.8335209E-03
   maximum displ.:     0.2472680 α      in ANC's #11, #13, #7, ...

........................................................................
.............................. CYCLE    6 ..............................
........................................................................

 iter      E             dE          RMSdq      gap      omega  full diag
   1    -96.1870649 -0.961871E+02  0.545E-02    1.74       0.0  T
   2    -96.1870710 -0.612154E-05  0.320E-02    1.74       1.0  T
   3    -96.1870667  0.435514E-05  0.111E-02    1.74       1.1  T
   4    -96.1870722 -0.551210E-05  0.263E-03    1.74       4.8  T
   5    -96.1870724 -0.274570E-06  0.117E-03    1.74      10.9  T
   6    -96.1870725 -0.305576E-07  0.571E-04    1.74      22.3  T
   7    -96.1870725 -0.562878E-08  0.186E-04    1.74      68.1  T
     SCC iter.                  ...        0 min,  0.029 sec
     gradient                   ...        0 min,  0.072 sec
 * total energy  :   -94.8809799 Eh     change       -0.6111509E-03 Eh
   gradient norm :     0.0093381 Eh/α   predicted    -0.4787462E-03 ( -21.66%)
   displ. norm   :     0.3344349 α      lambda       -0.5696432E-03
   maximum displ.:     0.2087234 α      in ANC's #11, #13, #10, ...

........................................................................
.............................. CYCLE    7 ..............................
........................................................................

 iter      E             dE          RMSdq      gap      omega  full diag
   1    -96.1883357 -0.961883E+02  0.531E-02    1.73       0.0  T
   2    -96.1883388 -0.318625E-05  0.311E-02    1.72       1.0  T
   3    -96.1883361  0.270603E-05  0.775E-03    1.72       1.6  T
   4    -96.1883396 -0.348904E-05  0.169E-03    1.72       7.5  T
   5    -96.1883397 -0.723065E-07  0.853E-04    1.72      14.9  T
   6    -96.1883397 -0.818437E-08  0.446E-04    1.72      28.5  T
     SCC iter.                  ...        0 min,  0.043 sec
     gradient                   ...        0 min,  0.052 sec
 * total energy  :   -94.8814204 Eh     change       -0.4404622E-03 Eh
   gradient norm :     0.0081165 Eh/α   predicted    -0.3166799E-03 ( -28.10%)
   displ. norm   :     0.3746729 α      lambda       -0.5427062E-03
   maximum displ.:     0.2240116 α      in ANC's #11, #13, #4, ...

........................................................................
.............................. CYCLE    8 ..............................
........................................................................

 iter      E             dE          RMSdq      gap      omega  full diag
   1    -96.1889982 -0.961890E+02  0.729E-02    1.71       0.0  T
   2    -96.1890019 -0.375194E-05  0.429E-02    1.71       1.0  T
   3    -96.1889966  0.534474E-05  0.103E-02    1.71       1.2  T
   4    -96.1890030 -0.643752E-05  0.231E-03    1.71       5.5  T
   5    -96.1890032 -0.163451E-06  0.113E-03    1.71      11.3  T
   6    -96.1890032 -0.191626E-07  0.594E-04    1.71      21.4  T
   7    -96.1890032 -0.793047E-08  0.224E-04    1.71      56.7  T
     SCC iter.                  ...        0 min,  0.052 sec
     gradient                   ...        0 min,  0.051 sec
 * total energy  :   -94.8818153 Eh     change       -0.3949231E-03 Eh
   gradient norm :     0.0073049 Eh/α   predicted    -0.3094501E-03 ( -21.64%)
   displ. norm   :     0.3165093 α      lambda       -0.3645048E-03
   maximum displ.:     0.1677198 α      in ANC's #11, #4, #10, ...

........................................................................
.............................. CYCLE    9 ..............................
........................................................................

 iter      E             dE          RMSdq      gap      omega  full diag
   1    -96.1893970 -0.961894E+02  0.699E-02    1.70       0.0  T
   2    -96.1893995 -0.246902E-05  0.410E-02    1.70       1.0  T
   3    -96.1893924  0.713464E-05  0.120E-02    1.70       1.1  T
   4    -96.1894006 -0.829672E-05  0.216E-03    1.70       5.9  T
   5    -96.1894008 -0.143084E-06  0.104E-03    1.70      12.2  T
   6    -96.1894008 -0.125035E-07  0.511E-04    1.70      24.8  T
   7    -96.1894008 -0.566098E-08  0.190E-04    1.70      66.7  T
     SCC iter.                  ...        0 min,  0.030 sec
     gradient                   ...        0 min,  0.061 sec
 * total energy  :   -94.8820839 Eh     change       -0.2686174E-03 Eh
   gradient norm :     0.0066758 Eh/α   predicted    -0.2005106E-03 ( -25.35%)
   displ. norm   :     0.2856401 α      lambda       -0.3036270E-03
   maximum displ.:     0.1201580 α      in ANC's #11, #4, #12, ...

........................................................................
.............................. CYCLE   10 ..............................
........................................................................

 iter      E             dE          RMSdq      gap      omega  full diag
   1    -96.1901410 -0.961901E+02  0.676E-02    1.68       0.0  T
   2    -96.1901437 -0.277475E-05  0.395E-02    1.69       1.0  T
   3    -96.1901331  0.106435E-04  0.150E-02    1.70       1.0  T
   4    -96.1901454 -0.122755E-04  0.222E-03    1.70       5.7  T
   5    -96.1901455 -0.169003E-06  0.103E-03    1.69      12.4  T
   6    -96.1901455 -0.128048E-07  0.497E-04    1.69      25.6  T
   7    -96.1901456 -0.459350E-08  0.187E-04    1.69      68.0  T
     SCC iter.                  ...        0 min,  0.029 sec
     gradient                   ...        0 min,  0.061 sec
 * total energy  :   -94.8823079 Eh     change       -0.2239551E-03 Eh
   gradient norm :     0.0058890 Eh/α   predicted    -0.1642007E-03 ( -26.68%)
   displ. norm   :     0.2912363 α      lambda       -0.2549803E-03
   maximum displ.:     0.1224378 α      in ANC's #4, #6, #11, ...

........................................................................
.............................. CYCLE   11 ..............................
........................................................................

 iter      E             dE          RMSdq      gap      omega  full diag
   1    -96.1900156 -0.961900E+02  0.598E-02    1.67       0.0  T
   2    -96.1900184 -0.285211E-05  0.348E-02    1.68       1.0  T
   3    -96.1900090  0.943470E-05  0.148E-02    1.68       1.0  T
   4    -96.1900201 -0.111069E-04  0.229E-03    1.68       5.6  T
   5    -96.1900203 -0.192692E-06  0.104E-03    1.68      12.2  T
   6    -96.1900203 -0.120670E-07  0.509E-04    1.68      25.0  T
   7    -96.1900203 -0.436208E-08  0.157E-04    1.68      80.8  T
     SCC iter.                  ...        0 min,  0.029 sec
     gradient                   ...        0 min,  0.057 sec
 * total energy  :   -94.8824890 Eh     change       -0.1810710E-03 Eh
   gradient norm :     0.0064298 Eh/α   predicted    -0.1383064E-03 ( -23.62%)
   displ. norm   :     0.2648460 α      lambda       -0.2248991E-03
   maximum displ.:     0.1201346 α      in ANC's #4, #6, #7, ...

........................................................................
.............................. CYCLE   12 ..............................
........................................................................

 iter      E             dE          RMSdq      gap      omega  full diag
   1    -96.1911149 -0.961911E+02  0.510E-02    1.66       0.0  T
   2    -96.1911185 -0.353312E-05  0.295E-02    1.67       1.0  T
   3    -96.1911110  0.747897E-05  0.138E-02    1.67       1.0  T
   4    -96.1911200 -0.904906E-05  0.234E-03    1.67       5.4  T
   5    -96.1911202 -0.221838E-06  0.992E-04    1.67      12.8  T
   6    -96.1911203 -0.183361E-07  0.466E-04    1.67      27.3  T
     SCC iter.                  ...        0 min,  0.025 sec
     gradient                   ...        0 min,  0.079 sec
 * total energy  :   -94.8826179 Eh     change       -0.1288891E-03 Eh
   gradient norm :     0.0051476 Eh/α   predicted    -0.1203380E-03 (  -6.63%)
   displ. norm   :     0.2669077 α      lambda       -0.1580092E-03
   maximum displ.:     0.1164112 α      in ANC's #4, #6, #14, ...

........................................................................
.............................. CYCLE   13 ..............................
........................................................................

 iter      E             dE          RMSdq      gap      omega  full diag
   1    -96.1885234 -0.961885E+02  0.429E-02    1.65       0.0  T
   2    -96.1885254 -0.200613E-05  0.250E-02    1.65       1.0  T
   3    -96.1885222  0.325572E-05  0.934E-03    1.65       1.4  T
   4    -96.1885262 -0.404266E-05  0.180E-03    1.66       7.1  T
   5    -96.1885263 -0.962409E-07  0.907E-04    1.66      14.0  T
   6    -96.1885263 -0.857138E-08  0.445E-04    1.66      28.5  T
     SCC iter.                  ...        0 min,  0.069 sec
     gradient                   ...        0 min,  0.051 sec
 * total energy  :   -94.8826946 Eh     change       -0.7677504E-04 Eh
   gradient norm :     0.0061859 Eh/α   predicted    -0.8463982E-04 (  10.24%)
   displ. norm   :     0.0922432 α      lambda       -0.1026118E-03
   maximum displ.:     0.0340523 α      in ANC's #7, #12, #6, ...

........................................................................
.............................. CYCLE   14 ..............................
........................................................................

 iter      E             dE          RMSdq      gap      omega  full diag
   1    -96.1908798 -0.961909E+02  0.234E-02    1.66       0.0  T
   2    -96.1908811 -0.133103E-05  0.137E-02    1.66       1.0  T
   3    -96.1908803  0.849854E-06  0.483E-03    1.66       2.6  T
   4    -96.1908812 -0.927378E-06  0.161E-03    1.66       7.9  T
   5    -96.1908814 -0.142027E-06  0.380E-04    1.66      33.4  T
   6    -96.1908814 -0.966125E-09  0.205E-04    1.66      62.0  T
     SCC iter.                  ...        0 min,  0.040 sec
     gradient                   ...        0 min,  0.052 sec
 * total energy  :   -94.8827600 Eh     change       -0.6532513E-04 Eh
   gradient norm :     0.0052809 Eh/α   predicted    -0.5174444E-04 ( -20.79%)
   displ. norm   :     0.1431010 α      lambda       -0.9473344E-04
   maximum displ.:     0.0710943 α      in ANC's #4, #6, #3, ...

........................................................................
.............................. CYCLE   15 ..............................
........................................................................

 iter      E             dE          RMSdq      gap      omega  full diag
   1    -96.1900328 -0.961900E+02  0.234E-02    1.66       0.0  T
   2    -96.1900341 -0.135182E-05  0.136E-02    1.65       1.0  T
   3    -96.1900339  0.252117E-06  0.319E-03    1.65       4.0  T
   4    -96.1900343 -0.382203E-06  0.104E-03    1.65      12.2  T
   5    -96.1900343 -0.452551E-07  0.410E-04    1.65      31.0  T
   6    -96.1900343 -0.315249E-08  0.223E-04    1.65      56.9  T
     SCC iter.                  ...        0 min,  0.025 sec
     gradient                   ...        0 min,  0.052 sec
 * total energy  :   -94.8828119 Eh     change       -0.5192885E-04 Eh
   gradient norm :     0.0034946 Eh/α   predicted    -0.4833829E-04 (  -6.91%)
   displ. norm   :     0.1110450 α      lambda       -0.4628192E-04
   maximum displ.:     0.0546918 α      in ANC's #4, #14, #9, ...

........................................................................
.............................. CYCLE   16 ..............................
........................................................................

 iter      E             dE          RMSdq      gap      omega  full diag
   1    -96.1902834 -0.961903E+02  0.200E-02    1.66       0.0  T
   2    -96.1902837 -0.361633E-06  0.117E-02    1.66       1.1  T
   3    -96.1902830  0.674740E-06  0.367E-03    1.66       3.5  T
   4    -96.1902838 -0.790260E-06  0.745E-04    1.66      17.0  T
   5    -96.1902839 -0.204027E-07  0.337E-04    1.66      37.7  T
     SCC iter.                  ...        0 min,  0.021 sec
     gradient                   ...        0 min,  0.051 sec
 * total energy  :   -94.8828479 Eh     change       -0.3601746E-04 Eh
   gradient norm :     0.0031798 Eh/α   predicted    -0.2342895E-04 ( -34.95%)
   displ. norm   :     0.1949855 α      lambda       -0.7637985E-04
   maximum displ.:     0.0996357 α      in ANC's #4, #9, #3, ...

........................................................................
.............................. CYCLE   17 ..............................
........................................................................

 iter      E             dE          RMSdq      gap      omega  full diag
   1    -96.1902824 -0.961903E+02  0.368E-02    1.67       0.0  T
   2    -96.1902835 -0.107364E-05  0.214E-02    1.67       1.0  T
   3    -96.1902817  0.175321E-05  0.598E-03    1.67       2.1  T
   4    -96.1902838 -0.206076E-05  0.137E-03    1.67       9.3  T
   5    -96.1902839 -0.795150E-07  0.586E-04    1.67      21.7  T
   6    -96.1902839 -0.521736E-08  0.272E-04    1.67      46.7  T
     SCC iter.                  ...        0 min,  0.026 sec
     gradient                   ...        0 min,  0.052 sec
 * total energy  :   -94.8829028 Eh     change       -0.5486818E-04 Eh
   gradient norm :     0.0035234 Eh/α   predicted    -0.3964688E-04 ( -27.74%)
   displ. norm   :     0.1912287 α      lambda       -0.6100158E-04
   maximum displ.:     0.0967510 α      in ANC's #4, #9, #3, ...

........................................................................
.............................. CYCLE   18 ..............................
........................................................................

 iter      E             dE          RMSdq      gap      omega  full diag
   1    -96.1904906 -0.961905E+02  0.372E-02    1.67       0.0  T
   2    -96.1904915 -0.928799E-06  0.216E-02    1.68       1.0  T
   3    -96.1904896  0.189731E-05  0.628E-03    1.67       2.0  T
   4    -96.1904918 -0.220458E-05  0.134E-03    1.68       9.5  T
   5    -96.1904919 -0.745017E-07  0.565E-04    1.68      22.5  T
   6    -96.1904919 -0.337224E-08  0.274E-04    1.68      46.3  T
     SCC iter.                  ...        0 min,  0.025 sec
     gradient                   ...        0 min,  0.067 sec
 * total energy  :   -94.8829490 Eh     change       -0.4621170E-04 Eh
   gradient norm :     0.0041287 Eh/α   predicted    -0.3162025E-04 ( -31.58%)
   displ. norm   :     0.2379612 α      lambda       -0.7172889E-04
   maximum displ.:     0.1221621 α      in ANC's #4, #3, #9, ...

........................................................................
.............................. CYCLE   19 ..............................
........................................................................

 iter      E             dE          RMSdq      gap      omega  full diag
   1    -96.1904140 -0.961904E+02  0.468E-02    1.67       0.0  T
   2    -96.1904155 -0.148768E-05  0.273E-02    1.68       1.0  T
   3    -96.1904119  0.358086E-05  0.868E-03    1.68       1.5  T
   4    -96.1904160 -0.414470E-05  0.165E-03    1.68       7.7  T
   5    -96.1904162 -0.107281E-06  0.715E-04    1.68      17.8  T
   6    -96.1904162 -0.536339E-08  0.367E-04    1.68      34.6  T
     SCC iter.                  ...        0 min,  0.025 sec
     gradient                   ...        0 min,  0.090 sec
 * total energy  :   -94.8830022 Eh     change       -0.5317538E-04 Eh
   gradient norm :     0.0044319 Eh/α   predicted    -0.3789907E-04 ( -28.73%)
   displ. norm   :     0.2291071 α      lambda       -0.6965836E-04
   maximum displ.:     0.1184308 α      in ANC's #4, #3, #9, ...

........................................................................
.............................. CYCLE   20 ..............................
........................................................................

 iter      E             dE          RMSdq      gap      omega  full diag
   1    -96.1908583 -0.961909E+02  0.447E-02    1.67       0.0  T
   2    -96.1908595 -0.124355E-05  0.262E-02    1.68       1.0  T
   3    -96.1908550  0.452465E-05  0.966E-03    1.67       1.3  T
   4    -96.1908602 -0.523686E-05  0.147E-03    1.68       8.7  T
   5    -96.1908603 -0.712899E-07  0.713E-04    1.68      17.8  T
   6    -96.1908603 -0.637147E-08  0.359E-04    1.68      35.4  T
     SCC iter.                  ...        0 min,  0.059 sec
     gradient                   ...        0 min,  0.052 sec
 * total energy  :   -94.8830511 Eh     change       -0.4898013E-04 Eh
   gradient norm :     0.0038282 Eh/α   predicted    -0.3666080E-04 ( -25.15%)
   displ. norm   :     0.2025614 α      lambda       -0.5530783E-04
   maximum displ.:     0.1154670 α      in ANC's #4, #3, #1, ...
 * RMSD in coord.:     0.4857006 α      energy gain  -0.2646430E-01 Eh

generating ANC from exact Hessian ...
Using Lindh-Hessian (1995)
 Shifting diagonal of input Hessian by    9.8284413787457954E-003
 Lowest  eigenvalues of input Hessian
    0.000000    0.000000    0.000000    0.000000    0.000000    0.000000
    0.010000    0.010161    0.010246    0.010428    0.010723    0.011147
    0.011299    0.011744    0.012020    0.012528    0.013013    0.014111
 Highest eigenvalues
    2.109601    2.167907    2.221349    2.301251    2.348804    2.390157


........................................................................
.............................. CYCLE   21 ..............................
........................................................................

 iter      E             dE          RMSdq      gap      omega  full diag
   1    -96.1904935 -0.961905E+02  0.348E-02    1.67       0.0  T
   2    -96.1904948 -0.130981E-05  0.204E-02    1.67       1.0  T
   3    -96.1904921  0.266195E-05  0.770E-03    1.67       1.6  T
   4    -96.1904953 -0.315067E-05  0.134E-03    1.67       9.5  T
   5    -96.1904954 -0.644281E-07  0.622E-04    1.67      20.4  T
   6    -96.1904954 -0.712329E-08  0.323E-04    1.67      39.3  T
     SCC iter.                  ...        0 min,  0.058 sec
     gradient                   ...        0 min,  0.052 sec
 * total energy  :   -94.8830882 Eh     change       -0.3708146E-04 Eh
   gradient norm :     0.0033712 Eh/α   predicted     0.0000000E+00 (-100.00%)
   displ. norm   :     0.0291135 α      lambda       -0.2558631E-04
   maximum displ.:     0.0133811 α      in ANC's #6, #13, #11, ...

........................................................................
.............................. CYCLE   22 ..............................
........................................................................

 iter      E             dE          RMSdq      gap      omega  full diag
   1    -96.1915695 -0.961916E+02  0.731E-03    1.67       0.0  T
   2    -96.1915697 -0.188980E-06  0.421E-03    1.67       3.0  T
   3    -96.1915697  0.350524E-07  0.136E-03    1.67       9.3  T
   4    -96.1915697 -0.417359E-07  0.505E-04    1.67      25.1  T
   5    -96.1915697 -0.134590E-07  0.150E-04    1.67      84.6  T
     SCC iter.                  ...        0 min,  0.021 sec
     gradient                   ...        0 min,  0.090 sec
 * total energy  :   -94.8831098 Eh     change       -0.2156053E-04 Eh
   gradient norm :     0.0014980 Eh/α   predicted    -0.1415934E-04 ( -34.33%)
   displ. norm   :     0.0973034 α      lambda       -0.2963305E-04
   maximum displ.:     0.0473392 α      in ANC's #6, #13, #11, ...

........................................................................
.............................. CYCLE   23 ..............................
........................................................................

 iter      E             dE          RMSdq      gap      omega  full diag
   1    -96.1929405 -0.961929E+02  0.189E-02    1.67       0.0  T
   2    -96.1929413 -0.813415E-06  0.109E-02    1.67       1.2  T
   3    -96.1929409  0.332002E-06  0.328E-03    1.66       3.9  T
   4    -96.1929413 -0.362710E-06  0.120E-03    1.67      10.6  T
   5    -96.1929414 -0.786215E-07  0.319E-04    1.67      39.9  T
   6    -96.1929414 -0.131686E-08  0.167E-04    1.67      76.2  T
     SCC iter.                  ...        0 min,  0.025 sec
     gradient                   ...        0 min,  0.085 sec
 * total energy  :   -94.8831301 Eh     change       -0.2030165E-04 Eh
   gradient norm :     0.0024312 Eh/α   predicted    -0.1487916E-04 ( -26.71%)
   displ. norm   :     0.0371101 α      lambda       -0.1305876E-04
   maximum displ.:     0.0184083 α      in ANC's #6, #13, #1, ...

........................................................................
.............................. CYCLE   24 ..............................
........................................................................

 iter      E             dE          RMSdq      gap      omega  full diag
   1    -96.1925894 -0.961926E+02  0.762E-03    1.66       0.0  T
   2    -96.1925895 -0.204013E-07  0.447E-03    1.66       2.8  T
   3    -96.1925894  0.611936E-08  0.544E-04    1.66      23.3  T
   4    -96.1925895 -0.127720E-07  0.172E-04    1.66      73.7  T
     SCC iter.                  ...        0 min,  0.017 sec
     gradient                   ...        0 min,  0.073 sec
 * total energy  :   -94.8831416 Eh     change       -0.1155825E-04 Eh
   gradient norm :     0.0020337 Eh/α   predicted    -0.6538666E-05 ( -43.43%)
   displ. norm   :     0.1550767 α      lambda       -0.4477224E-04
   maximum displ.:     0.0766831 α      in ANC's #6, #13, #1, ...

........................................................................
.............................. CYCLE   25 ..............................
........................................................................

 iter      E             dE          RMSdq      gap      omega  full diag
   1    -96.1912252 -0.961912E+02  0.306E-02    1.66       0.0  T
   2    -96.1912256 -0.328829E-06  0.179E-02    1.66       1.0  T
   3    -96.1912256  0.622556E-08  0.165E-03    1.66       7.7  T
   4    -96.1912257 -0.105365E-06  0.698E-04    1.66      18.2  T
   5    -96.1912257 -0.688429E-08  0.377E-04    1.66      33.7  T
     SCC iter.                  ...        0 min,  0.055 sec
     gradient                   ...        0 min,  0.091 sec
 * total energy  :   -94.8831692 Eh     change       -0.2757015E-04 Eh
   gradient norm :     0.0016652 Eh/α   predicted    -0.2296198E-04 ( -16.71%)
   displ. norm   :     0.1120997 α      lambda       -0.1128914E-04
   maximum displ.:     0.0566865 α      in ANC's #6, #1, #13, ...

........................................................................
.............................. CYCLE   26 ..............................
........................................................................

 iter      E             dE          RMSdq      gap      omega  full diag
   1    -96.1910673 -0.961911E+02  0.208E-02    1.66       0.0  T
   2    -96.1910674 -0.157068E-06  0.122E-02    1.66       1.0  T
   3    -96.1910673  0.888642E-07  0.158E-03    1.66       8.0  T
   4    -96.1910675 -0.132717E-06  0.571E-04    1.66      22.2  T
   5    -96.1910675 -0.105959E-07  0.260E-04    1.66      48.8  T
     SCC iter.                  ...        0 min,  0.021 sec
     gradient                   ...        0 min,  0.085 sec
 * total energy  :   -94.8831812 Eh     change       -0.1195474E-04 Eh
   gradient norm :     0.0017966 Eh/α   predicted    -0.5681486E-05 ( -52.48%)
   displ. norm   :     0.1051799 α      lambda       -0.1441264E-04
   maximum displ.:     0.0517484 α      in ANC's #6, #1, #13, ...

........................................................................
.............................. CYCLE   27 ..............................
........................................................................

 iter      E             dE          RMSdq      gap      omega  full diag
   1    -96.1918545 -0.961919E+02  0.185E-02    1.66       0.0  T
   2    -96.1918547 -0.213847E-06  0.108E-02    1.66       1.2  T
   3    -96.1918544  0.258414E-06  0.230E-03    1.66       5.5  T
   4    -96.1918547 -0.307490E-06  0.682E-04    1.66      18.6  T
   5    -96.1918548 -0.197805E-07  0.278E-04    1.66      45.6  T
     SCC iter.                  ...        0 min,  0.021 sec
     gradient                   ...        0 min,  0.079 sec
 * total energy  :   -94.8831966 Eh     change       -0.1541924E-04 Eh
   gradient norm :     0.0010697 Eh/α   predicted    -0.7242211E-05 ( -53.03%)
   displ. norm   :     0.1466014 α      lambda       -0.1218465E-04
   maximum displ.:     0.0696115 α      in ANC's #1, #6, #13, ...

........................................................................
.............................. CYCLE   28 ..............................
........................................................................

 iter      E             dE          RMSdq      gap      omega  full diag
   1    -96.1919294 -0.961919E+02  0.270E-02    1.66       0.0  T
   2    -96.1919296 -0.221176E-06  0.159E-02    1.66       1.0  T
   3    -96.1919283  0.127329E-05  0.475E-03    1.66       2.7  T
   4    -96.1919298 -0.145641E-05  0.612E-04    1.66      20.7  T
   5    -96.1919298 -0.543776E-08  0.344E-04    1.66      36.9  T
   6    -96.1919298 -0.980137E-09  0.133E-04    1.66      95.2  T
     SCC iter.                  ...        0 min,  0.060 sec
     gradient                   ...        0 min,  0.085 sec
 * total energy  :   -94.8832102 Eh     change       -0.1360804E-04 Eh
   gradient norm :     0.0013147 Eh/α   predicted    -0.6155539E-05 ( -54.77%)
   displ. norm   :     0.1646288 α      lambda       -0.1422635E-04
   maximum displ.:     0.0838536 α      in ANC's #1, #6, #13, ...

........................................................................
.............................. CYCLE   29 ..............................
........................................................................

 iter      E             dE          RMSdq      gap      omega  full diag
   1    -96.1921004 -0.961921E+02  0.311E-02    1.67       0.0  T
   2    -96.1921007 -0.319205E-06  0.183E-02    1.67       1.0  T
   3    -96.1920988  0.188070E-05  0.584E-03    1.67       2.2  T
   4    -96.1921010 -0.213815E-05  0.725E-04    1.67      17.5  T
   5    -96.1921010 -0.980543E-08  0.400E-04    1.67      31.7  T
   6    -96.1921010 -0.786144E-09  0.157E-04    1.67      80.7  T
     SCC iter.                  ...        0 min,  0.026 sec
     gradient                   ...        0 min,  0.082 sec
 * total energy  :   -94.8832259 Eh     change       -0.1572636E-04 Eh
   gradient norm :     0.0012733 Eh/α   predicted    -0.7201532E-05 ( -54.21%)
   displ. norm   :     0.1525401 α      lambda       -0.1097648E-04
   maximum displ.:     0.0810175 α      in ANC's #1, #13, #4, ...

........................................................................
.............................. CYCLE   30 ..............................
........................................................................

 iter      E             dE          RMSdq      gap      omega  full diag
   1    -96.1919800 -0.961920E+02  0.309E-02    1.67       0.0  T
   2    -96.1919803 -0.309555E-06  0.182E-02    1.67       1.0  T
   3    -96.1919783  0.198173E-05  0.601E-03    1.67       2.1  T
   4    -96.1919806 -0.224795E-05  0.707E-04    1.67      18.0  T
   5    -96.1919806 -0.904242E-08  0.392E-04    1.67      32.4  T
   6    -96.1919806 -0.904492E-09  0.161E-04    1.67      78.8  T
     SCC iter.                  ...        0 min,  0.025 sec
     gradient                   ...        0 min,  0.085 sec
 * total energy  :   -94.8832377 Eh     change       -0.1176201E-04 Eh
   gradient norm :     0.0010356 Eh/α   predicted    -0.5549454E-05 ( -52.82%)
   displ. norm   :     0.0926253 α      lambda       -0.7996015E-05
   maximum displ.:     0.0512646 α      in ANC's #1, #11, #4, ...

........................................................................
.............................. CYCLE   31 ..............................
........................................................................

 iter      E             dE          RMSdq      gap      omega  full diag
   1    -96.1926080 -0.961926E+02  0.197E-02    1.67       0.0  T
   2    -96.1926083 -0.252628E-06  0.116E-02    1.67       1.1  T
   3    -96.1926076  0.662088E-06  0.357E-03    1.67       3.6  T
   4    -96.1926084 -0.755551E-06  0.665E-04    1.67      19.1  T
   5    -96.1926084 -0.162676E-07  0.276E-04    1.67      46.0  T
     SCC iter.                  ...        0 min,  0.048 sec
     gradient                   ...        0 min,  0.051 sec
 * total energy  :   -94.8832433 Eh     change       -0.5634237E-05 Eh
   gradient norm :     0.0010234 Eh/α   predicted    -0.4014027E-05 ( -28.76%)
   displ. norm   :     0.0998591 α      lambda       -0.5044244E-05
   maximum displ.:     0.0550900 α      in ANC's #1, #13, #4, ...

........................................................................
.............................. CYCLE   32 ..............................
........................................................................

 iter      E             dE          RMSdq      gap      omega  full diag
   1    -96.1919372 -0.961919E+02  0.207E-02    1.67       0.0  T
   2    -96.1919373 -0.147674E-06  0.122E-02    1.67       1.0  T
   3    -96.1919368  0.503886E-06  0.313E-03    1.67       4.1  T
   4    -96.1919374 -0.587536E-06  0.542E-04    1.67      23.4  T
   5    -96.1919374 -0.668406E-08  0.292E-04    1.67      43.4  T
     SCC iter.                  ...        0 min,  0.021 sec
     gradient                   ...        0 min,  0.092 sec
 * total energy  :   -94.8832463 Eh     change       -0.2979398E-05 Eh
   gradient norm :     0.0008842 Eh/α   predicted    -0.2535948E-05 ( -14.88%)
   displ. norm   :     0.0233187 α      lambda       -0.2256375E-05
   maximum displ.:     0.0129631 α      in ANC's #6, #13, #21, ...

   *** GEOMETRY OPTIMIZATION CONVERGED AFTER 32 ITERATIONS ***

------------------------------------------------------------------------
 total energy gain   :        -0.0266595 Eh      -16.7291 kcal/mol
 total RMSD          :         0.5437706 a0        0.2878 Å
 total power (kW/mol):        -2.1873247 (step)  -17.4043 (real)
------------------------------------------------------------------------

 ANCopt (total)                0 d,  0 h,  0 min,  4.022 sec
 optimizer setup                ...        0 min,  0.000 sec (  0.002%)
 model hessian                  ...        0 min,  0.088 sec (  2.182%)
 ANC generation                 ...        0 min,  0.007 sec (  0.164%)
 coordinate transformation      ...        0 min,  0.000 sec (  0.012%)
 single point calculation       ...        0 min,  3.899 sec ( 96.938%)
 optimization log               ...        0 min,  0.007 sec (  0.167%)
 hessian update                 ...        0 min,  0.001 sec (  0.017%)
 rational function              ...        0 min,  0.003 sec (  0.076%)

================
 final structure:
================
62
 xtb: 6.7.1 (edcfbbe)
C           -7.11486425503156        2.89794748072100        1.57674481459774
C           -6.32954126117329        2.97477480043401        0.30049531132822
C           -5.07718012700193        2.15305717223018        0.26922466787671
C           -3.88421385735590        2.69308164100616       -0.11431219601588
C           -3.71680577692758        4.12963828709676       -0.49399431650269
C           -2.72773305927925        1.85352586952582       -0.11329447383903
C           -1.43057495757324        2.26583793283651       -0.44289521897484
N           -0.38821205387109        1.47062884997353       -0.43426200567519
C           -0.60676233590015        0.19207291327197       -0.08928099607104
N            0.41627490459616       -0.68576789015623       -0.04332675778122
C            1.77208153203057       -0.52483439282551       -0.28397997540261
N            2.47345401486315       -1.63747377629374       -0.07892644499582
C            3.77399273135927       -1.62050484550483       -0.26942922198281
C            4.49607027573731       -0.48885783503183       -0.67699903962225
C            3.73831148833222        0.67094356485135       -0.89407957585447
C            2.37200344680836        0.66086287390632       -0.69997811387974
N            5.85737527836107       -0.56262744384079       -0.90587355696945
C            6.54702618161954        0.52095340233665       -1.57381824479302
C            7.80046369476845       -0.03789012272765       -2.26844257059545
N            8.68551909319516       -0.74714650144240       -1.36758437460317
C            7.95314464603831       -1.79143740865676       -0.67805675750706
C            6.71374008996345       -1.24776717677844        0.04374447793479
N           -1.79307026428233       -0.32229649013681        0.23109929424195
C           -2.84883997960452        0.48131138355483        0.22589779954014
N           -4.05899806934038       -0.03959498629841        0.55593788903994
C           -4.20551054242363       -1.45760547981313        0.86838499530129
C           -3.73810706338522       -2.40005268202240       -0.26055640391452
C           -2.74964571849604       -3.37022826966494        0.39223881230916
C           -3.13839689947349       -3.36211289777642        1.86791982325794
C           -3.44343364166851       -1.89138898794570        2.12961709321120
C           -5.21168801676253        0.74495838925598        0.63300878858596
O           -6.26558877383394        0.23257144337543        0.97115995990437
O           -6.66479913852507        3.66332883141911       -0.63530499880018
H           -7.91959577291744        3.62844856012839        1.56140649341830
H           -6.46323677281163        3.06477888246423        2.43264081283648
H           -7.52583643272805        1.89265384272404        1.66174811550839
H           -3.32950944409764        4.19701220777479       -1.50961266490125
H           -3.00540546762733        4.61409113706126        0.17448165176144
H           -4.66011791861494        4.66251450489409       -0.45703803046201
H           -1.22328733545563        3.28822238006115       -0.72782373442263
H            0.16369563097079       -1.62586281245768        0.23728782443409
H            4.26419196673438       -2.56953259979273       -0.10103042051735
H            4.21160835294861        1.59123857444235       -1.19930444290826
H            1.77454297295771        1.54245877586789       -0.85346633223761
H            5.89352292997867        0.95397362099355       -2.33132166087239
H            6.84130729416656        1.31081013457420       -0.86075072900916
H            7.48885939510333       -0.74545052214552       -3.04208627271848
H            8.35406249492470        0.77560334198653       -2.74129504894814
H            9.07299852337074       -0.09773359924089       -0.68700161024299
H            7.64243708332735       -2.52501072787631       -1.42711484915507
H            8.61866603451977       -2.27900921005695        0.03681064085194
H            6.17064516031126       -2.05994770006832        0.52214293421092
H            7.03791386580028       -0.54249459795540        0.83041294082462
H           -5.27815900145755       -1.58885173642304        1.03331401134927
H           -4.59599340860367       -2.93831006297884       -0.66353968526807
H           -3.27638490266239       -1.84603147330174       -1.07490508774739
H           -2.79622875231731       -4.36446515541634       -0.04910563062357
H           -1.73571057840886       -2.98708322709987        0.28314707904227
H           -2.34938566779218       -3.74537954842397        2.51296652639525
H           -4.03622803788857       -3.96267140098254        2.02275383843297
H           -4.03164006666865       -1.73089249138394        3.03203315869261
H           -2.51292373083053       -1.33118674625000        2.20817168893552

 Bond Distances (Angstroems)
 ---------------------------
C1-C2=1.5005         C1-H34=1.0869        C1-H35=1.0886        C1-H36=1.0894        C2-C1=1.5005         C2-C3=1.4982         
C2-O33=1.2092        C3-C2=1.4982         C3-C4=1.3645         C3-C31=1.4605        C4-C3=1.3645         C4-C5=1.4953         
C4-C6=1.4291         C5-C4=1.4953         C5-H37=1.0890        C5-H38=1.0898        C5-H39=1.0840        C6-C4=1.4291         
C6-C7=1.4004         C6-C24=1.4187        C7-C6=1.4004         C7-N8=1.3111         C7-H40=1.0814        N8-C7=1.3111         
N8-C9=1.3422         C9-N8=1.3422         C9-N10=1.3488        C9-N23=1.3321        N10-C9=1.3488        N10-C11=1.3864       
N10-H41=1.0131       C11-N10=1.3864       C11-N12=1.3311       C11-C16=1.3924       N12-C11=1.3311       N12-C13=1.3145       
C13-N12=1.3145       C13-C14=1.4029       C13-H42=1.0813       C14-C13=1.4029       C14-C15=1.4023       C14-N17=1.3824       
C15-C14=1.4023       C15-C16=1.3801       C15-H43=1.0789       C16-C11=1.3924       C16-C15=1.3801       C16-H44=1.0760       
N17-C14=1.3824       N17-C18=1.4477       N17-C22=1.4507       C18-N17=1.4477       C18-C19=1.5382       C18-H45=1.0901       
C18-H46=1.1041       C19-C18=1.5382       C19-N20=1.4484       C19-H47=1.0937       C19-H48=1.0917       N20-C19=1.4484       
N20-C21=1.4500       N20-H49=1.0174       C21-N20=1.4500       C21-C22=1.5339       C21-H50=1.0935       C21-H51=1.0916       
C22-N17=1.4507       C22-C21=1.5339       C22-H52=1.0879       C22-H53=1.1051       N23-C9=1.3321        N23-C24=1.3268       
C24-C6=1.4187        C24-N23=1.3268       C24-N25=1.3582       N25-C24=1.3582       N25-C26=1.4594       N25-C31=1.3965       
C26-N25=1.4594       C26-C27=1.5431       C26-C30=1.5361       C26-H54=1.0932       C27-C26=1.5431       C27-C28=1.5312       
C27-H55=1.0900       C27-H56=1.0878       C28-C27=1.5312       C28-C29=1.5260       C28-H57=1.0888       C28-H58=1.0894       
C29-C28=1.5260       C29-C30=1.5247       C29-H59=1.0888       C29-H60=1.0912       C30-C26=1.5361       C30-C29=1.5247       
C30-H61=1.0891       C30-H62=1.0890       C31-C3=1.4605        C31-N25=1.3965       C31-O32=1.2197       O32-C31=1.2197       
O33-C2=1.2092        H34-C1=1.0869        H35-C1=1.0886        H36-C1=1.0894        H37-C5=1.0890        H38-C5=1.0898        
H39-C5=1.0840        H40-C7=1.0814        H41-N10=1.0131       H42-C13=1.0813       H43-C15=1.0789       H44-C16=1.0760       
H45-C18=1.0901       H46-C18=1.1041       H47-C19=1.0937       H48-C19=1.0917       H49-N20=1.0174       H50-C21=1.0935       
H51-C21=1.0916       H52-C22=1.0879       H53-C22=1.1051       H54-C26=1.0932       H55-C27=1.0900       H56-C27=1.0878       
H57-C28=1.0888       H58-C28=1.0894       H59-C29=1.0888       H60-C29=1.0912       H61-C30=1.0891       H62-C30=1.0890       
 C  H  Rav=1.0893 sigma=0.0060  Rmin=1.0760  Rmax=1.1051    27
 C  C  Rav=1.4673 sigma=0.0624  Rmin=1.3645  Rmax=1.5431    19
 N  H  Rav=1.0152 sigma=0.0022  Rmin=1.0131  Rmax=1.0174     2
 N  C  Rav=1.3804 sigma=0.0532  Rmin=1.3111  Rmax=1.4594    16
 O  C  Rav=1.2144 sigma=0.0052  Rmin=1.2092  Rmax=1.2197     2

 selected bond angles (degree)
 --------------------
H34-C1-C2=109.94               H35-C1-C2=110.34               H35-C1-H34=110.57              H36-C1-C2=108.12               
H36-C1-H34=110.00              H36-C1-H35=107.81              C3-C2-C1=115.29                O33-C2-C1=122.84               
O33-C2-C3=121.86               C4-C3-C2=121.31                C31-C3-C2=116.53               C31-C3-C4=122.15               
C5-C4-C3=123.33                C6-C4-C3=118.35                C6-C4-C5=118.29                H37-C5-C4=109.64               
H38-C5-C4=110.15               H38-C5-H37=108.20              H39-C5-C4=111.48               H39-C5-H37=108.11              
H39-C5-H38=109.18              C7-C6-C4=125.20                C24-C6-C4=119.95               C24-C6-C7=114.84               
N8-C7-C6=123.80                H40-C7-C6=121.19               H40-C7-N8=115.01               C9-N8-C7=116.74                
N10-C9-N8=120.35               N23-C9-N8=125.07               N23-C9-N10=114.58              C11-N10-C9=131.32              
H41-N10-C9=115.10              H41-N10-C11=113.55             

 selected dihedral angles (degree)
 ---------------------------------
C3-C2-C1-H34=171.91           C3-C2-C1-H35= 49.69           C3-C2-C1-H36=292.01           O33-C2-C1-H34=352.94          
O33-C2-C1-H35=230.73          O33-C2-C1-H36=113.04          C4-C3-C2-C1=230.16            C4-C3-C2-O33= 49.13           
C31-C3-C2-C1= 51.81           C31-C3-C2-O33=230.79          C5-C4-C3-C2=  1.66            C5-C4-C3-C31=179.91           
C6-C4-C3-C2=179.64            C6-C4-C3-C31=357.89           H37-C5-C4-C3=238.35           H37-C5-C4-C6= 60.37           
H38-C5-C4-C3=119.39           H38-C5-C4-C6=301.41           H39-C5-C4-C3=358.03           H39-C5-C4-C6=180.04           
C7-C6-C4-C3=181.88            C7-C6-C4-C5=359.97            C24-C6-C4-C3=  2.65           C24-C6-C4-C5=180.74           
N8-C7-C6-C4=180.08            N8-C7-C6-C24=359.34           H40-C7-C6-C4=  0.08           H40-C7-C6-C24=179.34          
C9-N8-C7-C6=  0.19            C9-N8-C7-H40=180.19           N10-C9-N8-C7=180.67           N23-C9-N8-C7=  0.52           
C11-N10-C9-N8=  1.00          C11-N10-C9-N23=181.13         H41-N10-C9-N8=179.28          H41-N10-C9-N23=359.41         
           -------------------------------------------------
          |                Final Singlepoint                |
           -------------------------------------------------

          ...................................................
          :                      SETUP                      :
          :.................................................:
          :  # basis functions                 161          :
          :  # atomic orbitals                 161          :
          :  # shells                           95          :
          :  # electrons                       172          :
          :  max. iterations                   250          :
          :  Hamiltonian                  GFN2-xTB          :
          :  restarted?                      false          :
          :  GBSA solvation                  false          :
          :  PC potential                    false          :
          :  electronic temp.          300.0000000     K    :
          :  accuracy                    1.0000000          :
          :  -> integral cutoff          0.2500000E+02      :
          :  -> integral neglect         0.1000000E-07      :
          :  -> SCF convergence          0.1000000E-05 Eh   :
          :  -> wf. convergence          0.1000000E-03 e    :
          :  Broyden damping             0.4000000          :
          :  net charge                          0          :
          :  unpaired electrons                  0          :
          ...................................................

 iter      E             dE          RMSdq      gap      omega  full diag
   1    -96.1919374 -0.961919E+02  0.135E-04    1.67       0.0  T
   2    -96.1919374 -0.199350E-09  0.874E-05    1.67     145.3  T
   3    -96.1919374 -0.110518E-09  0.591E-05    1.67     214.7  T

   *** convergence criteria satisfied after 3 iterations ***

         #    Occupation            Energy/Eh            Energy/eV
      -------------------------------------------------------------
         1        2.0000           -0.7051147             -19.1871
       ...           ...                  ...                  ...
        80        2.0000           -0.4012842             -10.9195
        81        2.0000           -0.3937710             -10.7151
        82        2.0000           -0.3872302             -10.5371
        83        2.0000           -0.3787417             -10.3061
        84        2.0000           -0.3744404             -10.1890
        85        2.0000           -0.3722789             -10.1302
        86        2.0000           -0.3522463              -9.5851 (HOMO)
        87                         -0.2909260              -7.9165 (LUMO)
        88                         -0.2609212              -7.1000
        89                         -0.2448315              -6.6622
        90                         -0.2381328              -6.4799
        91                         -0.2283604              -6.2140
       ...                                ...                  ...
       161                          0.6910862              18.8054
      -------------------------------------------------------------
                  HL-Gap            0.0613203 Eh            1.6686 eV
             Fermi-level           -0.3215862 Eh           -8.7508 eV

 SCC (total)                   0 d,  0 h,  0 min,  0.105 sec
 SCC setup                      ...        0 min,  0.001 sec (  0.567%)
 Dispersion                     ...        0 min,  0.001 sec (  0.609%)
 classical contributions        ...        0 min,  0.000 sec (  0.291%)
 integral evaluation            ...        0 min,  0.013 sec ( 12.117%)
 iterations                     ...        0 min,  0.013 sec ( 12.263%)
 molecular gradient             ...        0 min,  0.078 sec ( 73.857%)
 printout                       ...        0 min,  0.000 sec (  0.291%)

         :::::::::::::::::::::::::::::::::::::::::::::::::::::
         ::                     SUMMARY                     ::
         :::::::::::::::::::::::::::::::::::::::::::::::::::::
         :: total energy             -94.883246295569 Eh    ::
         :: gradient norm              0.000885609215 Eh/a0 ::
         :: HOMO-LUMO gap              1.668609633953 eV    ::
         ::.................................................::
         :: SCC energy               -96.192144014581 Eh    ::
         :: -> isotropic ES            0.109604886785 Eh    ::
         :: -> anisotropic ES          0.006063195267 Eh    ::
         :: -> anisotropic XC          0.053343836160 Eh    ::
         :: -> dispersion             -0.071480086053 Eh    ::
         :: repulsion energy           1.308897719012 Eh    ::
         :: add. restraining           0.000000000000 Eh    ::
         :: total charge              -0.000000000000 e     ::
         :::::::::::::::::::::::::::::::::::::::::::::::::::::

           -------------------------------------------------
          |                Property Printout                |
           -------------------------------------------------

    * Orbital Energies and Occupations

         #    Occupation            Energy/Eh            Energy/eV
      -------------------------------------------------------------
         1        2.0000           -0.7051147             -19.1871
       ...           ...                  ...                  ...
        74        2.0000           -0.4344266             -11.8214
        75        2.0000           -0.4318897             -11.7523
        76        2.0000           -0.4265640             -11.6074
        77        2.0000           -0.4217809             -11.4772
        78        2.0000           -0.4174748             -11.3601
        79        2.0000           -0.4082999             -11.1104
        80        2.0000           -0.4012842             -10.9195
        81        2.0000           -0.3937710             -10.7151
        82        2.0000           -0.3872302             -10.5371
        83        2.0000           -0.3787417             -10.3061
        84        2.0000           -0.3744404             -10.1890
        85        2.0000           -0.3722789             -10.1302
        86        2.0000           -0.3522463              -9.5851 (HOMO)
        87                         -0.2909260              -7.9165 (LUMO)
        88                         -0.2609212              -7.1000
        89                         -0.2448315              -6.6622
        90                         -0.2381328              -6.4799
        91                         -0.2283604              -6.2140
        92                         -0.2052633              -5.5855
        93                         -0.1593413              -4.3359
        94                         -0.1031555              -2.8070
        95                         -0.0900961              -2.4516
        96                         -0.0186120              -0.5065
        97                         -0.0117425              -0.3195
       ...                                ...                  ...
       161                          0.6910862              18.8054
      -------------------------------------------------------------
                  HL-Gap            0.0613203 Eh            1.6686 eV
             Fermi-level           -0.3215862 Eh           -8.7508 eV

     #   Z          covCN         q      C6AA      α(0)
     1   6 C        3.754    -0.141    23.280     6.880
     2   6 C        2.817     0.252    22.775     7.819
     3   6 C        2.964    -0.068    29.686     8.937
     4   6 C        2.957     0.034    27.247     8.562
     5   6 C        3.758    -0.115    22.749     6.800
     6   6 C        2.979    -0.053    29.305     8.880
     7   6 C        2.925     0.076    26.292     8.409
     8   7 N        1.837    -0.282    28.153     7.863
     9   6 C        2.883     0.238    23.029     7.867
    10   7 N        2.727    -0.135    23.915     7.263
    11   6 C        2.892     0.141    24.935     8.187
    12   7 N        1.852    -0.256    27.507     7.773
    13   6 C        2.909     0.036    27.203     8.552
    14   6 C        2.905     0.046    26.961     8.514
    15   6 C        2.933    -0.042    29.048     8.839
    16   6 C        2.910    -0.061    29.511     8.908
    17   7 N        2.739    -0.120    23.612     7.217
    18   6 C        3.753     0.002    20.610     6.474
    19   6 C        3.757     0.005    20.553     6.464
    20   7 N        2.678    -0.253    26.575     7.656
    21   6 C        3.757     0.004    20.555     6.464
    22   6 C        3.755     0.001    20.615     6.474
    23   7 N        1.862    -0.309    28.863     7.963
    24   6 C        2.917     0.167    24.403     8.101
    25   7 N        2.749    -0.070    22.603     7.061
    26   6 C        3.822     0.036    19.961     6.358
    27   6 C        3.819    -0.063    21.689     6.628
    28   6 C        3.827    -0.060    21.630     6.618
    29   6 C        3.830    -0.058    21.593     6.612
    30   6 C        3.827    -0.065    21.725     6.632
    31   6 C        2.777     0.264    22.548     7.777
    32   8 O        0.859    -0.440    22.501     6.360
    33   8 O        0.857    -0.365    20.996     6.143
    34   1 H        0.925     0.065     2.139     2.287
    35   1 H        0.925     0.058     2.228     2.334
    36   1 H        0.925     0.106     1.733     2.059
    37   1 H        0.925     0.063     2.159     2.298
    38   1 H        0.925     0.053     2.280     2.361
    39   1 H        0.925     0.072     2.067     2.248
    40   1 H        0.925     0.049     2.328     2.386
    41   1 H        0.860     0.210     1.058     1.611
    42   1 H        0.925     0.036     2.496     2.471
    43   1 H        0.926     0.033     2.540     2.492
    44   1 H        0.926     0.069     2.099     2.265
    45   1 H        0.925     0.043     2.405     2.425
    46   1 H        0.923     0.017     2.778     2.607
    47   1 H        0.924     0.048     2.345     2.395
    48   1 H        0.924     0.039     2.458     2.452
    49   1 H        0.860     0.137     1.495     1.916
    50   1 H        0.924     0.049     2.336     2.390
    51   1 H        0.924     0.040     2.454     2.450
    52   1 H        0.925     0.044     2.396     2.421
    53   1 H        0.922     0.018     2.757     2.597
    54   1 H        0.924     0.081     1.971     2.196
    55   1 H        0.925     0.040     2.448     2.447
    56   1 H        0.925     0.043     2.406     2.426
    57   1 H        0.925     0.036     2.509     2.477
    58   1 H        0.925     0.043     2.413     2.429
    59   1 H        0.925     0.036     2.506     2.476
    60   1 H        0.924     0.038     2.477     2.461
    61   1 H        0.925     0.037     2.493     2.469
    62   1 H        0.925     0.051     2.303     2.373

 Mol. C6AA /au·bohr⁶  :      42301.169202
 Mol. C8AA /au·bohr⁸  :     981992.915569
 Mol. α(0) /au        :        315.273772


Wiberg/Mayer (AO) data.
largest (>0.10) Wiberg bond orders for each atom

 ---------------------------------------------------------------------------
     #   Z sym  total        # sym  WBO       # sym  WBO       # sym  WBO
 ---------------------------------------------------------------------------
     1   6 C    3.990 --     2 C    1.013    34 H    0.982    35 H    0.965
                            36 H    0.936
     2   6 C    3.919 --    33 O    1.832     1 C    1.013     3 C    0.995
     3   6 C    3.962 --     4 C    1.581    31 C    1.081     2 C    0.995
     4   6 C    3.977 --     3 C    1.581     6 C    1.175     5 C    1.034
     5   6 C    3.992 --     4 C    1.034    39 H    0.977    38 H    0.965
                            37 H    0.962
     6   6 C    3.975 --     7 C    1.331    24 C    1.218     4 C    1.175
     7   6 C    3.956 --     8 N    1.494     6 C    1.331    40 H    0.958
     8   7 N    3.036 --     7 C    1.494     9 C    1.265
     9   6 C    3.956 --    23 N    1.317     8 N    1.265    10 N    1.221
    10   7 N    3.502 --     9 C    1.221    11 C    1.088    41 H    0.917
    11   6 C    3.954 --    12 N    1.351    16 C    1.338    10 N    1.088
    12   7 N    3.049 --    13 C    1.466    11 C    1.351
    13   6 C    3.980 --    12 N    1.466    14 C    1.323    42 H    0.957
                            16 C    0.103
    14   6 C    3.962 --    15 C    1.334    13 C    1.323    17 N    1.134
    15   6 C    3.990 --    16 C    1.478    14 C    1.334    43 H    0.965
    16   6 C    3.982 --    15 C    1.478    11 C    1.338    44 H    0.958
                            13 C    0.103
    17   7 N    3.339 --    14 C    1.134    18 C    0.999    22 C    0.990
    18   6 C    3.983 --    17 N    0.999    19 C    0.984    45 H    0.970
                            46 H    0.964
    19   6 C    3.986 --    20 N    1.021    18 C    0.984    48 H    0.974
                            47 H    0.972
    20   7 N    3.077 --    19 C    1.021    21 C    1.019    49 H    0.956
    21   6 C    3.987 --    20 N    1.019    22 C    0.989    51 H    0.974
                            50 H    0.971
    22   6 C    3.980 --    17 N    0.990    21 C    0.989    52 H    0.968
                            53 H    0.963
    23   7 N    3.026 --    24 C    1.362     9 C    1.317
    24   6 C    3.965 --    23 N    1.362     6 C    1.218    25 N    1.199
    25   7 N    3.597 --    24 C    1.199    31 C    1.104    26 C    0.957
                            32 O    0.137
    26   6 C    3.947 --    30 C    0.983    27 C    0.980    25 N    0.957
                            54 H    0.956
    27   6 C    3.995 --    28 C    1.006    55 H    0.981    26 C    0.980
                            56 H    0.977
    28   6 C    3.996 --    29 C    1.007    27 C    1.006    57 H    0.980
                            58 H    0.976
    29   6 C    3.996 --    28 C    1.007    30 C    1.007    60 H    0.979
                            59 H    0.979
    30   6 C    3.994 --    29 C    1.007    26 C    0.983    61 H    0.980
                            62 H    0.972
    31   6 C    3.951 --    32 O    1.645    25 N    1.104     3 C    1.081
    32   8 O    1.978 --    31 C    1.645    25 N    0.137
    33   8 O    2.058 --     2 C    1.832
    34   1 H    0.995 --     1 C    0.982
    35   1 H    0.996 --     1 C    0.965
    36   1 H    0.988 --     1 C    0.936
    37   1 H    0.994 --     5 C    0.962
    38   1 H    0.995 --     5 C    0.965
    39   1 H    0.994 --     5 C    0.977
    40   1 H    0.997 --     7 C    0.958
    41   1 H    0.956 --    10 N    0.917
    42   1 H    0.998 --    13 C    0.957
    43   1 H    0.998 --    15 C    0.965
    44   1 H    0.995 --    16 C    0.958
    45   1 H    0.998 --    18 C    0.970
    46   1 H    0.997 --    18 C    0.964
    47   1 H    0.998 --    19 C    0.972
    48   1 H    0.998 --    19 C    0.974
    49   1 H    0.981 --    20 N    0.956
    50   1 H    0.998 --    21 C    0.971
    51   1 H    0.998 --    21 C    0.974
    52   1 H    0.998 --    22 C    0.968
    53   1 H    0.997 --    22 C    0.963
    54   1 H    0.993 --    26 C    0.956
    55   1 H    0.998 --    27 C    0.981
    56   1 H    0.998 --    27 C    0.977
    57   1 H    0.998 --    28 C    0.980
    58   1 H    0.998 --    28 C    0.976
    59   1 H    0.998 --    29 C    0.979
    60   1 H    0.998 --    29 C    0.979
    61   1 H    0.999 --    30 C    0.980
    62   1 H    0.997 --    30 C    0.972
 ---------------------------------------------------------------------------

Topologies differ in total number of bonds
Writing topology from bond orders to xtbtopo.mol

molecular dipole:
                 x           y           z       tot (Debye)
 q only:        3.121      -0.635       0.434
   full:        2.933       0.150       0.739       7.698
molecular quadrupole (traceless):
                xx          xy          yy          xz          yz          zz
 q only:      -15.747      13.373       9.971     -12.706       2.653       5.777
  q+dip:      -22.221      22.056      13.803      -5.518       3.429       8.418
   full:      -24.707      21.660      11.685      -4.067       5.077      13.022

           -------------------------------------------------
          |                Geometry Summary                 |
           -------------------------------------------------

      molecular mass/u    :      447.5336757
   center of mass at/Å    :       -0.3798833       0.1566653      -0.0648864
  moments of inertia/u·Å² :        0.1660966E+04   0.1087247E+05   0.1227167E+05
rotational constants/cm⁻¹ :        0.1014929E-01   0.1550488E-02   0.1373703E-02

 * 62 selected distances

     #   Z          #   Z                                           value/Å
     3   6 C        4   6 C                                       1.3645130
     4   6 C        6   6 C                                       1.4290917
     6   6 C        7   6 C                                       1.4004490
     7   6 C        8   7 N                                       1.3110884
     8   7 N        9   6 C                                       1.3421929
     9   6 C       10   7 N                                       1.3488224
    10   7 N       11   6 C                                       1.3863714
    11   6 C       12   7 N                                       1.3311413
    12   7 N       13   6 C                                       1.3145267
    13   6 C       14   6 C                                       1.4029022
    14   6 C       15   6 C                                       1.4023060
    11   6 C       16   6 C                                       1.3924220
    15   6 C       16   6 C                                       1.3800634
    14   6 C       17   7 N                                       1.3823810
    17   7 N       18   6 C                                       1.4477280
    18   6 C       19   6 C                                       1.5381531
    19   6 C       20   7 N                                       1.4484176
    20   7 N       21   6 C                                       1.4499533
    17   7 N       22   6 C                                       1.4507074
    21   6 C       22   6 C                                       1.5338509
     9   6 C       23   7 N                                       1.3321210
     6   6 C       24   6 C                                       1.4186935
    23   7 N       24   6 C                                       1.3268243
    24   6 C       25   7 N                                       1.3582168
    25   7 N       26   6 C                                       1.4593983
    26   6 C       27   6 C                                       1.5431079 (max)
    27   6 C       28   6 C                                       1.5311559
[...]
    4    1 H      34-62

           -------------------------------------------------
          |                Calculation Setup                |
           -------------------------------------------------

          program call               : xtb /rds/general/user/hgt20/home/callum/QDESCP/Palbociclib_rdkit_conf_11/Palbociclib_rdkit_conf_11.xyz --acc 1 --gfn 2 --chrg 0 --uhf 2 --etemp 300 --input /rds/general/user/hgt20/home/callum/QDESCP/Palbociclib_rdkit_conf_11/Palbociclib_rdkit_conf_11_xtb.inp -P 1
          hostname                   : login-c
          coordinate file            : /rds/general/user/hgt20/home/callum/QDESCP/Palbociclib_rdkit_conf_11/Palbociclib_rdkit_conf_11.xyz
          omp threads                :                     1


           -------------------------------------------------
          |                 G F N 2 - x T B                 |
           -------------------------------------------------

        Reference                      10.1021/acs.jctc.8b01176
      * Hamiltonian:
        H0-scaling (s, p, d)           1.850000    2.230000    2.230000
        zeta-weighting                 0.500000
      * Dispersion:
        s8                             2.700000
        a1                             0.520000
        a2                             5.000000
        s9                             5.000000
      * Repulsion:
        kExp                           1.500000    1.000000
        rExp                           1.000000
      * Coulomb:
        alpha                          2.000000
        third order                    shell-resolved
        anisotropic                    true
        a3                             3.000000
        a5                             4.000000
        cn-shift                       1.200000
        cn-exp                         4.000000
        max-rad                        5.000000


          ...................................................
          :                      SETUP                      :
          :.................................................:
          :  # basis functions                 161          :
          :  # atomic orbitals                 161          :
          :  # shells                           95          :
          :  # electrons                       172          :
          :  max. iterations                   250          :
          :  Hamiltonian                  GFN2-xTB          :
          :  restarted?                      false          :
          :  GBSA solvation                  false          :
          :  PC potential                    false          :
          :  electronic temp.          300.0000000     K    :
          :  accuracy                    1.0000000          :
          :  -> integral cutoff          0.2500000E+02      :
          :  -> integral neglect         0.1000000E-07      :
          :  -> SCF convergence          0.1000000E-05 Eh   :
          :  -> wf. convergence          0.1000000E-03 e    :
          :  Broyden damping             0.4000000          :
          :  net charge                          0          :
          :  unpaired electrons                  2          :
          ...................................................

 iter      E             dE          RMSdq      gap      omega  full diag
   1    -95.8323722 -0.958324E+02  0.370E+00    0.88       0.0  T
   2    -95.6884384  0.143934E+00  0.277E+00    0.43       1.0  T
   3    -95.7807391 -0.923007E-01  0.198E+00    0.86       1.0  T
   4    -96.0542028 -0.273464E+00  0.108E+00    0.23       1.0  T
   5    -96.0251885  0.290143E-01  0.909E-01    0.31       1.0  T
   6    -96.0713616 -0.461731E-01  0.594E-01    0.55       1.0  T
   7    -96.0988318 -0.274702E-01  0.304E-01    0.44       1.0  T
   8    -96.0735404  0.252914E-01  0.444E-01    0.37       1.0  T
   9    -96.0832458 -0.970543E-02  0.357E-01    0.50       1.0  T
  10    -96.0896205 -0.637463E-02  0.361E-01    0.36       1.0  T
  11    -96.1017136 -0.120931E-01  0.157E-01    0.37       1.0  T
  12    -96.1029615 -0.124795E-02  0.118E-01    0.36       1.0  T
  13    -96.1040973 -0.113575E-02  0.818E-02    0.35       1.0  T
  14    -96.1047017 -0.604441E-03  0.328E-02    0.34       1.0  T
  15    -96.1047935 -0.918113E-04  0.114E-02    0.34       1.1  T
  16    -96.1048127 -0.192036E-04  0.197E-03    0.34       6.4  T
  17    -96.1048128 -0.628235E-07  0.154E-03    0.34       8.3  T
  18    -96.1048129 -0.114070E-06  0.114E-03    0.34      11.1  T
  19    -96.1048130 -0.145230E-06  0.428E-04    0.34      29.7  T
  20    -96.1048131 -0.118525E-07  0.201E-04    0.34      63.2  T

   *** convergence criteria satisfied after 20 iterations ***

         #    Occupation            Energy/Eh            Energy/eV
      -------------------------------------------------------------
         1        2.0000           -0.6932452             -18.8642
       ...           ...                  ...                  ...
        81        2.0000           -0.3877499             -10.5512
        82        2.0000           -0.3840348             -10.4501
        83        2.0000           -0.3789948             -10.3130
        84        1.9341           -0.3697783             -10.0622
        85        1.7063           -0.3680928             -10.0163
        86        1.3597           -0.3667114              -9.9787
        87        0.9987           -0.2705591              -7.3623 (HOMO)
        88        0.0013           -0.2579846              -7.0201 (LUMO)
        89                         -0.2473004              -6.7294
        90                         -0.2344163              -6.3788
        91                         -0.2130205              -5.7966
        92                         -0.1985969              -5.4041
       ...                                ...                  ...
       161                          0.7129107              19.3993
      -------------------------------------------------------------
                  HL-Gap            0.0125745 Eh            0.3422 eV
             Fermi-level           -0.3157656 Eh           -8.5924 eV

 transition dipole moment (au) for excitation:          86          87
     X       Y       Z   
  -2.6863   0.3891   0.3516  total (au/Debye):    2.737   6.957
 dE (eV)             :    2.616
 oscillator strength :  0.67910E+00

 SCC (total)                   0 d,  0 h,  0 min,  0.289 sec
 SCC setup                      ...        0 min,  0.001 sec (  0.229%)
 Dispersion                     ...        0 min,  0.001 sec (  0.325%)
 classical contributions        ...        0 min,  0.000 sec (  0.104%)
 integral evaluation            ...        0 min,  0.013 sec (  4.668%)
 iterations                     ...        0 min,  0.168 sec ( 58.376%)
 molecular gradient             ...        0 min,  0.048 sec ( 16.520%)
 printout                       ...        0 min,  0.057 sec ( 19.775%)

         :::::::::::::::::::::::::::::::::::::::::::::::::::::
         ::                     SUMMARY                     ::
         :::::::::::::::::::::::::::::::::::::::::::::::::::::
         :: total energy             -94.796121925077 Eh    ::
         :: gradient norm              0.100393751929 Eh/a0 ::
         :: HOMO-LUMO gap              0.342168873357 eV    ::
         ::.................................................::
         :: SCC energy               -96.105019644089 Eh    ::
         :: -> isotropic ES            0.109866388116 Eh    ::
         :: -> anisotropic ES          0.005713485608 Eh    ::
         :: -> anisotropic XC          0.048396444538 Eh    ::
         :: -> dispersion             -0.071429223688 Eh    ::
         :: repulsion energy           1.308897719012 Eh    ::
         :: add. restraining           0.000000000000 Eh    ::
         :: total charge              -0.000000000002 e     ::
         :::::::::::::::::::::::::::::::::::::::::::::::::::::

           -------------------------------------------------
          |                Property Printout                |
           -------------------------------------------------

    * Orbital Energies and Occupations

         #    Occupation            Energy/Eh            Energy/eV
      -------------------------------------------------------------
         1        2.0000           -0.6932452             -18.8642
       ...           ...                  ...                  ...
        75        2.0000           -0.4250925             -11.5674
        76        2.0000           -0.4204047             -11.4398
        77        2.0000           -0.4188166             -11.3966
        78        2.0000           -0.4110405             -11.1850
        79        2.0000           -0.4009311             -10.9099
        80        2.0000           -0.3935111             -10.7080
        81        2.0000           -0.3877499             -10.5512
        82        2.0000           -0.3840348             -10.4501
        83        2.0000           -0.3789948             -10.3130
        84        1.9341           -0.3697783             -10.0622
        85        1.7063           -0.3680928             -10.0163
        86        1.3597           -0.3667114              -9.9787
        87        0.9987           -0.2705591              -7.3623 (HOMO)
        88        0.0013           -0.2579846              -7.0201 (LUMO)
        89                         -0.2473004              -6.7294
        90                         -0.2344163              -6.3788
        91                         -0.2130205              -5.7966
        92                         -0.1985969              -5.4041
        93                         -0.1433948              -3.9020
        94                         -0.1125063              -3.0615
        95                         -0.0738411              -2.0093
        96                         -0.0324661              -0.8834
        97                         -0.0047942              -0.1305
        98                          0.0065019               0.1769
       ...                                ...                  ...
       161                          0.7129107              19.3993
      -------------------------------------------------------------
                  HL-Gap            0.0125745 Eh            0.3422 eV
             Fermi-level           -0.3157656 Eh           -8.5924 eV

     #   Z          covCN         q      C6AA      α(0)
     1   6 C        3.754    -0.136    23.166     6.863
     2   6 C        2.817     0.245    22.897     7.840
     3   6 C        2.964    -0.073    29.813     8.956
     4   6 C        2.957    -0.001    28.046     8.686
     5   6 C        3.758    -0.108    22.616     6.780
     6   6 C        2.979    -0.039    28.967     8.828
     7   6 C        2.925     0.038    27.156     8.546
     8   7 N        1.837    -0.259    27.579     7.782
     9   6 C        2.883     0.210    23.555     7.957
    10   7 N        2.727    -0.121    23.640     7.221
    11   6 C        2.892     0.144    24.865     8.175
    12   7 N        1.852    -0.254    27.457     7.766
    13   6 C        2.909     0.043    27.042     8.527
    14   6 C        2.905     0.042    27.063     8.530
    15   6 C        2.933    -0.040    28.994     8.831
    16   6 C        2.910    -0.055    29.354     8.884
    17   7 N        2.739    -0.090    23.006     7.124
    18   6 C        3.753    -0.003    20.690     6.486
    19   6 C        3.757     0.002    20.591     6.470
    20   7 N        2.678    -0.242    26.325     7.620
    21   6 C        3.757     0.002    20.594     6.470
    22   6 C        3.755    -0.004    20.699     6.487
    23   7 N        1.862    -0.299    28.603     7.927
    24   6 C        2.917     0.167    24.412     8.102
    25   7 N        2.749    -0.078    22.761     7.086
    26   6 C        3.822     0.037    19.942     6.355
    27   6 C        3.819    -0.063    21.692     6.628
    28   6 C        3.827    -0.058    21.603     6.614
    29   6 C        3.830    -0.058    21.586     6.611
    30   6 C        3.827    -0.065    21.719     6.631
    31   6 C        2.777     0.254    22.733     7.809
    32   8 O        0.859    -0.452    22.748     6.395
    33   8 O        0.857    -0.367    21.042     6.150
    34   1 H        0.925     0.061     2.188     2.313
    35   1 H        0.925     0.055     2.262     2.352
    36   1 H        0.925     0.102     1.770     2.081
    37   1 H        0.925     0.049     2.328     2.386
    38   1 H        0.925     0.040     2.444     2.445
    39   1 H        0.925     0.064     2.155     2.295
    40   1 H        0.925     0.041     2.435     2.440
    41   1 H        0.860     0.212     1.047     1.603
    42   1 H        0.925     0.042     2.426     2.435
    43   1 H        0.926     0.038     2.480     2.463
    44   1 H        0.926     0.077     2.006     2.215
    45   1 H        0.925     0.052     2.293     2.368
    46   1 H        0.923     0.030     2.590     2.517
    47   1 H        0.924     0.054     2.277     2.360
    48   1 H        0.924     0.047     2.359     2.402
    49   1 H        0.860     0.142     1.454     1.889
    50   1 H        0.924     0.054     2.268     2.355
    51   1 H        0.924     0.047     2.358     2.401
    52   1 H        0.925     0.052     2.294     2.369
    53   1 H        0.922     0.031     2.571     2.507
    54   1 H        0.924     0.081     1.965     2.192
    55   1 H        0.925     0.039     2.465     2.455
    56   1 H        0.925     0.043     2.409     2.427
    57   1 H        0.925     0.033     2.544     2.494
    58   1 H        0.925     0.039     2.466     2.456
    59   1 H        0.925     0.033     2.547     2.496
    60   1 H        0.924     0.037     2.486     2.466
    61   1 H        0.925     0.037     2.494     2.470
    62   1 H        0.925     0.050     2.319     2.381

 Mol. C6AA /au·bohr⁶  :      42268.675225
 Mol. C8AA /au·bohr⁸  :     981786.333552
 Mol. α(0) /au        :        315.173363


Wiberg/Mayer (AO) data.
largest (>0.10) Wiberg bond orders for each atom

 ---------------------------------------------------------------------------
     #   Z sym  total        # sym  WBO       # sym  WBO       # sym  WBO
 ---------------------------------------------------------------------------
     1   6 C    3.962 --     2 C    0.995    34 H    0.981    35 H    0.967
                            36 H    0.940
     2   6 C    3.891 --    33 O    1.776     3 C    1.017     1 C    0.995
     3   6 C    3.819 --     4 C    1.380    31 C    1.127     2 C    1.017
     4   6 C    3.894 --     3 C    1.380     6 C    1.256     5 C    1.027
     5   6 C    3.988 --     4 C    1.027    39 H    0.978    38 H    0.969
                            37 H    0.968
     6   6 C    3.886 --     4 C    1.256     7 C    1.217    24 C    1.193
     7   6 C    3.865 --     8 N    1.440     6 C    1.217    40 H    0.951
     8   7 N    2.994 --     7 C    1.440     9 C    1.297
     9   6 C    3.911 --     8 N    1.297    23 N    1.238    10 N    1.166
    10   7 N    3.467 --     9 C    1.166    11 C    1.150    41 H    0.916
    11   6 C    3.904 --    12 N    1.296    16 C    1.290    10 N    1.150
    12   7 N    3.009 --    13 C    1.486    11 C    1.296
    13   6 C    3.942 --    12 N    1.486    14 C    1.305    42 H    0.956
    14   6 C    3.904 --    13 C    1.305    15 C    1.293    17 N    1.141
    15   6 C    3.949 --    16 C    1.516    14 C    1.293    43 H    0.964
    16   6 C    3.955 --    15 C    1.516    11 C    1.290    44 H    0.953
    17   7 N    3.296 --    14 C    1.141    18 C    1.001    22 C    0.993
    18   6 C    3.974 --    17 N    1.001    19 C    0.978    45 H    0.969
                            46 H    0.960
    19   6 C    3.979 --    20 N    1.023    18 C    0.978    48 H    0.973
                            47 H    0.971
    20   7 N    3.081 --    19 C    1.023    21 C    1.021    49 H    0.954
    21   6 C    3.981 --    20 N    1.021    22 C    0.984    51 H    0.973
                            50 H    0.971
    22   6 C    3.970 --    17 N    0.993    21 C    0.984    52 H    0.967
                            53 H    0.959
    23   7 N    2.952 --    24 C    1.371     9 C    1.238
    24   6 C    3.949 --    23 N    1.371    25 N    1.204     6 C    1.193
    25   7 N    3.561 --    24 C    1.204    31 C    1.067    26 C    0.960
                            32 O    0.107
    26   6 C    3.948 --    30 C    0.984    27 C    0.981    25 N    0.960
                            54 H    0.953
    27   6 C    3.994 --    28 C    1.006    26 C    0.981    55 H    0.981
                            56 H    0.977
    28   6 C    3.996 --    29 C    1.007    27 C    1.006    57 H    0.980
                            58 H    0.976
    29   6 C    3.996 --    28 C    1.007    30 C    1.007    60 H    0.979
                            59 H    0.979
    30   6 C    3.991 --    29 C    1.007    26 C    0.984    61 H    0.979
                            62 H    0.970
    31   6 C    3.934 --    32 O    1.603     3 C    1.127    25 N    1.067
    32   8 O    1.916 --    31 C    1.603    25 N    0.107
    33   8 O    1.992 --     2 C    1.776
    34   1 H    0.994 --     1 C    0.981
    35   1 H    0.995 --     1 C    0.967
    36   1 H    0.987 --     1 C    0.940
    37   1 H    0.994 --     5 C    0.968
    38   1 H    0.994 --     5 C    0.969
    39   1 H    0.995 --     5 C    0.978
    40   1 H    0.985 --     7 C    0.951
    41   1 H    0.954 --    10 N    0.916
    42   1 H    0.997 --    13 C    0.956
    43   1 H    0.998 --    15 C    0.964
    44   1 H    0.992 --    16 C    0.953
    45   1 H    0.997 --    18 C    0.969
    46   1 H    0.988 --    18 C    0.960
    47   1 H    0.996 --    19 C    0.971
    48   1 H    0.997 --    19 C    0.973
    49   1 H    0.979 --    20 N    0.954
    50   1 H    0.996 --    21 C    0.971
    51   1 H    0.997 --    21 C    0.973
    52   1 H    0.997 --    22 C    0.967
    53   1 H    0.988 --    22 C    0.959
    54   1 H    0.991 --    26 C    0.953
    55   1 H    0.998 --    27 C    0.981
    56   1 H    0.998 --    27 C    0.977
    57   1 H    0.998 --    28 C    0.980
    58   1 H    0.998 --    28 C    0.976
    59   1 H    0.998 --    29 C    0.979
    60   1 H    0.998 --    29 C    0.979
    61   1 H    0.998 --    30 C    0.979
    62   1 H    0.996 --    30 C    0.970
 ---------------------------------------------------------------------------

Topologies differ in total number of bonds
Writing topology from bond orders to xtbtopo.mol

molecular dipole:
                 x           y           z       tot (Debye)
 q only:        5.702      -1.344       0.213
   full:        5.592      -0.649       0.510      14.368
molecular quadrupole (traceless):
                xx          xy          yy          xz          yz          zz
 q only:       -3.897      17.921       0.885     -15.951       3.154       3.013
  q+dip:      -10.243      26.576       4.814      -9.116       4.010       5.429
   full:      -12.511      26.231       2.821      -7.889       5.473       9.690


           -------------------------------------------------
          | TOTAL ENERGY              -94.796121925077 Eh   |
          | GRADIENT NORM               0.100393751929 Eh/α |
          | HOMO-LUMO GAP               0.342168873357 eV   |
           -------------------------------------------------

------------------------------------------------------------------------
 * finished run on 2025/05/15 at 16:18:57.299     
------------------------------------------------------------------------
 total:
 * wall-time:     0 d,  0 h,  0 min,  0.308 sec
 *  cpu-time:     0 d,  0 h,  0 min,  0.177 sec
 * ratio c/w:     0.576 speedup
 SCF:
 * wall-time:     0 d,  0 h,  0 min,  0.289 sec
 *  cpu-time:     0 d,  0 h,  0 min,  0.160 sec
 * ratio c/w:     0.553 speedup


