62
 energy: -94.881727336923 gnorm: 0.000400929056 xtb: 6.7.1 (edcfbbe)
C           -7.06811394366885       -2.50274309986671        0.30215727046703
C           -6.05177374046782       -2.51914934335581       -0.80188778297447
C           -4.77096730217679       -1.80210391256254       -0.50606675707786
C           -3.56115486211961       -2.39268129029892       -0.72528855452381
C           -3.40875734554543       -3.79495083277978       -1.22192454223859
C           -2.37775750339552       -1.64714718399336       -0.42990953283830
C           -1.06811989075975       -2.11851267012054       -0.58205147883624
N           -0.00081888679382       -1.40305252282447       -0.32166039791794
C           -0.20312795646347       -0.15128669576699        0.11635633720847
N            0.84424342392301        0.64969172282098        0.39866937802783
C            2.21057391812022        0.44156493820227        0.28199255010493
N            2.93256690443288        1.51014218925628        0.61140752392410
C            4.24355349621557        1.44691601014328        0.53727223281998
C            4.95588679265240        0.31225982834714        0.12090968494682
C            4.17773671095885       -0.80524071620391       -0.21372768365196
C            2.80115446349471       -0.74879149226128       -0.13428079613708
N            6.33857283545478        0.30625612442188        0.11590011480407
C            7.06281769477254       -0.93475342440407       -0.06252900206063
C            8.44837362664299       -0.80357583086598        0.59210223866029
N            9.21049745813778        0.32419580786501        0.09708929456139
C            8.43829155245888        1.54268063886713        0.24299635266846
C            7.06321815176124        1.43921626703399       -0.42843056338702
N           -1.39832740572310        0.40756384112445        0.31009146287523
C           -2.48058158985781       -0.31392541254704        0.04120901353293
N           -3.70109250856442        0.25696975543342        0.22507516257500
C           -3.75878446698330        1.63958334203223        0.69984345373451
C           -4.54042796846370        2.58523425504102       -0.23704058984385
C           -5.63203062042755        3.21457894313937        0.63230051182974
C           -5.05606537659746        3.15738806367221        2.04419698127695
C           -4.41250790748642        1.77532968365679        2.08482494631341
C           -4.88961304587373       -0.42942632795153       -0.01182695944502
O           -5.95759670947698        0.12633484781518        0.17618051771983
O           -6.23882807489723       -3.08294064172280       -1.85538428463390
H           -7.42554840392213       -1.48069420235749        0.41828574078215
H           -7.89675887306173       -3.15984176692462        0.05274544171789
H           -6.61052396323353       -2.80546075381956        1.24186802800976
H           -2.85147224649453       -3.79420324841148       -2.15741819390761
H           -4.37148529639665       -4.25862797951573       -1.40397874131271
H           -2.85578521406001       -4.39106877270382       -0.49649244752938
H           -0.87107702347431       -3.12158676437994       -0.93453170965405
H            0.60068719577873        1.57859094119243        0.72030551389306
H            4.75414588673948        2.35034086705876        0.84138183015250
H            4.63982465354505       -1.71884723654745       -0.55405925792645
H            2.18674771644401       -1.59263307834399       -0.39494142315234
H            7.18180184595284       -1.18069886949747       -1.13222872091899
H            6.52181836031491       -1.74385615345273        0.42841218439031
H            9.02180433674125       -1.71802156571718        0.42839772101606
H            8.31767590479752       -0.66023043633531        1.66844472887007
H            9.43571647923577        0.18023006211694       -0.88444548671678
H            8.30527660556944        1.72148435415527        1.31345183394646
H            9.00205461987848        2.37366095514677       -0.18501202471241
H            7.20504070195725        1.30400596085162       -1.51596807810230
H            6.49924546115046        2.35639911109958       -0.27344862521860
H           -2.71568370319310        1.95343372926799        0.75517132088907
H           -4.96454560356299        2.04864956112256       -1.08305995261612
H           -3.86652203151208        3.34970433853886       -0.62539171007326
H           -6.52997412762103        2.60014064638506        0.58393395336282
H           -5.87799578556865        4.22720351421539        0.31656208924650
H           -4.29642124383614        3.93055753902492        2.17521261403223
H           -5.81658038833387        3.28278754818182        2.81302172782144
H           -3.68439010640509        1.66240610686749        2.88738709616236
H           -5.18821568071197        1.02045073143383        2.20342844505479
