51
 energy: -84.104883626958 gnorm: 0.000692878575 xtb: 6.7.1 (edcfbbe)
F            7.86185017074071        2.76489506304342       -0.78906904510131
C            6.93107792367244        1.82419598857679       -0.54113463558283
C            6.73299346488917        0.81196635018247       -1.46349919976501
C            5.77620050700120       -0.14608473595072       -1.19393711605108
C            5.01175551982638       -0.08989286963594       -0.02891475680681
C            5.24277355846781        0.93529181745615        0.88626832613869
C            6.20549763161086        1.89450590294577        0.63544514680073
C            4.00338845182357       -1.16798920418955        0.17729256576599
C            2.75492632664801       -0.79692128731237        0.96153307771002
C            2.05571361621004        0.43577134276102        0.37183889213740
C            1.39341785078304        0.08704990857737       -0.96865806187268
N            0.46420699216233       -1.02097623553813       -0.88735704625055
C            1.11994396666378       -2.19611786098479       -0.35147388968627
C            1.76759231026489       -1.96708540829708        1.02059150159196
C           -0.80646547295838       -0.68996875104792       -0.27737981036888
C           -1.75998550433605       -0.11894870970906       -1.33705466779325
N           -3.02514524212337        0.27555851594941       -0.73584423411109
C           -3.09043655874691        1.55487476227595       -0.22011002534341
N           -4.28803643897382        1.90376246374563        0.35217526083474
C           -5.38132298443561        1.07762987020361        0.45472073771635
C           -6.56862232468172        1.50511254569291        1.04620937163587
C           -7.63964837366678        0.63949465972225        1.13067109308095
C           -7.54682923823418       -0.65641566890406        0.63337192949732
C           -6.37463440158848       -1.08532608601019        0.04944387563210
C           -5.28234720213592       -0.22374573628389       -0.04654943800421
C           -4.03330010950623       -0.67959236072166       -0.66565506325641
O           -3.86241563707278       -1.79809945445815       -1.09870935078061
O           -2.16530044995623        2.33365347945807       -0.26337930038503
O            4.19422270413945       -2.27687427172312       -0.26716606405624
H            7.32350854945852        0.78245427252110       -2.36468142553205
H            5.60174427709320       -0.95569001910054       -1.88607921926877
H            4.69068864723778        0.97896865492872        1.81186828224535
H            6.40054744901234        2.69055579121434        1.33652432778072
H            3.09273779073982       -0.56389616591706        1.97974916272815
H            1.29350756806734        0.77825193185172        1.07480215906336
H            2.76124475028974        1.25315560752953        0.22083449017338
H            2.16948947211029       -0.18915157363826       -1.69020714245626
H            0.86755890061477        0.96292572933413       -1.35167539749646
H            0.39075624452254       -3.00613928934320       -0.29127303454285
H            1.89408865393640       -2.49250406629817       -1.06327129441103
H            0.99438211798128       -1.74706176708539        1.76024249866103
H            2.29071875713655       -2.87396585668302        1.32510727892682
H           -0.72008781894739        0.04324355416178        0.53885800163533
H           -1.25601976779927       -1.59979582496338        0.12649924736674
H           -1.96541212598785       -0.87898460896343       -2.09090240414117
H           -1.32269009607246        0.76426146507822       -1.80296474437109
H           -4.33957442867218        2.84450775082069        0.71962037403409
H           -6.63972607624067        2.51101844045733        1.43269075562562
H           -8.55832343065707        0.97406144887212        1.58845427050087
H           -8.39228340328614       -1.32227206228438        0.70635289612143
H           -6.26812708703621       -2.08376744235077       -0.34561915601094
