54
 energy: -87.155384574507 gnorm: 0.000480324837 xtb: 6.7.1 (edcfbbe)
O           -4.40914097948160       -0.84056564077572       -3.56991559815682
C           -3.43776906650839       -0.98276121007936       -2.83777397696892
C           -2.89052882555375        0.16756046513653       -2.14985427865224
C           -1.79760128550768        0.39048940006179       -1.37393785248350
C           -1.59970713520194        1.82052480843656       -0.89979875649275
N           -1.30422993831404        1.83188574756065        0.52767097606015
C           -0.76652411076910        2.83341889543050        1.25737543072873
C           -0.61192204821537        2.46731912130667        2.72122855082016
O           -0.43681550014044        3.91273457957644        0.81053069708244
C           -0.53034565267524        2.51374568836228       -1.76723999586768
C            0.68536245662987        1.62557245105977       -2.05751503400167
C           -2.87563568369589       -2.34159799537957       -2.64327977456786
O           -3.66795913903697       -3.23531989507924       -3.26082995777151
C           -3.37056270856213       -4.60836049972843       -3.23619667578442
C           -1.73140613118766       -2.68874253886633       -1.98406742211087
C           -0.79760777568469       -1.89134354049669       -1.29858393161105
C           -0.79071972812547       -0.55579345709700       -1.00236805887277
C            0.39243258935813       -0.05569996578352       -0.25778115809321
C            0.74083869210777       -0.62229752877780        0.98286277872152
O           -0.14109028658965       -1.56475593581517        1.43014148089251
C            0.13064294925309       -2.36601879077819        2.55822409297713
C            1.84745211915011       -0.13026797115878        1.68088481232836
O            2.15002516369400       -0.61471479260574        2.94278651523936
C            3.42157984301287       -1.21528229786518        3.09212222730428
C            1.14564280549446        0.98404328059832       -0.78543573271504
C            2.24188143944910        1.46909189704957       -0.09408086787739
C            2.59321096684523        0.93310436149288        1.13386141723864
O            3.62291559976423        1.39457398399699        1.89864818337198
C            4.27355269880810        2.57809116952953        1.50017852530467
H           -3.52210798828031        1.02986961139935       -2.34026521096287
H           -2.53599605736277        2.37892299762874       -1.04532037853631
H           -1.56273849495726        0.99066228316800        1.01875670951775
H           -0.20181882708191        3.31675307428872        3.25943817622644
H           -1.57581660375621        2.20231516962254        3.14957128983516
H            0.06373559567916        1.62027892955290        2.82055731650209
H           -0.21588891613453        3.41704965314705       -1.24653675206740
H           -0.99540666485786        2.80081008293164       -2.71141017747050
H            0.41164087453249        0.85591293708198       -2.78328355557260
H            1.47844870971960        2.23707806024041       -2.48851974613827
H           -3.34967886569509       -4.99904192926056       -2.21350804819946
H           -4.17655292373557       -5.08879073197185       -3.78854934985851
H           -2.41724199550268       -4.82397227353218       -3.72999722801858
H           -1.46914960537315       -3.73903046405639       -1.99888420092992
H            0.06261554382540       -2.44221394639507       -0.93974009383300
H            1.05434114471592       -2.93748284130682        2.43645008891262
H           -0.71196496888652       -3.05566489367260        2.61807119318749
H            0.18914427280818       -1.77586481384038        3.47417624552127
H            3.54541023285647       -2.05310619317106        2.39574579292401
H            3.45112972640725       -1.58624827662860        4.11533644096611
H            4.22877854908130       -0.49772764981829        2.93874113561561
H            2.79779842831433        2.29054030372239       -0.51382618181891
H            4.83222043019691        2.43612251808188        0.56943728445811
H            4.96964502457888        2.81243885771404        2.30425005217671
H            3.56368205057290        3.40135574578146        1.38125258155757
