----- Optimization -----
      -----------------------------------------------------------      
     |                   =====================                   |     
     |                           x T B                           |     
     |                   =====================                   |     
     |                         S. Grimme                         |     
     |          Mulliken Center for Theoretical Chemistry        |     
     |                    University of Bonn                     |     
      -----------------------------------------------------------      

   * xtb version 6.7.1 (edcfbbe) compiled by 'conda@3ef47c1a292c' on 2024-11-25

   xtb is free software: you can redistribute it and/or modify it under
   the terms of the GNU Lesser General Public License as published by
   the Free Software Foundation, either version 3 of the License, or
   (at your option) any later version.
   
   xtb is distributed in the hope that it will be useful,
   but WITHOUT ANY WARRANTY; without even the implied warranty of
   MERCHANTABILITY or FITNESS FOR A PARTICULAR PURPOSE.  See the
   GNU Lesser General Public License for more details.
   
   Cite this work as:
   * C. Bannwarth, E. Caldeweyher, S. Ehlert, A. Hansen, P. Pracht,
     J. Seibert, S. Spicher, S. Grimme, WIREs Comput. Mol. Sci., 2020, 11,
     e01493. DOI: 10.1002/wcms.1493
   
   for GFN2-xTB:
   * C. Bannwarth, S. Ehlert and S. Grimme., J. Chem. Theory Comput., 2019,
     15, 1652-1671. DOI: 10.1021/acs.jctc.8b01176
   for GFN1-xTB:
   * S. Grimme, C. Bannwarth, P. Shushkov, J. Chem. Theory Comput., 2017,
     13, 1989-2009. DOI: 10.1021/acs.jctc.7b00118
   for GFN0-xTB:
   * P. Pracht, E. Caldeweyher, S. Ehlert, S. Grimme, ChemRxiv, 2019, preprint.
     DOI: 10.26434/chemrxiv.8326202.v1
   for GFN-FF:
   * S. Spicher and S. Grimme, Angew. Chem. Int. Ed., 2020, 59, 15665-15673.
     DOI: 10.1002/anie.202004239
   
   for ALPB and GBSA implicit solvation:
   * S. Ehlert, M. Stahn, S. Spicher, S. Grimme, J. Chem. Theory Comput.,
     2021, 17, 4250-4261. DOI: 10.1021/acs.jctc.1c00471
   
   for ddCOSMO and CPCM-X implicit solvation:
   * M. Stahn, S. Ehlert, S. Grimme, J. Phys. Chem. A,
     2023, XX, XXXX-XXXX. DOI: 10.1021/acs.jpca.3c04382
   
   for DFT-D4:
   * E. Caldeweyher, C. Bannwarth and S. Grimme, J. Chem. Phys., 2017,
     147, 034112. DOI: 10.1063/1.4993215
   * E. Caldeweyher, S. Ehlert, A. Hansen, H. Neugebauer, S. Spicher,
     C. Bannwarth and S. Grimme, J. Chem. Phys., 2019, 150, 154122.
     DOI: 10.1063/1.5090222
   * E. Caldeweyher, J.-M. Mewes, S. Ehlert and S. Grimme, Phys. Chem. Chem. Phys.
     2020, 22, 8499-8512. DOI: 10.1039/D0CP00502A
   
   for sTDA-xTB:
   * S. Grimme and C. Bannwarth, J. Chem. Phys., 2016, 145, 054103.
     DOI: 10.1063/1.4959605
   
   in the mass-spec context:
   * V. Asgeirsson, C. Bauer and S. Grimme, Chem. Sci., 2017, 8, 4879.
     DOI: 10.1039/c7sc00601b
   * J. Koopman and S. Grimme, ACS Omega 2019, 4, 12, 15120-15133.
     DOI: 10.1021/acsomega.9b02011
   
   for metadynamics refer to:
   * S. Grimme, J. Chem. Theory Comput., 2019, 155, 2847-2862
     DOI: 10.1021/acs.jctc.9b00143
   
   for SPH calculations refer to:
   * S. Spicher and S. Grimme, J. Chem. Theory Comput., 2021, 17, 1701-1714
     DOI: 10.1021/acs.jctc.0c01306
   
   for ONIOM refer to:
   * C. Plett, A. Katbashev, S. Ehlert, S. Grimme, M. Bursch,
     Phys. Chem. Chem. Phys., 2023, 25, 17860-17868. DOI: 10.1039/D3CP02178E
   
   for DIPRO refer to:
   * J. Kohn, N. Gildemeister, S. Grimme, D. Fazzi, A. Hansen,
     J. Chem. Phys., 2023, just accepted.
   
   for PTB refer to:
   * S. Grimme, M. Mueller, A. Hansen, J. Chem. Phys., 2023, 158, 124111.
     DOI: 10.1063/5.0137838
   
   with help from (in alphabetical order)
   P. Atkinson, C. Bannwarth, F. Bohle, G. Brandenburg, E. Caldeweyher
   M. Checinski, S. Dohm, S. Ehlert, S. Ehrlich, I. Gerasimov, C. Hölzer
   A. Katbashev, J. Kohn, J. Koopman, C. Lavigne, S. Lehtola, F. März, M. Müller,
   F. Musil, H. Neugebauer, J. Pisarek, C. Plett, P. Pracht, F. Pultar,
   J. Seibert, P. Shushkov, S. Spicher, M. Stahn, M. Steiner, T. Strunk,
   J. Stückrath, T. Rose, and J. Unsleber
   
 * started run on 2025/05/15 at 16:20:48.753     
   ID    Z sym.   atoms
    1    7 N      1, 3, 6, 9, 11
    2    6 C      2, 4, 7, 8, 10, 12-15, 17
    3   17 Cl     5
    4    8 O      16, 18, 19
    5    1 H      20-31

           -------------------------------------------------
          |                Calculation Setup                |
           -------------------------------------------------

          program call               : xtb /rds/general/user/hgt20/home/callum/QDESCP/Cladribine_rdkit_conf_21/Cladribine_rdkit_conf_21.xyz --opt normal --acc 1 --gfn 2 --chrg 0 --uhf 0 -P 1
          hostname                   : login-c
          coordinate file            : /rds/general/user/hgt20/home/callum/QDESCP/Cladribine_rdkit_conf_21/Cladribine_rdkit_conf_21.xyz
          omp threads                :                     1


           -------------------------------------------------
          |                 G F N 2 - x T B                 |
           -------------------------------------------------

        Reference                      10.1021/acs.jctc.8b01176
      * Hamiltonian:
        H0-scaling (s, p, d)           1.850000    2.230000    2.230000
        zeta-weighting                 0.500000
      * Dispersion:
        s8                             2.700000
        a1                             0.520000
        a2                             5.000000
        s9                             5.000000
      * Repulsion:
        kExp                           1.500000    1.000000
        rExp                           1.000000
      * Coulomb:
        alpha                          2.000000
        third order                    shell-resolved
        anisotropic                    true
        a3                             3.000000
        a5                             4.000000
        cn-shift                       1.200000
        cn-exp                         4.000000
        max-rad                        5.000000


          ...................................................
          :                      SETUP                      :
          :.................................................:
          :  # basis functions                  94          :
          :  # atomic orbitals                  93          :
          :  # shells                           51          :
          :  # electrons                       102          :
          :  max. iterations                   250          :
          :  Hamiltonian                  GFN2-xTB          :
          :  restarted?                      false          :
          :  GBSA solvation                  false          :
          :  PC potential                    false          :
          :  electronic temp.          300.0000000     K    :
          :  accuracy                    1.0000000          :
          :  -> integral cutoff          0.2500000E+02      :
          :  -> integral neglect         0.1000000E-07      :
          :  -> SCF convergence          0.1000000E-05 Eh   :
          :  -> wf. convergence          0.1000000E-03 e    :
          :  Broyden damping             0.4000000          :
          :  net charge                          0          :
          :  unpaired electrons                  0          :
          ...................................................

 iter      E             dE          RMSdq      gap      omega  full diag
   1    -59.3763823 -0.593764E+02  0.439E+00    2.95       0.0  T
   2    -59.4957793 -0.119397E+00  0.268E+00    3.32       1.0  T
   3    -59.5084813 -0.127019E-01  0.130E+00    3.18       1.0  T
   4    -59.5134710 -0.498969E-02  0.257E-01    3.09       1.0  T
   5    -59.5145354 -0.106443E-02  0.104E-01    3.07       1.0  T
   6    -59.5146221 -0.866728E-04  0.561E-02    3.07       1.0  T
   7    -59.5146495 -0.273842E-04  0.338E-02    3.07       1.0  T
   8    -59.5146572 -0.770266E-05  0.194E-02    3.07       1.0  T
   9    -59.5146602 -0.301387E-05  0.146E-02    3.07       1.2  T
  10    -59.5146627 -0.254044E-05  0.894E-03    3.07       2.0  T
  11    -59.5146639 -0.120771E-05  0.359E-03    3.07       5.0  T
  12    -59.5146641 -0.155312E-06  0.183E-03    3.07       9.8  T
  13    -59.5146641 -0.334899E-07  0.522E-04    3.07      34.4  T
  14    -59.5146641 -0.303788E-08  0.173E-04    3.07     103.8  T

   *** convergence criteria satisfied after 14 iterations ***

         #    Occupation            Energy/Eh            Energy/eV
      -------------------------------------------------------------
         1        2.0000           -1.0522510             -28.6332
       ...           ...                  ...                  ...
        45        2.0000           -0.4291772             -11.6785
        46        2.0000           -0.4234317             -11.5222
        47        2.0000           -0.4216733             -11.4743
        48        2.0000           -0.4183091             -11.3828
        49        2.0000           -0.4018115             -10.9338
        50        2.0000           -0.3911764             -10.6445
        51        2.0000           -0.3811094             -10.3705 (HOMO)
        52                         -0.2683185              -7.3013 (LUMO)
        53                         -0.2424930              -6.5986
        54                         -0.2076203              -5.6496
        55                         -0.1388998              -3.7797
        56                         -0.1161109              -3.1595
       ...                                ...                  ...
        93                          0.6262030              17.0399
      -------------------------------------------------------------
                  HL-Gap            0.1127909 Eh            3.0692 eV
             Fermi-level           -0.3247139 Eh           -8.8359 eV

 SCC (total)                   0 d,  0 h,  0 min,  0.044 sec
 SCC setup                      ...        0 min,  0.000 sec (  0.635%)
 Dispersion                     ...        0 min,  0.000 sec (  0.620%)
 classical contributions        ...        0 min,  0.000 sec (  0.196%)
 integral evaluation            ...        0 min,  0.006 sec ( 13.124%)
 iterations                     ...        0 min,  0.022 sec ( 50.191%)
 molecular gradient             ...        0 min,  0.015 sec ( 34.910%)
 printout                       ...        0 min,  0.000 sec (  0.308%)

         :::::::::::::::::::::::::::::::::::::::::::::::::::::
         ::                     SUMMARY                     ::
         :::::::::::::::::::::::::::::::::::::::::::::::::::::
         :: total energy             -58.949245700434 Eh    ::
         :: gradient norm              0.090753043439 Eh/a0 ::
         :: HOMO-LUMO gap              3.069196366818 eV    ::
         ::.................................................::
         :: SCC energy               -59.514539313787 Eh    ::
         :: -> isotropic ES            0.114341711990 Eh    ::
         :: -> anisotropic ES          0.001671851973 Eh    ::
         :: -> anisotropic XC          0.019715427162 Eh    ::
         :: -> dispersion             -0.033457072470 Eh    ::
         :: repulsion energy           0.565293613353 Eh    ::
         :: add. restraining           0.000000000000 Eh    ::
         :: total charge               0.000000000000 e     ::
         :::::::::::::::::::::::::::::::::::::::::::::::::::::

      ----------------------------------------------------------- 
     |                   =====================                   |
     |                        A N C O P T                        |
     |                   =====================                   |
     |               Approximate Normal Coordinate               |
     |                Rational Function Optimizer                |
      ----------------------------------------------------------- 
      ----------------------------------------------------------- 
     |                   =====================                   |
     |                        A N C O P T                        |
     |                   =====================                   |
     |               Approximate Normal Coordinate               |
     |                Rational Function Optimizer                |
      ----------------------------------------------------------- 

          ...................................................
          :                      SETUP                      :
          :.................................................:
          :   optimization level            normal          :
          :   max. optcycles                   200          :
          :   ANC micro-cycles                  20          :
          :   degrees of freedom                87          :
          :.................................................:
          :   RF solver                   davidson          :
          :   write xtbopt.log                true          :
          :   linear?                        false          :
          :   energy convergence         0.5000000E-05 Eh   :
          :   grad. convergence          0.1000000E-02 Eh/α :
          :   maxmium RF displ.          1.0000000          :
          :   Hlow (freq-cutoff)         0.1000000E-01      :
          :   Hmax (freq-cutoff)         5.0000000          :
          :   S6 in model hess.         20.0000000          :
          ...................................................

generating ANC from exact Hessian ...
Using Lindh-Hessian (1995)
 Shifting diagonal of input Hessian by    9.1355664063887641E-003
 Lowest  eigenvalues of input Hessian
    0.000000    0.000000    0.000000    0.000000    0.000000    0.000000
    0.010000    0.010309    0.010447    0.013354    0.014418    0.016185
    0.018720    0.019093    0.020990    0.022902    0.023863    0.030541
 Highest eigenvalues
    1.784562    1.925398    2.063465    2.088306    2.170579    2.290859


........................................................................
.............................. CYCLE    1 ..............................
........................................................................

 iter      E             dE          RMSdq      gap      omega  full diag
   1    -59.5146641 -0.595147E+02  0.787E-05    3.07       0.0  T
   2    -59.5146641 -0.235758E-10  0.587E-05    3.07     306.1  T
   3    -59.5146641 -0.118376E-10  0.391E-05    3.07     458.9  T
     SCC iter.                  ...        0 min,  0.005 sec
     gradient                   ...        0 min,  0.016 sec
 * total energy  :   -58.9492457 Eh     change       -0.1978080E-09 Eh
   gradient norm :     0.0907531 Eh/α   predicted     0.0000000E+00 (-100.00%)
   displ. norm   :     0.2602526 α      lambda       -0.1216831E-01
   maximum displ.:     0.0806641 α      in ANC's #18, #6, #26, ...

........................................................................
.............................. CYCLE    2 ..............................
........................................................................

 iter      E             dE          RMSdq      gap      omega  full diag
   1    -59.5443856 -0.595444E+02  0.217E-01    3.18       0.0  T
   2    -59.5445400 -0.154444E-03  0.133E-01    3.15       1.0  T
   3    -59.5445570 -0.169653E-04  0.735E-02    3.17       1.0  T
   4    -59.5446043 -0.473410E-04  0.182E-02    3.16       1.0  T
   5    -59.5446094 -0.505738E-05  0.109E-02    3.16       1.6  T
   6    -59.5446101 -0.714107E-06  0.830E-03    3.16       2.2  T
   7    -59.5446107 -0.657173E-06  0.592E-03    3.16       3.0  T
   8    -59.5446113 -0.530164E-06  0.259E-03    3.16       6.9  T
   9    -59.5446114 -0.805084E-07  0.131E-03    3.16      13.7  T
  10    -59.5446114 -0.225875E-07  0.427E-04    3.16      42.1  T
  11    -59.5446114 -0.205353E-08  0.194E-04    3.16      92.5  T
     SCC iter.                  ...        0 min,  0.037 sec
     gradient                   ...        0 min,  0.016 sec
 * total energy  :   -58.9575899 Eh     change       -0.8344210E-02 Eh
   gradient norm :     0.0417916 Eh/α   predicted    -0.6498016E-02 ( -22.13%)
   displ. norm   :     0.2248236 α      lambda       -0.3891059E-02
   maximum displ.:     0.1010813 α      in ANC's #6, #8, #9, ...

........................................................................
.............................. CYCLE    3 ..............................
........................................................................

 iter      E             dE          RMSdq      gap      omega  full diag
   1    -59.5600228 -0.595600E+02  0.146E-01    3.24       0.0  T
   2    -59.5601444 -0.121589E-03  0.883E-02    3.21       1.0  T
   3    -59.5601716 -0.271902E-04  0.495E-02    3.22       1.0  T
   4    -59.5601842 -0.126586E-04  0.142E-02    3.22       1.3  T
   5    -59.5601876 -0.340424E-05  0.705E-03    3.22       2.5  T
   6    -59.5601879 -0.306419E-06  0.519E-03    3.22       3.5  T
   7    -59.5601882 -0.224887E-06  0.393E-03    3.22       4.6  T
   8    -59.5601884 -0.220527E-06  0.194E-03    3.22       9.3  T
   9    -59.5601884 -0.468215E-07  0.954E-04    3.22      18.8  T
  10    -59.5601884 -0.137593E-07  0.319E-04    3.22      56.2  T
     SCC iter.                  ...        0 min,  0.014 sec
     gradient                   ...        0 min,  0.016 sec
 * total energy  :   -58.9598219 Eh     change       -0.2231994E-02 Eh
   gradient norm :     0.0121735 Eh/α   predicted    -0.2045129E-02 (  -8.37%)
   displ. norm   :     0.1563127 α      lambda       -0.5995497E-03
   maximum displ.:     0.0783808 α      in ANC's #3, #6, #8, ...

........................................................................
.............................. CYCLE    4 ..............................
........................................................................

 iter      E             dE          RMSdq      gap      omega  full diag
   1    -59.5600822 -0.595601E+02  0.549E-02    3.23       0.0  T
   2    -59.5600921 -0.990860E-05  0.315E-02    3.22       1.0  T
   3    -59.5600916  0.519509E-06  0.162E-02    3.23       1.1  T
   4    -59.5600943 -0.269793E-05  0.390E-03    3.22       4.6  T
   5    -59.5600946 -0.302497E-06  0.174E-03    3.22      10.3  T
   6    -59.5600946 -0.252874E-07  0.771E-04    3.22      23.3  T
   7    -59.5600946 -0.488868E-08  0.401E-04    3.22      44.8  T
     SCC iter.                  ...        0 min,  0.039 sec
     gradient                   ...        0 min,  0.016 sec
 * total energy  :   -58.9602885 Eh     change       -0.4665556E-03 Eh
   gradient norm :     0.0095935 Eh/α   predicted    -0.3071110E-03 ( -34.17%)
   displ. norm   :     0.2751405 α      lambda       -0.6835827E-03
   maximum displ.:     0.1627679 α      in ANC's #3, #6, #2, ...

........................................................................
.............................. CYCLE    5 ..............................
........................................................................

 iter      E             dE          RMSdq      gap      omega  full diag
   1    -59.5583367 -0.595583E+02  0.823E-02    3.24       0.0  T
   2    -59.5583501 -0.134050E-04  0.481E-02    3.23       1.0  T
   3    -59.5583464  0.370063E-05  0.211E-02    3.24       1.0  T
   4    -59.5583535 -0.710582E-05  0.501E-03    3.23       3.6  T
   5    -59.5583539 -0.385217E-06  0.255E-03    3.23       7.0  T
   6    -59.5583540 -0.501594E-07  0.115E-03    3.23      15.6  T
   7    -59.5583540 -0.117862E-07  0.671E-04    3.23      26.8  T
   8    -59.5583540 -0.316176E-08  0.443E-04    3.23      40.6  T
     SCC iter.                  ...        0 min,  0.012 sec
     gradient                   ...        0 min,  0.016 sec
 * total energy  :   -58.9607440 Eh     change       -0.4555527E-03 Eh
   gradient norm :     0.0089438 Eh/α   predicted    -0.3676707E-03 ( -19.29%)
   displ. norm   :     0.2053195 α      lambda       -0.2869459E-03
   maximum displ.:     0.1406693 α      in ANC's #3, #2, #6, ...

........................................................................
.............................. CYCLE    6 ..............................
........................................................................

 iter      E             dE          RMSdq      gap      omega  full diag
   1    -59.5585552 -0.595586E+02  0.539E-02    3.25       0.0  T
   2    -59.5585589 -0.364799E-05  0.320E-02    3.24       1.0  T
   3    -59.5585571  0.182994E-05  0.119E-02    3.24       1.5  T
   4    -59.5585599 -0.289495E-05  0.301E-03    3.24       6.0  T
   5    -59.5585601 -0.112026E-06  0.155E-03    3.24      11.6  T
   6    -59.5585601 -0.141393E-07  0.616E-04    3.24      29.2  T
   7    -59.5585601 -0.405152E-08  0.334E-04    3.24      53.7  T
     SCC iter.                  ...        0 min,  0.010 sec
     gradient                   ...        0 min,  0.046 sec
 * total energy  :   -58.9609628 Eh     change       -0.2187448E-03 Eh
   gradient norm :     0.0079179 Eh/α   predicted    -0.1495595E-03 ( -31.63%)
   displ. norm   :     0.2284759 α      lambda       -0.2752317E-03
   maximum displ.:     0.1652664 α      in ANC's #3, #2, #6, ...

........................................................................
.............................. CYCLE    7 ..............................
........................................................................

 iter      E             dE          RMSdq      gap      omega  full diag
   1    -59.5601735 -0.595602E+02  0.584E-02    3.26       0.0  T
   2    -59.5601772 -0.366545E-05  0.348E-02    3.25       1.0  T
   3    -59.5601752  0.200192E-05  0.116E-02    3.25       1.5  T
   4    -59.5601783 -0.305519E-05  0.323E-03    3.25       5.6  T
   5    -59.5601784 -0.116161E-06  0.160E-03    3.25      11.2  T
   6    -59.5601784 -0.140766E-07  0.689E-04    3.25      26.1  T
   7    -59.5601784 -0.328861E-08  0.421E-04    3.25      42.7  T
     SCC iter.                  ...        0 min,  0.010 sec
     gradient                   ...        0 min,  0.016 sec
 * total energy  :   -58.9611626 Eh     change       -0.1998901E-03 Eh
   gradient norm :     0.0050495 Eh/α   predicted    -0.1448480E-03 ( -27.54%)
   displ. norm   :     0.1889848 α      lambda       -0.1625175E-03
   maximum displ.:     0.1407526 α      in ANC's #3, #2, #4, ...

........................................................................
.............................. CYCLE    8 ..............................
........................................................................

 iter      E             dE          RMSdq      gap      omega  full diag
   1    -59.5616972 -0.595617E+02  0.465E-02    3.26       0.0  T
   2    -59.5616994 -0.219362E-05  0.275E-02    3.26       1.0  T
   3    -59.5616983  0.113175E-05  0.876E-03    3.26       2.1  T
   4    -59.5617000 -0.174384E-05  0.259E-03    3.26       6.9  T
   5    -59.5617001 -0.697056E-07  0.133E-03    3.26      13.5  T
   6    -59.5617001 -0.947126E-08  0.711E-04    3.26      25.2  T
   7    -59.5617001 -0.329281E-08  0.485E-04    3.26      37.0  T
     SCC iter.                  ...        0 min,  0.010 sec
     gradient                   ...        0 min,  0.049 sec
 * total energy  :   -58.9612766 Eh     change       -0.1139031E-03 Eh
   gradient norm :     0.0035480 Eh/α   predicted    -0.8416163E-04 ( -26.11%)
   displ. norm   :     0.1398901 α      lambda       -0.8687985E-04
   maximum displ.:     0.1010867 α      in ANC's #3, #2, #4, ...

........................................................................
.............................. CYCLE    9 ..............................
........................................................................

 iter      E             dE          RMSdq      gap      omega  full diag
   1    -59.5625652 -0.595626E+02  0.316E-02    3.27       0.0  T
   2    -59.5625659 -0.710194E-06  0.185E-02    3.27       1.0  T
   3    -59.5625656  0.289590E-06  0.467E-03    3.27       3.8  T
   4    -59.5625661 -0.508702E-06  0.160E-03    3.27      11.2  T
   5    -59.5625661 -0.195842E-07  0.880E-04    3.27      20.4  T
   6    -59.5625661 -0.448610E-08  0.492E-04    3.27      36.5  T
     SCC iter.                  ...        0 min,  0.009 sec
     gradient                   ...        0 min,  0.016 sec
 * total energy  :   -58.9613400 Eh     change       -0.6339972E-04 Eh
   gradient norm :     0.0030886 Eh/α   predicted    -0.4429153E-04 ( -30.14%)
   displ. norm   :     0.1443712 α      lambda       -0.6646670E-04
   maximum displ.:     0.0950893 α      in ANC's #3, #2, #4, ...

........................................................................
.............................. CYCLE   10 ..............................
........................................................................

 iter      E             dE          RMSdq      gap      omega  full diag
   1    -59.5624737 -0.595625E+02  0.314E-02    3.27       0.0  T
   2    -59.5624742 -0.488069E-06  0.183E-02    3.27       1.0  T
   3    -59.5624740  0.206341E-06  0.407E-03    3.27       4.4  T
   4    -59.5624744 -0.386042E-06  0.139E-03    3.27      12.9  T
   5    -59.5624744 -0.102437E-07  0.780E-04    3.27      23.0  T
   6    -59.5624744 -0.380269E-08  0.369E-04    3.27      48.7  T
     SCC iter.                  ...        0 min,  0.009 sec
     gradient                   ...        0 min,  0.043 sec
 * total energy  :   -58.9613879 Eh     change       -0.4791486E-04 Eh
   gradient norm :     0.0029824 Eh/α   predicted    -0.3392728E-04 ( -29.19%)
   displ. norm   :     0.1353743 α      lambda       -0.4888694E-04
   maximum displ.:     0.0807995 α      in ANC's #3, #2, #4, ...

........................................................................
.............................. CYCLE   11 ..............................
........................................................................

 iter      E             dE          RMSdq      gap      omega  full diag
   1    -59.5622195 -0.595622E+02  0.302E-02    3.27       0.0  T
   2    -59.5622199 -0.418159E-06  0.178E-02    3.27       1.0  T
   3    -59.5622199  0.338547E-07  0.318E-03    3.27       5.6  T
   4    -59.5622201 -0.170359E-06  0.132E-03    3.27      13.6  T
   5    -59.5622201 -0.788805E-08  0.760E-04    3.27      23.6  T
   6    -59.5622201 -0.373985E-08  0.368E-04    3.27      48.9  T
     SCC iter.                  ...        0 min,  0.009 sec
     gradient                   ...        0 min,  0.016 sec
 * total energy  :   -58.9614213 Eh     change       -0.3342822E-04 Eh
   gradient norm :     0.0025450 Eh/α   predicted    -0.2489419E-04 ( -25.53%)
   displ. norm   :     0.1177692 α      lambda       -0.3259731E-04
   maximum displ.:     0.0652416 α      in ANC's #3, #2, #4, ...

........................................................................
.............................. CYCLE   12 ..............................
........................................................................

 iter      E             dE          RMSdq      gap      omega  full diag
   1    -59.5615991 -0.595616E+02  0.274E-02    3.27       0.0  T
   2    -59.5615995 -0.411481E-06  0.161E-02    3.27       1.1  T
   3    -59.5615992  0.276270E-06  0.442E-03    3.27       4.1  T
   4    -59.5615996 -0.431096E-06  0.124E-03    3.27      14.4  T
   5    -59.5615996 -0.919438E-08  0.707E-04    3.27      25.4  T
   6    -59.5615996 -0.254764E-08  0.339E-04    3.27      53.0  T
     SCC iter.                  ...        0 min,  0.009 sec
     gradient                   ...        0 min,  0.016 sec
 * total energy  :   -58.9614416 Eh     change       -0.2031193E-04 Eh
   gradient norm :     0.0023704 Eh/α   predicted    -0.1652625E-04 ( -18.64%)
   displ. norm   :     0.0863423 α      lambda       -0.2446907E-04
   maximum displ.:     0.0458233 α      in ANC's #1, #2, #3, ...

........................................................................
.............................. CYCLE   13 ..............................
........................................................................

 iter      E             dE          RMSdq      gap      omega  full diag
   1    -59.5617179 -0.595617E+02  0.216E-02    3.27       0.0  T
   2    -59.5617182 -0.271162E-06  0.128E-02    3.27       1.4  T
   3    -59.5617180  0.136176E-06  0.332E-03    3.27       5.4  T
   4    -59.5617182 -0.225322E-06  0.975E-04    3.27      18.4  T
   5    -59.5617182 -0.602312E-08  0.563E-04    3.27      31.9  T
     SCC iter.                  ...        0 min,  0.007 sec
     gradient                   ...        0 min,  0.038 sec
 * total energy  :   -58.9614568 Eh     change       -0.1521356E-04 Eh
   gradient norm :     0.0021283 Eh/α   predicted    -0.1232752E-04 ( -18.97%)
   displ. norm   :     0.0460747 α      lambda       -0.1543959E-04
   maximum displ.:     0.0344229 α      in ANC's #1, #2, #5, ...

........................................................................
.............................. CYCLE   14 ..............................
........................................................................

 iter      E             dE          RMSdq      gap      omega  full diag
   1    -59.5622067 -0.595622E+02  0.123E-02    3.27       0.0  T
   2    -59.5622068 -0.104927E-06  0.731E-03    3.27       2.5  T
   3    -59.5622068  0.609637E-07  0.207E-03    3.27       8.7  T
   4    -59.5622069 -0.948368E-07  0.606E-04    3.27      29.6  T
   5    -59.5622069 -0.287886E-08  0.391E-04    3.27      45.9  T
     SCC iter.                  ...        0 min,  0.007 sec
     gradient                   ...        0 min,  0.016 sec
 * total energy  :   -58.9614678 Eh     change       -0.1093082E-04 Eh
   gradient norm :     0.0016036 Eh/α   predicted    -0.7737361E-05 ( -29.22%)
   displ. norm   :     0.1082354 α      lambda       -0.1793007E-04
   maximum displ.:     0.0775563 α      in ANC's #1, #2, #6, ...

........................................................................
.............................. CYCLE   15 ..............................
........................................................................

 iter      E             dE          RMSdq      gap      omega  full diag
   1    -59.5622918 -0.595623E+02  0.276E-02    3.27       0.0  T
   2    -59.5622925 -0.631062E-06  0.161E-02    3.27       1.1  T
   3    -59.5622918  0.629010E-06  0.600E-03    3.27       3.0  T
   4    -59.5622927 -0.890714E-06  0.131E-03    3.27      13.7  T
   5    -59.5622927 -0.138244E-07  0.800E-04    3.27      22.5  T
   6    -59.5622927 -0.345371E-08  0.440E-04    3.27      40.8  T
     SCC iter.                  ...        0 min,  0.009 sec
     gradient                   ...        0 min,  0.043 sec
 * total energy  :   -58.9614805 Eh     change       -0.1271921E-04 Eh
   gradient norm :     0.0027829 Eh/α   predicted    -0.9021722E-05 ( -29.07%)
   displ. norm   :     0.0324420 α      lambda       -0.1312622E-04
   maximum displ.:     0.0297957 α      in ANC's #1, #5, #10, ...

........................................................................
.............................. CYCLE   16 ..............................
........................................................................

 iter      E             dE          RMSdq      gap      omega  full diag
   1    -59.5626682 -0.595627E+02  0.829E-03    3.27       0.0  T
   2    -59.5626682 -0.413048E-07  0.475E-03    3.27       3.8  T
   3    -59.5626682  0.176502E-07  0.121E-03    3.27      14.8  T
   4    -59.5626682 -0.307138E-07  0.356E-04    3.27      50.4  T
   5    -59.5626682 -0.926185E-09  0.226E-04    3.27      79.6  T
     SCC iter.                  ...        0 min,  0.007 sec
     gradient                   ...        0 min,  0.016 sec
 * total energy  :   -58.9614913 Eh     change       -0.1082385E-04 Eh
   gradient norm :     0.0018496 Eh/α   predicted    -0.6571492E-05 ( -39.29%)
   displ. norm   :     0.0814832 α      lambda       -0.1969316E-04
   maximum displ.:     0.0705008 α      in ANC's #1, #2, #3, ...

........................................................................
.............................. CYCLE   17 ..............................
........................................................................

 iter      E             dE          RMSdq      gap      omega  full diag
   1    -59.5626821 -0.595627E+02  0.197E-02    3.27       0.0  T
   2    -59.5626823 -0.167376E-06  0.114E-02    3.27       1.6  T
   3    -59.5626823  0.257090E-07  0.190E-03    3.27       9.4  T
   4    -59.5626824 -0.864633E-07  0.770E-04    3.27      23.3  T
   5    -59.5626824 -0.370835E-08  0.455E-04    3.27      39.5  T
     SCC iter.                  ...        0 min,  0.007 sec
     gradient                   ...        0 min,  0.016 sec
 * total energy  :   -58.9615118 Eh     change       -0.2052253E-04 Eh
   gradient norm :     0.0015566 Eh/α   predicted    -0.9876476E-05 ( -51.87%)
   displ. norm   :     0.0776325 α      lambda       -0.1174783E-04
   maximum displ.:     0.0668452 α      in ANC's #1, #2, #3, ...

........................................................................
.............................. CYCLE   18 ..............................
........................................................................

 iter      E             dE          RMSdq      gap      omega  full diag
   1    -59.5625040 -0.595625E+02  0.174E-02    3.27       0.0  T
   2    -59.5625041 -0.107218E-06  0.101E-02    3.27       1.8  T
   3    -59.5625041  0.614678E-08  0.159E-03    3.27      11.3  T
   4    -59.5625042 -0.522937E-07  0.648E-04    3.27      27.7  T
   5    -59.5625042 -0.124945E-08  0.303E-04    3.27      59.3  T
     SCC iter.                  ...        0 min,  0.007 sec
     gradient                   ...        0 min,  0.016 sec
 * total energy  :   -58.9615279 Eh     change       -0.1611501E-04 Eh
   gradient norm :     0.0015003 Eh/α   predicted    -0.5891946E-05 ( -63.44%)
   displ. norm   :     0.0790288 α      lambda       -0.1270081E-04
   maximum displ.:     0.0668102 α      in ANC's #1, #2, #3, ...

........................................................................
.............................. CYCLE   19 ..............................
........................................................................

 iter      E             dE          RMSdq      gap      omega  full diag
   1    -59.5622480 -0.595622E+02  0.179E-02    3.27       0.0  T
   2    -59.5622481 -0.147114E-06  0.104E-02    3.27       1.7  T
   3    -59.5622481  0.674924E-07  0.232E-03    3.27       7.7  T
   4    -59.5622482 -0.126921E-06  0.686E-04    3.27      26.2  T
   5    -59.5622482 -0.163263E-08  0.368E-04    3.27      48.9  T
     SCC iter.                  ...        0 min,  0.007 sec
     gradient                   ...        0 min,  0.016 sec
 * total energy  :   -58.9615452 Eh     change       -0.1728327E-04 Eh
   gradient norm :     0.0010308 Eh/α   predicted    -0.6370252E-05 ( -63.14%)
   displ. norm   :     0.0925413 α      lambda       -0.1348166E-04
   maximum displ.:     0.0795433 α      in ANC's #1, #2, #3, ...

........................................................................
.............................. CYCLE   20 ..............................
........................................................................

 iter      E             dE          RMSdq      gap      omega  full diag
   1    -59.5621974 -0.595622E+02  0.211E-02    3.27       0.0  T
   2    -59.5621975 -0.171550E-06  0.123E-02    3.27       1.5  T
   3    -59.5621975  0.816987E-07  0.252E-03    3.27       7.1  T
   4    -59.5621976 -0.154889E-06  0.772E-04    3.27      23.3  T
   5    -59.5621976 -0.169712E-08  0.400E-04    3.27      44.9  T
     SCC iter.                  ...        0 min,  0.007 sec
     gradient                   ...        0 min,  0.031 sec
 * total energy  :   -58.9615637 Eh     change       -0.1848214E-04 Eh
   gradient norm :     0.0012027 Eh/α   predicted    -0.6769498E-05 ( -63.37%)
   displ. norm   :     0.1027135 α      lambda       -0.1401375E-04
   maximum displ.:     0.0889283 α      in ANC's #1, #2, #3, ...
 * RMSD in coord.:     0.3513518 α      energy gain  -0.1231800E-01 Eh

generating ANC from exact Hessian ...
Using Lindh-Hessian (1995)
 Shifting diagonal of input Hessian by    9.1001336779999061E-003
 Lowest  eigenvalues of input Hessian
    0.000000    0.000000    0.000000    0.000000    0.000000    0.000000
    0.010000    0.010136    0.010288    0.013294    0.014180    0.016406
    0.018741    0.019901    0.021472    0.024241    0.025856    0.030894
 Highest eigenvalues
    1.944755    2.016985    2.152308    2.195424    2.321379    2.348686


........................................................................
.............................. CYCLE   21 ..............................
........................................................................

 iter      E             dE          RMSdq      gap      omega  full diag
   1    -59.5621518 -0.595622E+02  0.227E-02    3.27       0.0  T
   2    -59.5621520 -0.189564E-06  0.132E-02    3.27       1.4  T
   3    -59.5621519  0.912616E-07  0.271E-03    3.27       6.6  T
   4    -59.5621521 -0.180887E-06  0.933E-04    3.27      19.2  T
   5    -59.5621521 -0.320301E-08  0.517E-04    3.27      34.8  T
     SCC iter.                  ...        0 min,  0.007 sec
     gradient                   ...        0 min,  0.016 sec
 * total energy  :   -58.9615833 Eh     change       -0.1956079E-04 Eh
   gradient norm :     0.0014429 Eh/α   predicted     0.0000000E+00 (-100.00%)
   displ. norm   :     0.0339421 α      lambda       -0.6325857E-05
   maximum displ.:     0.0278597 α      in ANC's #2, #1, #5, ...

........................................................................
.............................. CYCLE   22 ..............................
........................................................................

 iter      E             dE          RMSdq      gap      omega  full diag
   1    -59.5625203 -0.595625E+02  0.888E-03    3.27       0.0  T
   2    -59.5625203 -0.313932E-07  0.525E-03    3.27       3.4  T
   3    -59.5625203  0.547971E-08  0.871E-04    3.27      20.6  T
   4    -59.5625203 -0.162429E-07  0.414E-04    3.27      43.3  T
     SCC iter.                  ...        0 min,  0.006 sec
     gradient                   ...        0 min,  0.016 sec
 * total energy  :   -58.9615926 Eh     change       -0.9335134E-05 Eh
   gradient norm :     0.0004555 Eh/α   predicted    -0.3757233E-05 ( -59.75%)
   displ. norm   :     0.0605029 α      lambda       -0.9573765E-05
   maximum displ.:     0.0474687 α      in ANC's #2, #1, #5, ...

........................................................................
.............................. CYCLE   23 ..............................
........................................................................

 iter      E             dE          RMSdq      gap      omega  full diag
   1    -59.5626690 -0.595627E+02  0.141E-02    3.27       0.0  T
   2    -59.5626691 -0.707967E-07  0.830E-03    3.27       2.2  T
   3    -59.5626691 -0.307052E-08  0.118E-03    3.27      15.2  T
   4    -59.5626691 -0.245170E-07  0.646E-04    3.27      27.8  T
   5    -59.5626691 -0.216610E-08  0.420E-04    3.27      42.7  T
     SCC iter.                  ...        0 min,  0.007 sec
     gradient                   ...        0 min,  0.026 sec
 * total energy  :   -58.9616049 Eh     change       -0.1229345E-04 Eh
   gradient norm :     0.0009805 Eh/α   predicted    -0.4796080E-05 ( -60.99%)
   displ. norm   :     0.0811490 α      lambda       -0.1062684E-04
   maximum displ.:     0.0632423 α      in ANC's #2, #1, #5, ...

........................................................................
.............................. CYCLE   24 ..............................
........................................................................

 iter      E             dE          RMSdq      gap      omega  full diag
   1    -59.5625770 -0.595626E+02  0.184E-02    3.27       0.0  T
   2    -59.5625771 -0.832107E-07  0.109E-02    3.27       1.7  T
   3    -59.5625771 -0.288799E-07  0.996E-04    3.27      18.0  T
   4    -59.5625771 -0.615819E-08  0.629E-04    3.27      28.6  T
     SCC iter.                  ...        0 min,  0.006 sec
     gradient                   ...        0 min,  0.016 sec
 * total energy  :   -58.9616192 Eh     change       -0.1434480E-04 Eh
   gradient norm :     0.0012979 Eh/α   predicted    -0.5342062E-05 ( -62.76%)
   displ. norm   :     0.0962876 α      lambda       -0.1191596E-04
   maximum displ.:     0.0746135 α      in ANC's #2, #1, #5, ...

........................................................................
.............................. CYCLE   25 ..............................
........................................................................

 iter      E             dE          RMSdq      gap      omega  full diag
   1    -59.5624944 -0.595625E+02  0.209E-02    3.27       0.0  T
   2    -59.5624945 -0.112258E-06  0.123E-02    3.27       1.5  T
   3    -59.5624945 -0.306266E-07  0.132E-03    3.27      13.6  T
   4    -59.5624945 -0.189835E-07  0.815E-04    3.27      22.0  T
   5    -59.5624945 -0.248141E-08  0.470E-04    3.27      38.2  T
     SCC iter.                  ...        0 min,  0.007 sec
     gradient                   ...        0 min,  0.016 sec
 * total energy  :   -58.9616358 Eh     change       -0.1659659E-04 Eh
   gradient norm :     0.0011978 Eh/α   predicted    -0.5982773E-05 ( -63.95%)
   displ. norm   :     0.1070288 α      lambda       -0.1321448E-04
   maximum displ.:     0.0850135 α      in ANC's #2, #1, #5, ...

........................................................................
.............................. CYCLE   26 ..............................
........................................................................

 iter      E             dE          RMSdq      gap      omega  full diag
   1    -59.5623966 -0.595624E+02  0.229E-02    3.27       0.0  T
   2    -59.5623968 -0.151844E-06  0.135E-02    3.27       1.3  T
   3    -59.5623968 -0.245691E-07  0.154E-03    3.27      11.6  T
   4    -59.5623968 -0.331070E-07  0.840E-04    3.27      21.4  T
   5    -59.5623968 -0.265970E-08  0.468E-04    3.27      38.4  T
     SCC iter.                  ...        0 min,  0.007 sec
     gradient                   ...        0 min,  0.025 sec
 * total energy  :   -58.9616542 Eh     change       -0.1838932E-04 Eh
   gradient norm :     0.0007414 Eh/α   predicted    -0.6645944E-05 ( -63.86%)
   displ. norm   :     0.0977599 α      lambda       -0.1191426E-04
   maximum displ.:     0.0813555 α      in ANC's #2, #1, #5, ...

........................................................................
.............................. CYCLE   27 ..............................
........................................................................

 iter      E             dE          RMSdq      gap      omega  full diag
   1    -59.5623671 -0.595624E+02  0.206E-02    3.27       0.0  T
   2    -59.5623672 -0.129941E-06  0.121E-02    3.27       1.5  T
   3    -59.5623672 -0.945976E-08  0.156E-03    3.27      11.5  T
   4    -59.5623673 -0.403658E-07  0.780E-04    3.27      23.0  T
   5    -59.5623673 -0.230763E-08  0.443E-04    3.27      40.6  T
     SCC iter.                  ...        0 min,  0.007 sec
     gradient                   ...        0 min,  0.016 sec
 * total energy  :   -58.9616709 Eh     change       -0.1663478E-04 Eh
   gradient norm :     0.0003945 Eh/α   predicted    -0.5983229E-05 ( -64.03%)
   displ. norm   :     0.0756625 α      lambda       -0.9324478E-05
   maximum displ.:     0.0670155 α      in ANC's #2, #1, #5, ...

........................................................................
.............................. CYCLE   28 ..............................
........................................................................

 iter      E             dE          RMSdq      gap      omega  full diag
   1    -59.5623823 -0.595624E+02  0.158E-02    3.27       0.0  T
   2    -59.5623824 -0.786508E-07  0.923E-03    3.27       1.9  T
   3    -59.5623824  0.368415E-08  0.135E-03    3.27      13.3  T
   4    -59.5623824 -0.353824E-07  0.618E-04    3.27      29.1  T
   5    -59.5623824 -0.149132E-08  0.351E-04    3.27      51.1  T
     SCC iter.                  ...        0 min,  0.007 sec
     gradient                   ...        0 min,  0.016 sec
 * total energy  :   -58.9616842 Eh     change       -0.1333181E-04 Eh
   gradient norm :     0.0004166 Eh/α   predicted    -0.4675235E-05 ( -64.93%)
   displ. norm   :     0.0549213 α      lambda       -0.7364908E-05
   maximum displ.:     0.0516544 α      in ANC's #2, #1, #8, ...

........................................................................
.............................. CYCLE   29 ..............................
........................................................................

 iter      E             dE          RMSdq      gap      omega  full diag
   1    -59.5624143 -0.595624E+02  0.113E-02    3.27       0.0  T
   2    -59.5624143 -0.384176E-07  0.660E-03    3.27       2.7  T
   3    -59.5624143  0.974803E-08  0.112E-03    3.27      16.0  T
   4    -59.5624143 -0.281882E-07  0.465E-04    3.27      38.6  T
   5    -59.5624143 -0.694641E-09  0.254E-04    3.27      70.8  T
     SCC iter.                  ...        0 min,  0.007 sec
     gradient                   ...        0 min,  0.037 sec
 * total energy  :   -58.9616949 Eh     change       -0.1072502E-04 Eh
   gradient norm :     0.0005054 Eh/α   predicted    -0.3687702E-05 ( -65.62%)
   displ. norm   :     0.0453975 α      lambda       -0.6667878E-05
   maximum displ.:     0.0435634 α      in ANC's #2, #4, #8, ...

........................................................................
.............................. CYCLE   30 ..............................
........................................................................

 iter      E             dE          RMSdq      gap      omega  full diag
   1    -59.5624439 -0.595624E+02  0.936E-03    3.27       0.0  T
   2    -59.5624440 -0.279391E-07  0.548E-03    3.27       3.3  T
   3    -59.5624440  0.112334E-07  0.104E-03    3.27      17.2  T
   4    -59.5624440 -0.249703E-07  0.409E-04    3.27      44.0  T
   5    -59.5624440 -0.559915E-09  0.234E-04    3.27      76.7  T
     SCC iter.                  ...        0 min,  0.007 sec
     gradient                   ...        0 min,  0.016 sec
 * total energy  :   -58.9617047 Eh     change       -0.9811079E-05 Eh
   gradient norm :     0.0005168 Eh/α   predicted    -0.3338986E-05 ( -65.97%)
   displ. norm   :     0.0460335 α      lambda       -0.6975411E-05
   maximum displ.:     0.0427672 α      in ANC's #2, #4, #1, ...

........................................................................
.............................. CYCLE   31 ..............................
........................................................................

 iter      E             dE          RMSdq      gap      omega  full diag
   1    -59.5624637 -0.595625E+02  0.949E-03    3.27       0.0  T
   2    -59.5624637 -0.334508E-07  0.560E-03    3.27       3.2  T
   3    -59.5624637  0.183814E-07  0.120E-03    3.27      15.0  T
   4    -59.5624637 -0.335342E-07  0.427E-04    3.27      42.0  T
   5    -59.5624637 -0.641734E-09  0.268E-04    3.27      67.1  T
     SCC iter.                  ...        0 min,  0.007 sec
     gradient                   ...        0 min,  0.016 sec
 * total energy  :   -58.9617149 Eh     change       -0.1020721E-04 Eh
   gradient norm :     0.0004682 Eh/α   predicted    -0.3494218E-05 ( -65.77%)
   displ. norm   :     0.0526207 α      lambda       -0.7743334E-05
   maximum displ.:     0.0468450 α      in ANC's #2, #4, #1, ...

........................................................................
.............................. CYCLE   32 ..............................
........................................................................

 iter      E             dE          RMSdq      gap      omega  full diag
   1    -59.5624730 -0.595625E+02  0.112E-02    3.27       0.0  T
   2    -59.5624731 -0.481550E-07  0.660E-03    3.27       2.7  T
   3    -59.5624730  0.204156E-07  0.135E-03    3.27      13.3  T
   4    -59.5624731 -0.404632E-07  0.517E-04    3.27      34.7  T
   5    -59.5624731 -0.112231E-08  0.329E-04    3.27      54.6  T
     SCC iter.                  ...        0 min,  0.022 sec
     gradient                   ...        0 min,  0.016 sec
 * total energy  :   -58.9617261 Eh     change       -0.1117974E-04 Eh
   gradient norm :     0.0003842 Eh/α   predicted    -0.3878717E-05 ( -65.31%)
   displ. norm   :     0.0591927 α      lambda       -0.8216708E-05
   maximum displ.:     0.0517999 α      in ANC's #2, #4, #1, ...

........................................................................
.............................. CYCLE   33 ..............................
........................................................................

 iter      E             dE          RMSdq      gap      omega  full diag
   1    -59.5624853 -0.595625E+02  0.129E-02    3.27       0.0  T
   2    -59.5624854 -0.664446E-07  0.767E-03    3.27       2.3  T
   3    -59.5624853  0.330716E-07  0.163E-03    3.27      11.0  T
   4    -59.5624854 -0.598822E-07  0.587E-04    3.27      30.6  T
   5    -59.5624854 -0.149527E-08  0.376E-04    3.27      47.8  T
     SCC iter.                  ...        0 min,  0.007 sec
     gradient                   ...        0 min,  0.016 sec
 * total energy  :   -58.9617378 Eh     change       -0.1172077E-04 Eh
   gradient norm :     0.0003031 Eh/α   predicted    -0.4116227E-05 ( -64.88%)
   displ. norm   :     0.0605734 α      lambda       -0.7841221E-05
   maximum displ.:     0.0533697 α      in ANC's #2, #4, #1, ...

........................................................................
.............................. CYCLE   34 ..............................
........................................................................

 iter      E             dE          RMSdq      gap      omega  full diag
   1    -59.5624812 -0.595625E+02  0.135E-02    3.27       0.0  T
   2    -59.5624813 -0.703202E-07  0.800E-03    3.27       2.2  T
   3    -59.5624813  0.256268E-07  0.159E-03    3.27      11.3  T
   4    -59.5624813 -0.540242E-07  0.630E-04    3.27      28.5  T
   5    -59.5624813 -0.179169E-08  0.395E-04    3.27      45.4  T
     SCC iter.                  ...        0 min,  0.007 sec
     gradient                   ...        0 min,  0.016 sec
 * total energy  :   -58.9617490 Eh     change       -0.1118131E-04 Eh
   gradient norm :     0.0002521 Eh/α   predicted    -0.3927365E-05 ( -64.88%)
   displ. norm   :     0.0551674 α      lambda       -0.6790523E-05
   maximum displ.:     0.0498615 α      in ANC's #2, #4, #5, ...

........................................................................
.............................. CYCLE   35 ..............................
........................................................................

 iter      E             dE          RMSdq      gap      omega  full diag
   1    -59.5624932 -0.595625E+02  0.126E-02    3.27       0.0  T
   2    -59.5624933 -0.586848E-07  0.750E-03    3.27       2.4  T
   3    -59.5624932  0.225688E-07  0.147E-03    3.27      12.2  T
   4    -59.5624933 -0.471604E-07  0.580E-04    3.27      31.0  T
   5    -59.5624933 -0.145109E-08  0.359E-04    3.27      50.0  T
     SCC iter.                  ...        0 min,  0.022 sec
     gradient                   ...        0 min,  0.016 sec
 * total energy  :   -58.9617588 Eh     change       -0.9794472E-05 Eh
   gradient norm :     0.0002514 Eh/α   predicted    -0.3400301E-05 ( -65.28%)
   displ. norm   :     0.0475103 α      lambda       -0.5783242E-05
   maximum displ.:     0.0442898 α      in ANC's #2, #4, #5, ...

........................................................................
.............................. CYCLE   36 ..............................
........................................................................

 iter      E             dE          RMSdq      gap      omega  full diag
   1    -59.5625082 -0.595625E+02  0.109E-02    3.27       0.0  T
   2    -59.5625082 -0.412504E-07  0.649E-03    3.27       2.8  T
   3    -59.5625082  0.135376E-07  0.122E-03    3.27      14.8  T
   4    -59.5625083 -0.318303E-07  0.502E-04    3.27      35.8  T
   5    -59.5625083 -0.103178E-08  0.299E-04    3.27      60.2  T
     SCC iter.                  ...        0 min,  0.007 sec
     gradient                   ...        0 min,  0.016 sec
 * total energy  :   -58.9617673 Eh     change       -0.8467069E-05 Eh
   gradient norm :     0.0002686 Eh/α   predicted    -0.2895296E-05 ( -65.81%)
   displ. norm   :     0.0415703 α      lambda       -0.5164155E-05
   maximum displ.:     0.0395689 α      in ANC's #2, #4, #7, ...

........................................................................
.............................. CYCLE   37 ..............................
........................................................................

 iter      E             dE          RMSdq      gap      omega  full diag
   1    -59.5625171 -0.595625E+02  0.953E-03    3.27       0.0  T
   2    -59.5625172 -0.297551E-07  0.564E-03    3.27       3.2  T
   3    -59.5625172  0.494440E-08  0.955E-04    3.27      18.8  T
   4    -59.5625172 -0.183598E-07  0.432E-04    3.27      41.6  T
     SCC iter.                  ...        0 min,  0.006 sec
     gradient                   ...        0 min,  0.041 sec
 * total energy  :   -58.9617749 Eh     change       -0.7649922E-05 Eh
   gradient norm :     0.0002862 Eh/α   predicted    -0.2584581E-05 ( -66.21%)
   displ. norm   :     0.0391524 α      lambda       -0.4997422E-05
   maximum displ.:     0.0372449 α      in ANC's #2, #1, #4, ...

........................................................................
.............................. CYCLE   38 ..............................
........................................................................

 iter      E             dE          RMSdq      gap      omega  full diag
   1    -59.5625287 -0.595625E+02  0.889E-03    3.27       0.0  T
   2    -59.5625287 -0.229269E-07  0.525E-03    3.27       3.4  T
   3    -59.5625287  0.512093E-08  0.894E-04    3.27      20.1  T
   4    -59.5625287 -0.165954E-07  0.399E-04    3.27      45.1  T
     SCC iter.                  ...        0 min,  0.006 sec
     gradient                   ...        0 min,  0.016 sec
 * total energy  :   -58.9617824 Eh     change       -0.7438485E-05 Eh
   gradient norm :     0.0002907 Eh/α   predicted    -0.2501071E-05 ( -66.38%)
   displ. norm   :     0.0409372 α      lambda       -0.5282413E-05
   maximum displ.:     0.0381033 α      in ANC's #2, #1, #6, ...

........................................................................
.............................. CYCLE   39 ..............................
........................................................................

 iter      E             dE          RMSdq      gap      omega  full diag
   1    -59.5625337 -0.595625E+02  0.894E-03    3.27       0.0  T
   2    -59.5625337 -0.230099E-07  0.526E-03    3.27       3.4  T
   3    -59.5625337 -0.816009E-09  0.770E-04    3.27      23.3  T
   4    -59.5625337 -0.103466E-07  0.396E-04    3.27      45.3  T
     SCC iter.                  ...        0 min,  0.006 sec
     gradient                   ...        0 min,  0.016 sec
 * total energy  :   -58.9617902 Eh     change       -0.7848909E-05 Eh
   gradient norm :     0.0002917 Eh/α   predicted    -0.2643954E-05 ( -66.31%)
   displ. norm   :     0.0455211 α      lambda       -0.5827319E-05
   maximum displ.:     0.0412925 α      in ANC's #2, #1, #5, ...

........................................................................
.............................. CYCLE   40 ..............................
........................................................................

 iter      E             dE          RMSdq      gap      omega  full diag
   1    -59.5625313 -0.595625E+02  0.978E-03    3.27       0.0  T
   2    -59.5625314 -0.260798E-07  0.575E-03    3.27       3.1  T
   3    -59.5625314 -0.193278E-08  0.777E-04    3.27      23.1  T
   4    -59.5625314 -0.102768E-07  0.406E-04    3.27      44.2  T
     SCC iter.                  ...        0 min,  0.038 sec
     gradient                   ...        0 min,  0.016 sec
 * total energy  :   -58.9617988 Eh     change       -0.8618244E-05 Eh
   gradient norm :     0.0002669 Eh/α   predicted    -0.2917155E-05 ( -66.15%)
   displ. norm   :     0.0514276 α      lambda       -0.6449226E-05
   maximum displ.:     0.0459117 α      in ANC's #2, #1, #5, ...

........................................................................
.............................. CYCLE   41 ..............................
........................................................................

 iter      E             dE          RMSdq      gap      omega  full diag
   1    -59.5625324 -0.595625E+02  0.108E-02    3.27       0.0  T
   2    -59.5625325 -0.322846E-07  0.634E-03    3.27       2.8  T
   3    -59.5625325 -0.442721E-08  0.813E-04    3.27      22.1  T
   4    -59.5625325 -0.103263E-07  0.443E-04    3.27      40.5  T
     SCC iter.                  ...        0 min,  0.006 sec
     gradient                   ...        0 min,  0.016 sec
 * total energy  :   -58.9618083 Eh     change       -0.9488842E-05 Eh
   gradient norm :     0.0002528 Eh/α   predicted    -0.3228958E-05 ( -65.97%)
   displ. norm   :     0.0559308 α      lambda       -0.6820238E-05
   maximum displ.:     0.0497514 α      in ANC's #2, #1, #5, ...

........................................................................
.............................. CYCLE   42 ..............................
........................................................................

 iter      E             dE          RMSdq      gap      omega  full diag
   1    -59.5625221 -0.595625E+02  0.117E-02    3.27       0.0  T
   2    -59.5625222 -0.361139E-07  0.684E-03    3.27       2.6  T
   3    -59.5625222 -0.487076E-08  0.862E-04    3.27      20.8  T
   4    -59.5625222 -0.118960E-07  0.471E-04    3.27      38.1  T
     SCC iter.                  ...        0 min,  0.006 sec
     gradient                   ...        0 min,  0.040 sec
 * total energy  :   -58.9618183 Eh     change       -0.9992700E-05 Eh
   gradient norm :     0.0002246 Eh/α   predicted    -0.3415165E-05 ( -65.82%)
   displ. norm   :     0.0570779 α      lambda       -0.6765754E-05
   maximum displ.:     0.0511827 α      in ANC's #2, #1, #5, ...
 * RMSD in coord.:     0.2155552 α      energy gain  -0.2546105E-03 Eh

generating ANC from exact Hessian ...
Using Lindh-Hessian (1995)
 Shifting diagonal of input Hessian by    9.0877167575483270E-003
 Lowest  eigenvalues of input Hessian
    0.000000    0.000000    0.000000    0.000000    0.000000    0.000000
    0.010000    0.010140    0.010296    0.013428    0.014026    0.016641
    0.018777    0.019869    0.021148    0.024304    0.025857    0.030358
 Highest eigenvalues
    1.944908    2.016871    2.152512    2.195889    2.321845    2.348823


........................................................................
.............................. CYCLE   43 ..............................
........................................................................

 iter      E             dE          RMSdq      gap      omega  full diag
   1    -59.5625197 -0.595625E+02  0.118E-02    3.27       0.0  T
   2    -59.5625198 -0.384073E-07  0.693E-03    3.27       2.6  T
   3    -59.5625198 -0.379524E-08  0.917E-04    3.27      19.6  T
   4    -59.5625198 -0.139243E-07  0.489E-04    3.27      36.7  T
     SCC iter.                  ...        0 min,  0.006 sec
     gradient                   ...        0 min,  0.016 sec
 * total energy  :   -58.9618282 Eh     change       -0.9898355E-05 Eh
   gradient norm :     0.0002154 Eh/α   predicted     0.0000000E+00 (-100.00%)
   displ. norm   :     0.0284735 α      lambda       -0.8513511E-07
   maximum displ.:     0.0279534 α      in ANC's #2, #3, #1, ...

........................................................................
.............................. CYCLE   44 ..............................
........................................................................

 iter      E             dE          RMSdq      gap      omega  full diag
   1    -59.5625408 -0.595625E+02  0.612E-03    3.27       0.0  T
   2    -59.5625408 -0.110748E-07  0.360E-03    3.27       5.0  T
   3    -59.5625408  0.289943E-08  0.665E-04    3.27      27.0  T
   4    -59.5625408 -0.909807E-08  0.314E-04    3.27      57.2  T
     SCC iter.                  ...        0 min,  0.006 sec
     gradient                   ...        0 min,  0.016 sec
 * total energy  :   -58.9618336 Eh     change       -0.5418228E-05 Eh
   gradient norm :     0.0002260 Eh/α   predicted    -0.1854730E-05 ( -65.77%)
   displ. norm   :     0.0312270 α      lambda       -0.3940667E-05
   maximum displ.:     0.0297346 α      in ANC's #2, #3, #1, ...

........................................................................
.............................. CYCLE   45 ..............................
........................................................................

 iter      E             dE          RMSdq      gap      omega  full diag
   1    -59.5625480 -0.595625E+02  0.648E-03    3.27       0.0  T
   2    -59.5625480 -0.139752E-07  0.379E-03    3.27       4.7  T
   3    -59.5625480  0.609025E-08  0.779E-04    3.27      23.1  T
   4    -59.5625480 -0.134242E-07  0.326E-04    3.27      55.1  T
     SCC iter.                  ...        0 min,  0.006 sec
     gradient                   ...        0 min,  0.035 sec
 * total energy  :   -58.9618394 Eh     change       -0.5774349E-05 Eh
   gradient norm :     0.0002147 Eh/α   predicted    -0.1971695E-05 ( -65.85%)
   displ. norm   :     0.0350803 α      lambda       -0.4258239E-05
   maximum displ.:     0.0328461 α      in ANC's #2, #3, #4, ...

........................................................................
.............................. CYCLE   46 ..............................
........................................................................

 iter      E             dE          RMSdq      gap      omega  full diag
   1    -59.5625439 -0.595625E+02  0.719E-03    3.27       0.0  T
   2    -59.5625439 -0.179063E-07  0.422E-03    3.27       4.3  T
   3    -59.5625439  0.107550E-07  0.925E-04    3.27      19.4  T
   4    -59.5625439 -0.198239E-07  0.345E-04    3.27      52.0  T
     SCC iter.                  ...        0 min,  0.006 sec
     gradient                   ...        0 min,  0.016 sec
 * total energy  :   -58.9618456 Eh     change       -0.6233385E-05 Eh
   gradient norm :     0.0001986 Eh/α   predicted    -0.2130590E-05 ( -65.82%)
   displ. norm   :     0.0376217 α      lambda       -0.4419107E-05
   maximum displ.:     0.0350019 α      in ANC's #2, #3, #4, ...

........................................................................
.............................. CYCLE   47 ..............................
........................................................................

 iter      E             dE          RMSdq      gap      omega  full diag
   1    -59.5625404 -0.595625E+02  0.767E-03    3.27       0.0  T
   2    -59.5625404 -0.204239E-07  0.451E-03    3.27       4.0  T
   3    -59.5625404  0.115186E-07  0.993E-04    3.27      18.1  T
   4    -59.5625404 -0.224708E-07  0.386E-04    3.27      46.5  T
     SCC iter.                  ...        0 min,  0.006 sec
     gradient                   ...        0 min,  0.016 sec
 * total energy  :   -58.9618521 Eh     change       -0.6460966E-05 Eh
   gradient norm :     0.0001938 Eh/α   predicted    -0.2214870E-05 ( -65.72%)
   displ. norm   :     0.0388516 α      lambda       -0.4456972E-05
   maximum displ.:     0.0362302 α      in ANC's #2, #3, #4, ...

........................................................................
.............................. CYCLE   48 ..............................
........................................................................

 iter      E             dE          RMSdq      gap      omega  full diag
   1    -59.5625408 -0.595625E+02  0.803E-03    3.27       0.0  T
   2    -59.5625408 -0.217956E-07  0.473E-03    3.27       3.8  T
   3    -59.5625408  0.104422E-07  0.987E-04    3.27      18.2  T
   4    -59.5625409 -0.218254E-07  0.395E-04    3.27      45.4  T
     SCC iter.                  ...        0 min,  0.027 sec
     gradient                   ...        0 min,  0.016 sec
 * total energy  :   -58.9618587 Eh     change       -0.6558298E-05 Eh
   gradient norm :     0.0001926 Eh/α   predicted    -0.2234701E-05 ( -65.93%)
   displ. norm   :     0.0388592 α      lambda       -0.4400877E-05
   maximum displ.:     0.0362148 α      in ANC's #2, #3, #4, ...

........................................................................
.............................. CYCLE   49 ..............................
........................................................................

 iter      E             dE          RMSdq      gap      omega  full diag
   1    -59.5625430 -0.595625E+02  0.815E-03    3.27       0.0  T
   2    -59.5625430 -0.218662E-07  0.480E-03    3.27       3.7  T
   3    -59.5625430  0.800994E-08  0.954E-04    3.27      18.8  T
   4    -59.5625430 -0.196313E-07  0.407E-04    3.27      44.1  T
     SCC iter.                  ...        0 min,  0.006 sec
     gradient                   ...        0 min,  0.016 sec
 * total energy  :   -58.9618651 Eh     change       -0.6495385E-05 Eh
   gradient norm :     0.0001915 Eh/α   predicted    -0.2203969E-05 ( -66.07%)
   displ. norm   :     0.0383958 α      lambda       -0.4314462E-05
   maximum displ.:     0.0358430 α      in ANC's #2, #3, #1, ...

........................................................................
.............................. CYCLE   50 ..............................
........................................................................

 iter      E             dE          RMSdq      gap      omega  full diag
   1    -59.5625464 -0.595625E+02  0.819E-03    3.27       0.0  T
   2    -59.5625464 -0.209979E-07  0.483E-03    3.27       3.7  T
   3    -59.5625464  0.581174E-08  0.896E-04    3.27      20.0  T
   4    -59.5625464 -0.167864E-07  0.397E-04    3.27      45.2  T
     SCC iter.                  ...        0 min,  0.006 sec
     gradient                   ...        0 min,  0.043 sec
 * total energy  :   -58.9618715 Eh     change       -0.6389323E-05 Eh
   gradient norm :     0.0001899 Eh/α   predicted    -0.2160187E-05 ( -66.19%)
   displ. norm   :     0.0376300 α      lambda       -0.4195703E-05
   maximum displ.:     0.0351756 α      in ANC's #2, #1, #3, ...

........................................................................
.............................. CYCLE   51 ..............................
........................................................................

 iter      E             dE          RMSdq      gap      omega  full diag
   1    -59.5625538 -0.595626E+02  0.804E-03    3.27       0.0  T
   2    -59.5625538 -0.197631E-07  0.474E-03    3.27       3.8  T
   3    -59.5625538  0.319562E-08  0.828E-04    3.27      21.7  T
   4    -59.5625538 -0.135586E-07  0.390E-04    3.27      46.1  T
     SCC iter.                  ...        0 min,  0.006 sec
     gradient                   ...        0 min,  0.016 sec
 * total energy  :   -58.9618777 Eh     change       -0.6213501E-05 Eh
   gradient norm :     0.0001859 Eh/α   predicted    -0.2100013E-05 ( -66.20%)
   displ. norm   :     0.0365963 α      lambda       -0.4045179E-05
   maximum displ.:     0.0343539 α      in ANC's #2, #1, #4, ...

........................................................................
.............................. CYCLE   52 ..............................
........................................................................

 iter      E             dE          RMSdq      gap      omega  full diag
   1    -59.5625580 -0.595626E+02  0.788E-03    3.27       0.0  T
   2    -59.5625581 -0.179888E-07  0.465E-03    3.27       3.9  T
   3    -59.5625581  0.193774E-08  0.760E-04    3.27      23.6  T
   4    -59.5625581 -0.111679E-07  0.365E-04    3.27      49.2  T
     SCC iter.                  ...        0 min,  0.006 sec
     gradient                   ...        0 min,  0.016 sec
 * total energy  :   -58.9618837 Eh     change       -0.5995624E-05 Eh
   gradient norm :     0.0001829 Eh/α   predicted    -0.2024168E-05 ( -66.24%)
   displ. norm   :     0.0353160 α      lambda       -0.3862681E-05
   maximum displ.:     0.0333365 α      in ANC's #2, #1, #4, ...

........................................................................
.............................. CYCLE   53 ..............................
........................................................................

 iter      E             dE          RMSdq      gap      omega  full diag
   1    -59.5625653 -0.595626E+02  0.751E-03    3.27       0.0  T
   2    -59.5625653 -0.163224E-07  0.442E-03    3.27       4.1  T
   3    -59.5625653  0.119506E-09  0.687E-04    3.27      26.2  T
   4    -59.5625653 -0.851314E-08  0.350E-04    3.27      51.3  T
     SCC iter.                  ...        0 min,  0.006 sec
     gradient                   ...        0 min,  0.031 sec
 * total energy  :   -58.9618895 Eh     change       -0.5741815E-05 Eh
   gradient norm :     0.0001801 Eh/α   predicted    -0.1932866E-05 ( -66.34%)
   displ. norm   :     0.0337848 α      lambda       -0.3668498E-05
   maximum displ.:     0.0321278 α      in ANC's #2, #1, #4, ...

........................................................................
.............................. CYCLE   54 ..............................
........................................................................

 iter      E             dE          RMSdq      gap      omega  full diag
   1    -59.5625693 -0.595626E+02  0.723E-03    3.27       0.0  T
   2    -59.5625693 -0.142519E-07  0.425E-03    3.27       4.2  T
   3    -59.5625693  0.699742E-10  0.631E-04    3.27      28.5  T
   4    -59.5625693 -0.727716E-08  0.319E-04    3.27      56.3  T
     SCC iter.                  ...        0 min,  0.006 sec
     gradient                   ...        0 min,  0.016 sec
 * total energy  :   -58.9618950 Eh     change       -0.5465742E-05 Eh
   gradient norm :     0.0001777 Eh/α   predicted    -0.1836095E-05 ( -66.41%)
   displ. norm   :     0.0322373 α      lambda       -0.3478669E-05
   maximum displ.:     0.0308455 α      in ANC's #2, #1, #4, ...

........................................................................
.............................. CYCLE   55 ..............................
........................................................................

 iter      E             dE          RMSdq      gap      omega  full diag
   1    -59.5625732 -0.595626E+02  0.679E-03    3.27       0.0  T
   2    -59.5625732 -0.129176E-07  0.398E-03    3.27       4.5  T
   3    -59.5625732 -0.962515E-09  0.570E-04    3.27      31.5  T
   4    -59.5625732 -0.553717E-08  0.304E-04    3.27      59.1  T
     SCC iter.                  ...        0 min,  0.006 sec
     gradient                   ...        0 min,  0.016 sec
 * total energy  :   -58.9619001 Eh     change       -0.5190587E-05 Eh
   gradient norm :     0.0001739 Eh/α   predicted    -0.1741426E-05 ( -66.45%)
   displ. norm   :     0.0309911 α      lambda       -0.3322074E-05
   maximum displ.:     0.0297968 α      in ANC's #2, #1, #4, ...

........................................................................
.............................. CYCLE   56 ..............................
........................................................................

 iter      E             dE          RMSdq      gap      omega  full diag
   1    -59.5625771 -0.595626E+02  0.656E-03    3.27       0.0  T
   2    -59.5625772 -0.114607E-07  0.385E-03    3.27       4.7  T
   3    -59.5625772 -0.322679E-09  0.547E-04    3.27      32.8  T
   4    -59.5625772 -0.543508E-08  0.280E-04    3.27      64.1  T
     SCC iter.                  ...        0 min,  0.006 sec
     gradient                   ...        0 min,  0.016 sec
 * total energy  :   -58.9619051 Eh     change       -0.4969483E-05 Eh
   gradient norm :     0.0001705 Eh/α   predicted    -0.1663295E-05 ( -66.53%)
   displ. norm   :     0.0301751 α      lambda       -0.3210602E-05
   maximum displ.:     0.0290288 α      in ANC's #2, #3, #1, ...

   *** GEOMETRY OPTIMIZATION CONVERGED AFTER 56 ITERATIONS ***

------------------------------------------------------------------------
 total energy gain   :        -0.0126594 Eh       -7.9439 kcal/mol
 total RMSD          :         0.5663921 a0        0.2997 Å
 total power (kW/mol):        -0.5935228 (step)  -15.3746 (real)
------------------------------------------------------------------------

 ANCopt (total)                0 d,  0 h,  0 min,  2.162 sec
 optimizer setup                ...        0 min,  0.000 sec (  0.003%)
 model hessian                  ...        0 min,  0.032 sec (  1.480%)
 ANC generation                 ...        0 min,  0.003 sec (  0.119%)
 coordinate transformation      ...        0 min,  0.000 sec (  0.012%)
 single point calculation       ...        0 min,  2.117 sec ( 97.905%)
 optimization log               ...        0 min,  0.006 sec (  0.272%)
 hessian update                 ...        0 min,  0.000 sec (  0.023%)
 rational function              ...        0 min,  0.002 sec (  0.110%)

================
 final structure:
================
31
 xtb: 6.7.1 (edcfbbe)
N            4.35829445479849        0.14281578592067        2.25492134413836
C            3.74492102715513        0.03536661394526        1.06823131402497
N            4.47753919591323       -0.29291116673641       -0.00027730587980
C            3.88373817500838       -0.40734869717750       -1.17266930676800
Cl           4.91099401271076       -0.83562344995227       -2.46520853513396
N            2.61614424057708       -0.24366237371468       -1.48487380822344
C            1.87984020206269        0.08586923720264       -0.42076668297203
C            2.36583610678016        0.24262002053067        0.88791170215110
N            1.32732594481178        0.57149591921312        1.72207549726631
C            0.27809468649441        0.60547238026260        0.95947645914438
N            0.54106078082287        0.32280796364811       -0.35489223738668
C           -0.35774093609388        0.24737170066761       -1.48788181277104
C           -0.96231025302550       -1.15387144856610       -1.63512066643811
C           -2.30519209067068       -1.02068534274303       -0.90530264457747
C           -2.65386273551479        0.46315612896309       -1.15347178250627
O           -1.42306940971823        1.14677389441827       -1.34260353135566
C           -3.47885671595352        1.09847867874984       -0.03355669070983
O           -2.88628153491487        0.83026922882371        1.21590338233572
O           -3.29560974657731       -1.90989167012558       -1.32172799466967
H            5.34893910039388       -0.01129866382133        2.30889396807147
H            3.82162320877025        0.40128782042353        3.06248306983890
H           -0.71263879120716        0.83344327729970        1.29833515488454
H            0.24589728338203        0.53369146930719       -2.36017219501796
H           -1.13539510912765       -1.37625924783463       -2.69004022984874
H           -0.31646212451268       -1.92061624482392       -1.21518627733853
H           -2.18812081301379       -1.18924250909167        0.16860694502837
H           -3.24152843265484        0.55006304024809       -2.08352332766218
H           -4.49050356713507        0.67289363804936       -0.07970460273614
H           -3.53068398460020        2.17911335622650       -0.21654404141142
H           -3.41388546673447        1.24167263103415        1.90806814631672
H           -3.40810670822628       -1.84325197034617       -2.27848330979358

 Bond Distances (Angstroems)
 ---------------------------
N1-C2=1.3402         N1-H20=1.0040        N1-H21=1.0035        C2-N1=1.3402         C2-N3=1.3365         C2-C8=1.4062         
N3-C2=1.3365         N3-C4=1.3192         C4-N3=1.3192         C4-Cl5=1.7057        C4-N6=1.3157         Cl5-C4=1.7057        
N6-C4=1.3157         N6-C7=1.3353         C7-N6=1.3353         C7-C8=1.4048         C7-N11=1.3612        C8-C2=1.4062         
C8-C7=1.4048         C8-N9=1.3720         N9-C8=1.3720         N9-C10=1.2975        C10-N9=1.2975        C10-N11=1.3699       
C10-H22=1.0716       N11-C7=1.3612        N11-C10=1.3699       N11-C12=1.4482       C12-N11=1.4482       C12-C13=1.5332       
C12-O16=1.4018       C12-H23=1.0987       C13-C12=1.5332       C13-C14=1.5342       C13-H24=1.0919       C13-H25=1.0869       
C14-C13=1.5342       C14-C15=1.5443       C14-O19=1.3946       C14-H26=1.0933       C15-C14=1.5443       C15-O16=1.4205       
C15-C17=1.5292       C15-H27=1.1036       O16-C12=1.4018       O16-C15=1.4205       C17-C15=1.5292       C17-O18=1.4086       
C17-H28=1.0985       C17-H29=1.0972       O18-C17=1.4086       O18-H30=0.9627       O19-C14=1.3946       O19-H31=0.9656       
H20-N1=1.0040        H21-N1=1.0035        H22-C10=1.0716       H23-C12=1.0987       H24-C13=1.0919       H25-C13=1.0869       
H26-C14=1.0933       H27-C15=1.1036       H28-C17=1.0985       H29-C17=1.0972       H30-O18=0.9627       H31-O19=0.9656       
 C  H  Rav=1.0927 sigma=0.0093  Rmin=1.0716  Rmax=1.1036     8
 C  C  Rav=1.4920 sigma=0.0613  Rmin=1.4048  Rmax=1.5443     6
 N  H  Rav=1.0037 sigma=0.0003  Rmin=1.0035  Rmax=1.0040     2
 N  C  Rav=1.3496 sigma=0.0400  Rmin=1.2975  Rmax=1.4482    10
 O  H  Rav=0.9642 sigma=0.0015  Rmin=0.9627  Rmax=0.9656     2
 O  C  Rav=1.4064 sigma=0.0096  Rmin=1.3946  Rmax=1.4205     4
 Cl C  Rav=1.7057 sigma=0.0000  Rmin=1.7057  Rmax=1.7057     1

 selected bond angles (degree)
 --------------------
H20-N1-C2=119.14               H21-N1-C2=119.24               H21-N1-H20=121.60              N3-C2-N1=118.47                
C8-C2-N1=123.41                C8-C2-N3=118.12                C4-N3-C2=119.02                Cl5-C4-N3=115.10               
N6-C4-N3=129.33                N6-C4-Cl5=115.57               C7-N6-C4=111.89                C8-C7-N6=125.39                
N11-C7-N6=128.60               N11-C7-C8=106.01               C7-C8-C2=116.25                N9-C8-C2=134.40                
N9-C8-C7=109.35                C10-N9-C8=105.13               N11-C10-N9=113.78              H22-C10-N9=124.56              
H22-C10-N11=121.65             

 selected dihedral angles (degree)
 ---------------------------------
N3-C2-N1-H20=  0.92           N3-C2-N1-H21=179.15           C8-C2-N1-H20=180.53           C8-C2-N1-H21=358.76           
C4-N3-C2-N1=179.71            C4-N3-C2-C8=  0.07            Cl5-C4-N3-C2=180.23           N6-C4-N3-C2=359.95            
C7-N6-C4-N3=  0.11            C7-N6-C4-Cl5=179.83           C8-C7-N6-C4=359.79            N11-C7-N6-C4=180.54           
C7-C8-C2-N1=180.23            C7-C8-C2-N3=359.84            N9-C8-C2-N1=359.88            N9-C8-C2-N3=179.49            
C2-C8-C7-N6=  0.24            C2-C8-C7-N11=179.63           N9-C8-C7-N6=180.51            N9-C8-C7-N11=359.90           
[...]
     |                    University of Bonn                     |     
      -----------------------------------------------------------      

   * xtb version 6.7.1 (edcfbbe) compiled by 'conda@3ef47c1a292c' on 2024-11-25

   xtb is free software: you can redistribute it and/or modify it under
   the terms of the GNU Lesser General Public License as published by
   the Free Software Foundation, either version 3 of the License, or
   (at your option) any later version.
   
   xtb is distributed in the hope that it will be useful,
   but WITHOUT ANY WARRANTY; without even the implied warranty of
   MERCHANTABILITY or FITNESS FOR A PARTICULAR PURPOSE.  See the
   GNU Lesser General Public License for more details.
   
   Cite this work as:
   * C. Bannwarth, E. Caldeweyher, S. Ehlert, A. Hansen, P. Pracht,
     J. Seibert, S. Spicher, S. Grimme, WIREs Comput. Mol. Sci., 2020, 11,
     e01493. DOI: 10.1002/wcms.1493
   
   for GFN2-xTB:
   * C. Bannwarth, S. Ehlert and S. Grimme., J. Chem. Theory Comput., 2019,
     15, 1652-1671. DOI: 10.1021/acs.jctc.8b01176
   for GFN1-xTB:
   * S. Grimme, C. Bannwarth, P. Shushkov, J. Chem. Theory Comput., 2017,
     13, 1989-2009. DOI: 10.1021/acs.jctc.7b00118
   for GFN0-xTB:
   * P. Pracht, E. Caldeweyher, S. Ehlert, S. Grimme, ChemRxiv, 2019, preprint.
     DOI: 10.26434/chemrxiv.8326202.v1
   for GFN-FF:
   * S. Spicher and S. Grimme, Angew. Chem. Int. Ed., 2020, 59, 15665-15673.
     DOI: 10.1002/anie.202004239
   
   for ALPB and GBSA implicit solvation:
   * S. Ehlert, M. Stahn, S. Spicher, S. Grimme, J. Chem. Theory Comput.,
     2021, 17, 4250-4261. DOI: 10.1021/acs.jctc.1c00471
   
   for ddCOSMO and CPCM-X implicit solvation:
   * M. Stahn, S. Ehlert, S. Grimme, J. Phys. Chem. A,
     2023, XX, XXXX-XXXX. DOI: 10.1021/acs.jpca.3c04382
   
   for DFT-D4:
   * E. Caldeweyher, C. Bannwarth and S. Grimme, J. Chem. Phys., 2017,
     147, 034112. DOI: 10.1063/1.4993215
   * E. Caldeweyher, S. Ehlert, A. Hansen, H. Neugebauer, S. Spicher,
     C. Bannwarth and S. Grimme, J. Chem. Phys., 2019, 150, 154122.
     DOI: 10.1063/1.5090222
   * E. Caldeweyher, J.-M. Mewes, S. Ehlert and S. Grimme, Phys. Chem. Chem. Phys.
     2020, 22, 8499-8512. DOI: 10.1039/D0CP00502A
   
   for sTDA-xTB:
   * S. Grimme and C. Bannwarth, J. Chem. Phys., 2016, 145, 054103.
     DOI: 10.1063/1.4959605
   
   in the mass-spec context:
   * V. Asgeirsson, C. Bauer and S. Grimme, Chem. Sci., 2017, 8, 4879.
     DOI: 10.1039/c7sc00601b
   * J. Koopman and S. Grimme, ACS Omega 2019, 4, 12, 15120-15133.
     DOI: 10.1021/acsomega.9b02011
   
   for metadynamics refer to:
   * S. Grimme, J. Chem. Theory Comput., 2019, 155, 2847-2862
     DOI: 10.1021/acs.jctc.9b00143
   
   for SPH calculations refer to:
   * S. Spicher and S. Grimme, J. Chem. Theory Comput., 2021, 17, 1701-1714
     DOI: 10.1021/acs.jctc.0c01306
   
   for ONIOM refer to:
   * C. Plett, A. Katbashev, S. Ehlert, S. Grimme, M. Bursch,
     Phys. Chem. Chem. Phys., 2023, 25, 17860-17868. DOI: 10.1039/D3CP02178E
   
   for DIPRO refer to:
   * J. Kohn, N. Gildemeister, S. Grimme, D. Fazzi, A. Hansen,
     J. Chem. Phys., 2023, just accepted.
   
   for PTB refer to:
   * S. Grimme, M. Mueller, A. Hansen, J. Chem. Phys., 2023, 158, 124111.
     DOI: 10.1063/5.0137838
   
   with help from (in alphabetical order)
   P. Atkinson, C. Bannwarth, F. Bohle, G. Brandenburg, E. Caldeweyher
   M. Checinski, S. Dohm, S. Ehlert, S. Ehrlich, I. Gerasimov, C. Hölzer
   A. Katbashev, J. Kohn, J. Koopman, C. Lavigne, S. Lehtola, F. März, M. Müller,
   F. Musil, H. Neugebauer, J. Pisarek, C. Plett, P. Pracht, F. Pultar,
   J. Seibert, P. Shushkov, S. Spicher, M. Stahn, M. Steiner, T. Strunk,
   J. Stückrath, T. Rose, and J. Unsleber
   
 * started run on 2025/05/15 at 16:20:52.363     
   ID    Z sym.   atoms
    1    7 N      1, 3, 6, 9, 11
    2    6 C      2, 4, 7, 8, 10, 12-15, 17
    3   17 Cl     5
    4    8 O      16, 18, 19
    5    1 H      20-31

           -------------------------------------------------
          |                Calculation Setup                |
           -------------------------------------------------

          program call               : xtb /rds/general/user/hgt20/home/callum/QDESCP/Cladribine_rdkit_conf_21/Cladribine_rdkit_conf_21.xyz --acc 1 --gfn 2 --chrg 0 --uhf 2 --etemp 300 --input /rds/general/user/hgt20/home/callum/QDESCP/Cladribine_rdkit_conf_21/Cladribine_rdkit_conf_21_xtb.inp -P 1
          hostname                   : login-c
          coordinate file            : /rds/general/user/hgt20/home/callum/QDESCP/Cladribine_rdkit_conf_21/Cladribine_rdkit_conf_21.xyz
          omp threads                :                     1


           -------------------------------------------------
          |                 G F N 2 - x T B                 |
           -------------------------------------------------

        Reference                      10.1021/acs.jctc.8b01176
      * Hamiltonian:
        H0-scaling (s, p, d)           1.850000    2.230000    2.230000
        zeta-weighting                 0.500000
      * Dispersion:
        s8                             2.700000
        a1                             0.520000
        a2                             5.000000
        s9                             5.000000
      * Repulsion:
        kExp                           1.500000    1.000000
        rExp                           1.000000
      * Coulomb:
        alpha                          2.000000
        third order                    shell-resolved
        anisotropic                    true
        a3                             3.000000
        a5                             4.000000
        cn-shift                       1.200000
        cn-exp                         4.000000
        max-rad                        5.000000


          ...................................................
          :                      SETUP                      :
          :.................................................:
          :  # basis functions                  94          :
          :  # atomic orbitals                  93          :
          :  # shells                           51          :
          :  # electrons                       102          :
          :  max. iterations                   250          :
          :  Hamiltonian                  GFN2-xTB          :
          :  restarted?                      false          :
          :  GBSA solvation                  false          :
          :  PC potential                    false          :
          :  electronic temp.          300.0000000     K    :
          :  accuracy                    1.0000000          :
          :  -> integral cutoff          0.2500000E+02      :
          :  -> integral neglect         0.1000000E-07      :
          :  -> SCF convergence          0.1000000E-05 Eh   :
          :  -> wf. convergence          0.1000000E-03 e    :
          :  Broyden damping             0.4000000          :
          :  net charge                          0          :
          :  unpaired electrons                  2          :
          ...................................................

 iter      E             dE          RMSdq      gap      omega  full diag
   1    -59.1755998 -0.591756E+02  0.459E+00    0.36       0.0  T
   2    -59.3293407 -0.153741E+00  0.308E+00    0.83       1.0  T
   3    -59.3646830 -0.353423E-01  0.214E+00    0.57       1.0  T
   4    -59.3114588  0.532242E-01  0.175E+00    0.72       1.0  T
   5    -59.3781174 -0.666586E-01  0.116E+00    0.32       1.0  T
   6    -59.4258760 -0.477586E-01  0.533E-01    0.38       1.0  T
   7    -59.4301960 -0.431999E-02  0.239E-01    0.38       1.0  T
   8    -59.4319250 -0.172899E-02  0.137E-01    0.39       1.0  T
   9    -59.4322599 -0.334885E-03  0.853E-02    0.38       1.0  T
  10    -59.4323062 -0.462905E-04  0.571E-02    0.38       1.0  T
  11    -59.4323724 -0.662383E-04  0.317E-02    0.38       1.0  T
  12    -59.4323735 -0.108444E-05  0.295E-02    0.38       1.0  T
  13    -59.4323861 -0.125482E-04  0.171E-02    0.38       1.1  T
  14    -59.4323892 -0.311631E-05  0.102E-02    0.38       1.8  T
  15    -59.4323908 -0.163746E-05  0.350E-03    0.38       5.1  T
  16    -59.4323910 -0.210003E-06  0.223E-03    0.38       8.1  T
  17    -59.4323911 -0.101889E-06  0.799E-04    0.38      22.5  T
  18    -59.4323911 -0.955443E-08  0.381E-04    0.38      47.2  T

   *** convergence criteria satisfied after 18 iterations ***

         #    Occupation            Energy/Eh            Energy/eV
      -------------------------------------------------------------
         1        2.0000           -1.0476471             -28.5079
       ...           ...                  ...                  ...
        46        2.0000           -0.4208423             -11.4517
        47        2.0000           -0.4166539             -11.3377
        48        2.0000           -0.4143269             -11.2744
        49        2.0000           -0.4046553             -11.0112
        50        1.5453           -0.3840808             -10.4514
        51        1.4547           -0.3837358             -10.4420
        52        0.9994           -0.2459450              -6.6925 (HOMO)
        53        0.0006           -0.2318956              -6.3102 (LUMO)
        54                         -0.1938593              -5.2752
        55                         -0.1287931              -3.5046
        56                         -0.1024915              -2.7889
        57                         -0.0290524              -0.7906
       ...                                ...                  ...
        93                          0.6533357              17.7782
      -------------------------------------------------------------
                  HL-Gap            0.0140495 Eh            0.3823 eV
             Fermi-level           -0.3114143 Eh           -8.4740 eV

 transition dipole moment (au) for excitation:          51          52
     X       Y       Z   
   0.3106  -0.0125   0.0942  total (au/Debye):    0.325   0.826
 dE (eV)             :    3.749
 oscillator strength :  0.13703E-01

 SCC (total)                   0 d,  0 h,  0 min,  0.054 sec
 SCC setup                      ...        0 min,  0.000 sec (  0.489%)
 Dispersion                     ...        0 min,  0.000 sec (  0.474%)
 classical contributions        ...        0 min,  0.000 sec (  0.156%)
 integral evaluation            ...        0 min,  0.006 sec ( 10.562%)
 iterations                     ...        0 min,  0.028 sec ( 50.640%)
 molecular gradient             ...        0 min,  0.015 sec ( 27.202%)
 printout                       ...        0 min,  0.006 sec ( 10.464%)

         :::::::::::::::::::::::::::::::::::::::::::::::::::::
         ::                     SUMMARY                     ::
         :::::::::::::::::::::::::::::::::::::::::::::::::::::
         :: total energy             -58.831719101453 Eh    ::
         :: gradient norm              0.130121704540 Eh/a0 ::
         :: HOMO-LUMO gap              0.382305299352 eV    ::
         ::.................................................::
         :: SCC energy               -59.432304430034 Eh    ::
         :: -> isotropic ES            0.104425569267 Eh    ::
         :: -> anisotropic ES         -0.000323904247 Eh    ::
         :: -> anisotropic XC          0.009858661015 Eh    ::
         :: -> dispersion             -0.033818270100 Eh    ::
         :: repulsion energy           0.600585328582 Eh    ::
         :: add. restraining           0.000000000000 Eh    ::
         :: total charge               0.000000000328 e     ::
         :::::::::::::::::::::::::::::::::::::::::::::::::::::

           -------------------------------------------------
          |                Property Printout                |
           -------------------------------------------------

    * Orbital Energies and Occupations

         #    Occupation            Energy/Eh            Energy/eV
      -------------------------------------------------------------
         1        2.0000           -1.0476471             -28.5079
       ...           ...                  ...                  ...
        40        2.0000           -0.4621702             -12.5763
        41        2.0000           -0.4462580             -12.1433
        42        2.0000           -0.4394092             -11.9569
        43        2.0000           -0.4377787             -11.9126
        44        2.0000           -0.4305744             -11.7165
        45        2.0000           -0.4293900             -11.6843
        46        2.0000           -0.4208423             -11.4517
        47        2.0000           -0.4166539             -11.3377
        48        2.0000           -0.4143269             -11.2744
        49        2.0000           -0.4046553             -11.0112
        50        1.5453           -0.3840808             -10.4514
        51        1.4547           -0.3837358             -10.4420
        52        0.9994           -0.2459450              -6.6925 (HOMO)
        53        0.0006           -0.2318956              -6.3102 (LUMO)
        54                         -0.1938593              -5.2752
        55                         -0.1287931              -3.5046
        56                         -0.1024915              -2.7889
        57                         -0.0290524              -0.7906
        58                         -0.0091324              -0.2485
        59                          0.0085577               0.2329
        60                          0.0112327               0.3057
        61                          0.0244495               0.6653
        62                          0.0260493               0.7088
        63                          0.0261907               0.7127
       ...                                ...                  ...
        93                          0.6533357              17.7782
      -------------------------------------------------------------
                  HL-Gap            0.0140495 Eh            0.3823 eV
             Fermi-level           -0.3114143 Eh           -8.4740 eV

     #   Z          covCN         q      C6AA      α(0)
     1   7 N        2.647    -0.229    26.022     7.576
     2   6 C        2.882     0.119    25.390     8.261
     3   7 N        1.928    -0.261    27.628     7.794
     4   6 C        2.920     0.227    23.241     7.906
     5  17 Cl       1.051    -0.125   103.080    15.533
     6   7 N        1.907    -0.286    28.270     7.883
     7   6 C        3.178     0.139    24.593     8.097
     8   6 C        3.217     0.031    26.630     8.394
     9   7 N        1.885    -0.247    27.300     7.746
    10   6 C        3.175     0.071    26.023     8.331
    11   7 N        2.828    -0.068    22.553     7.053
    12   6 C        3.719     0.175    17.902     6.043
    13   6 C        3.820    -0.087    22.139     6.696
    14   6 C        3.742     0.105    18.919     6.205
    15   6 C        3.778     0.098    18.992     6.209
    16   8 O        1.702    -0.309    19.155     5.909
    17   6 C        3.673     0.077    19.524     6.332
    18   8 O        1.656    -0.434    21.524     6.263
    19   8 O        1.656    -0.428    21.401     6.245
    20   1 H        0.860     0.199     1.112     1.652
    21   1 H        0.861     0.196     1.124     1.661
    22   1 H        0.926     0.077     2.008     2.216
    23   1 H        0.923     0.065     2.141     2.288
    24   1 H        0.924     0.053     2.283     2.363
    25   1 H        0.925     0.062     2.177     2.307
    26   1 H        0.924     0.078     2.001     2.212
    27   1 H        0.923     0.030     2.581     2.512
    28   1 H        0.923     0.036     2.503     2.474
    29   1 H        0.924     0.043     2.409     2.427
    30   1 H        0.805     0.300     0.721     1.334
    31   1 H        0.805     0.293     0.742     1.353

 Mol. C6AA /au·bohr⁶  :      12591.517143
 Mol. C8AA /au·bohr⁸  :     307960.547466
 Mol. α(0) /au        :        169.274070


Wiberg/Mayer (AO) data.
largest (>0.10) Wiberg bond orders for each atom

 ---------------------------------------------------------------------------
     #   Z sym  total        # sym  WBO       # sym  WBO       # sym  WBO
 ---------------------------------------------------------------------------
     1   7 N    3.268 --     2 C    1.218    21 H    0.945    20 H    0.942
     2   6 C    3.861 --     3 N    1.281     1 N    1.218     8 C    1.092
     3   7 N    3.042 --     4 C    1.405     2 C    1.281
     4   6 C    3.841 --     3 N    1.405     6 N    1.200     5 Cl   0.987
     5  17 Cl   1.143 --     4 C    0.987
     6   7 N    2.869 --     7 C    1.290     4 C    1.200
     7   6 C    3.901 --     6 N    1.290     8 C    1.217    11 N    1.185
     8   6 C    3.830 --     9 N    1.308     7 C    1.217     2 C    1.092
     9   7 N    3.008 --    10 C    1.393     8 C    1.308
    10   6 C    3.799 --     9 N    1.393    11 N    1.161    22 H    0.952
    11   7 N    3.579 --     7 C    1.185    10 C    1.161    12 C    0.959
    12   6 C    3.943 --    16 O    0.992    13 C    0.975    11 N    0.959
                            23 H    0.951
    13   6 C    3.991 --    14 C    0.982    25 H    0.976    12 C    0.975
                            24 H    0.973
    14   6 C    3.955 --    19 O    1.013    13 C    0.982    15 C    0.959
                            26 H    0.956
    15   6 C    3.948 --    17 C    0.989    16 O    0.965    14 C    0.959
                            27 H    0.957
    16   8 O    2.094 --    12 C    0.992    15 C    0.965
    17   6 C    3.961 --    18 O    1.000    15 C    0.989    28 H    0.968
                            29 H    0.968
    18   8 O    1.965 --    17 C    1.000    30 H    0.895
    19   8 O    1.985 --    14 C    1.013    31 H    0.893
    20   1 H    0.958 --     1 N    0.942
    21   1 H    0.961 --     1 N    0.945
    22   1 H    0.993 --    10 C    0.952
    23   1 H    0.995 --    12 C    0.951
    24   1 H    0.997 --    13 C    0.973
    25   1 H    0.996 --    13 C    0.976
    26   1 H    0.994 --    14 C    0.956
    27   1 H    0.999 --    15 C    0.957
    28   1 H    0.999 --    17 C    0.968
    29   1 H    0.998 --    17 C    0.968
    30   1 H    0.910 --    18 O    0.895
    31   1 H    0.914 --    19 O    0.893
 ---------------------------------------------------------------------------

Topologies differ in total number of bonds
Writing topology from bond orders to xtbtopo.mol

molecular dipole:
                 x           y           z       tot (Debye)
 q only:       -1.457       0.293       0.884
   full:       -1.885       0.527       0.743       5.321
molecular quadrupole (traceless):
                xx          xy          yy          xz          yz          zz
 q only:        1.345      -1.984      -7.044      22.323       3.771       5.698
  q+dip:       -1.206      -3.493      -5.828      26.308       3.187       7.034
   full:       -1.441      -3.090      -4.778      25.936       3.239       6.219


           -------------------------------------------------
          | TOTAL ENERGY              -58.831719101453 Eh   |
          | GRADIENT NORM               0.130121704540 Eh/α |
          | HOMO-LUMO GAP               0.382305299352 eV   |
           -------------------------------------------------

------------------------------------------------------------------------
 * finished run on 2025/05/15 at 16:20:52.441     
------------------------------------------------------------------------
 total:
 * wall-time:     0 d,  0 h,  0 min,  0.078 sec
 *  cpu-time:     0 d,  0 h,  0 min,  0.063 sec
 * ratio c/w:     0.815 speedup
 SCF:
 * wall-time:     0 d,  0 h,  0 min,  0.054 sec
 *  cpu-time:     0 d,  0 h,  0 min,  0.054 sec
 * ratio c/w:     0.995 speedup


