31
 energy: -58.961905112133 gnorm: 0.000170943536 xtb: 6.7.1 (edcfbbe)
N            4.35829445479849        0.14281578592067        2.25492134413836
C            3.74492102715513        0.03536661394526        1.06823131402497
N            4.47753919591323       -0.29291116673641       -0.00027730587980
C            3.88373817500838       -0.40734869717750       -1.17266930676800
Cl           4.91099401271076       -0.83562344995227       -2.46520853513396
N            2.61614424057708       -0.24366237371468       -1.48487380822344
C            1.87984020206269        0.08586923720264       -0.42076668297203
C            2.36583610678016        0.24262002053067        0.88791170215110
N            1.32732594481178        0.57149591921312        1.72207549726631
C            0.27809468649441        0.60547238026260        0.95947645914438
N            0.54106078082287        0.32280796364811       -0.35489223738668
C           -0.35774093609388        0.24737170066761       -1.48788181277104
C           -0.96231025302550       -1.15387144856610       -1.63512066643811
C           -2.30519209067068       -1.02068534274303       -0.90530264457747
C           -2.65386273551479        0.46315612896309       -1.15347178250627
O           -1.42306940971823        1.14677389441827       -1.34260353135566
C           -3.47885671595352        1.09847867874984       -0.03355669070983
O           -2.88628153491487        0.83026922882371        1.21590338233572
O           -3.29560974657731       -1.90989167012558       -1.32172799466967
H            5.34893910039388       -0.01129866382133        2.30889396807147
H            3.82162320877025        0.40128782042353        3.06248306983890
H           -0.71263879120716        0.83344327729970        1.29833515488454
H            0.24589728338203        0.53369146930719       -2.36017219501796
H           -1.13539510912765       -1.37625924783463       -2.69004022984874
H           -0.31646212451268       -1.92061624482392       -1.21518627733853
H           -2.18812081301379       -1.18924250909167        0.16860694502837
H           -3.24152843265484        0.55006304024809       -2.08352332766218
H           -4.49050356713507        0.67289363804936       -0.07970460273614
H           -3.53068398460020        2.17911335622650       -0.21654404141142
H           -3.41388546673447        1.24167263103415        1.90806814631672
H           -3.40810670822628       -1.84325197034617       -2.27848330979358
