----- Optimization -----
      -----------------------------------------------------------      
     |                   =====================                   |     
     |                           x T B                           |     
     |                   =====================                   |     
     |                         S. Grimme                         |     
     |          Mulliken Center for Theoretical Chemistry        |     
     |                    University of Bonn                     |     
      -----------------------------------------------------------      

   * xtb version 6.7.1 (edcfbbe) compiled by 'conda@3ef47c1a292c' on 2024-11-25

   xtb is free software: you can redistribute it and/or modify it under
   the terms of the GNU Lesser General Public License as published by
   the Free Software Foundation, either version 3 of the License, or
   (at your option) any later version.
   
   xtb is distributed in the hope that it will be useful,
   but WITHOUT ANY WARRANTY; without even the implied warranty of
   MERCHANTABILITY or FITNESS FOR A PARTICULAR PURPOSE.  See the
   GNU Lesser General Public License for more details.
   
   Cite this work as:
   * C. Bannwarth, E. Caldeweyher, S. Ehlert, A. Hansen, P. Pracht,
     J. Seibert, S. Spicher, S. Grimme, WIREs Comput. Mol. Sci., 2020, 11,
     e01493. DOI: 10.1002/wcms.1493
   
   for GFN2-xTB:
   * C. Bannwarth, S. Ehlert and S. Grimme., J. Chem. Theory Comput., 2019,
     15, 1652-1671. DOI: 10.1021/acs.jctc.8b01176
   for GFN1-xTB:
   * S. Grimme, C. Bannwarth, P. Shushkov, J. Chem. Theory Comput., 2017,
     13, 1989-2009. DOI: 10.1021/acs.jctc.7b00118
   for GFN0-xTB:
   * P. Pracht, E. Caldeweyher, S. Ehlert, S. Grimme, ChemRxiv, 2019, preprint.
     DOI: 10.26434/chemrxiv.8326202.v1
   for GFN-FF:
   * S. Spicher and S. Grimme, Angew. Chem. Int. Ed., 2020, 59, 15665-15673.
     DOI: 10.1002/anie.202004239
   
   for ALPB and GBSA implicit solvation:
   * S. Ehlert, M. Stahn, S. Spicher, S. Grimme, J. Chem. Theory Comput.,
     2021, 17, 4250-4261. DOI: 10.1021/acs.jctc.1c00471
   
   for ddCOSMO and CPCM-X implicit solvation:
   * M. Stahn, S. Ehlert, S. Grimme, J. Phys. Chem. A,
     2023, XX, XXXX-XXXX. DOI: 10.1021/acs.jpca.3c04382
   
   for DFT-D4:
   * E. Caldeweyher, C. Bannwarth and S. Grimme, J. Chem. Phys., 2017,
     147, 034112. DOI: 10.1063/1.4993215
   * E. Caldeweyher, S. Ehlert, A. Hansen, H. Neugebauer, S. Spicher,
     C. Bannwarth and S. Grimme, J. Chem. Phys., 2019, 150, 154122.
     DOI: 10.1063/1.5090222
   * E. Caldeweyher, J.-M. Mewes, S. Ehlert and S. Grimme, Phys. Chem. Chem. Phys.
     2020, 22, 8499-8512. DOI: 10.1039/D0CP00502A
   
   for sTDA-xTB:
   * S. Grimme and C. Bannwarth, J. Chem. Phys., 2016, 145, 054103.
     DOI: 10.1063/1.4959605
   
   in the mass-spec context:
   * V. Asgeirsson, C. Bauer and S. Grimme, Chem. Sci., 2017, 8, 4879.
     DOI: 10.1039/c7sc00601b
   * J. Koopman and S. Grimme, ACS Omega 2019, 4, 12, 15120-15133.
     DOI: 10.1021/acsomega.9b02011
   
   for metadynamics refer to:
   * S. Grimme, J. Chem. Theory Comput., 2019, 155, 2847-2862
     DOI: 10.1021/acs.jctc.9b00143
   
   for SPH calculations refer to:
   * S. Spicher and S. Grimme, J. Chem. Theory Comput., 2021, 17, 1701-1714
     DOI: 10.1021/acs.jctc.0c01306
   
   for ONIOM refer to:
   * C. Plett, A. Katbashev, S. Ehlert, S. Grimme, M. Bursch,
     Phys. Chem. Chem. Phys., 2023, 25, 17860-17868. DOI: 10.1039/D3CP02178E
   
   for DIPRO refer to:
   * J. Kohn, N. Gildemeister, S. Grimme, D. Fazzi, A. Hansen,
     J. Chem. Phys., 2023, just accepted.
   
   for PTB refer to:
   * S. Grimme, M. Mueller, A. Hansen, J. Chem. Phys., 2023, 158, 124111.
     DOI: 10.1063/5.0137838
   
   with help from (in alphabetical order)
   P. Atkinson, C. Bannwarth, F. Bohle, G. Brandenburg, E. Caldeweyher
   M. Checinski, S. Dohm, S. Ehlert, S. Ehrlich, I. Gerasimov, C. Hölzer
   A. Katbashev, J. Kohn, J. Koopman, C. Lavigne, S. Lehtola, F. März, M. Müller,
   F. Musil, H. Neugebauer, J. Pisarek, C. Plett, P. Pracht, F. Pultar,
   J. Seibert, P. Shushkov, S. Spicher, M. Stahn, M. Steiner, T. Strunk,
   J. Stückrath, T. Rose, and J. Unsleber
   
 * started run on 2025/05/15 at 16:26:27.379     
   ID    Z sym.   atoms
    1    8 O      1, 14
    2    6 C      2-5, 7-12, 15-19, 21, 22, 24, 26-30
    3    7 N      6, 13, 23, 25
    4    9 F      20
    5    1 H      31-57

           -------------------------------------------------
          |                Calculation Setup                |
           -------------------------------------------------

          program call               : xtb /rds/general/user/hgt20/home/callum/QDESCP/Risperidone_rdkit_conf_18/Risperidone_rdkit_conf_18.xyz --opt normal --acc 1 --gfn 2 --chrg 0 --uhf 0 -P 1
          hostname                   : login-c
          coordinate file            : /rds/general/user/hgt20/home/callum/QDESCP/Risperidone_rdkit_conf_18/Risperidone_rdkit_conf_18.xyz
          omp threads                :                     1


           -------------------------------------------------
          |                 G F N 2 - x T B                 |
           -------------------------------------------------

        Reference                      10.1021/acs.jctc.8b01176
      * Hamiltonian:
        H0-scaling (s, p, d)           1.850000    2.230000    2.230000
        zeta-weighting                 0.500000
      * Dispersion:
        s8                             2.700000
        a1                             0.520000
        a2                             5.000000
        s9                             5.000000
      * Repulsion:
        kExp                           1.500000    1.000000
        rExp                           1.000000
      * Coulomb:
        alpha                          2.000000
        third order                    shell-resolved
        anisotropic                    true
        a3                             3.000000
        a5                             4.000000
        cn-shift                       1.200000
        cn-exp                         4.000000
        max-rad                        5.000000


          ...................................................
          :                      SETUP                      :
          :.................................................:
          :  # basis functions                 147          :
          :  # atomic orbitals                 147          :
          :  # shells                           87          :
          :  # electrons                       158          :
          :  max. iterations                   250          :
          :  Hamiltonian                  GFN2-xTB          :
          :  restarted?                      false          :
          :  GBSA solvation                  false          :
          :  PC potential                    false          :
          :  electronic temp.          300.0000000     K    :
          :  accuracy                    1.0000000          :
          :  -> integral cutoff          0.2500000E+02      :
          :  -> integral neglect         0.1000000E-07      :
          :  -> SCF convergence          0.1000000E-05 Eh   :
          :  -> wf. convergence          0.1000000E-03 e    :
          :  Broyden damping             0.4000000          :
          :  net charge                          0          :
          :  unpaired electrons                  0          :
          ...................................................

 iter      E             dE          RMSdq      gap      omega  full diag
   1    -88.5828324 -0.885828E+02  0.373E+00    2.87       0.0  T
   2    -88.7095722 -0.126740E+00  0.227E+00    2.33       1.0  T
   3    -88.7122028 -0.263063E-02  0.122E+00    1.84       1.0  T
   4    -88.7294451 -0.172422E-01  0.423E-01    1.44       1.0  T
   5    -88.7352180 -0.577295E-02  0.115E-01    1.39       1.0  T
   6    -88.7354708 -0.252778E-03  0.612E-02    1.42       1.0  T
   7    -88.7355536 -0.828339E-04  0.243E-02    1.44       1.0  T
   8    -88.7355580 -0.439704E-05  0.955E-03    1.45       1.4  T
   9    -88.7355597 -0.171168E-05  0.396E-03    1.45       3.3  T
  10    -88.7355600 -0.242795E-06  0.129E-03    1.45      10.3  T
  11    -88.7355600 -0.167489E-07  0.754E-04    1.45      17.6  T
  12    -88.7355600 -0.108677E-07  0.319E-04    1.45      41.5  T

   *** convergence criteria satisfied after 12 iterations ***

         #    Occupation            Energy/Eh            Energy/eV
      -------------------------------------------------------------
         1        2.0000           -0.8296774             -22.5767
       ...           ...                  ...                  ...
        73        2.0000           -0.4168122             -11.3420
        74        2.0000           -0.4119145             -11.2088
        75        2.0000           -0.4086879             -11.1210
        76        2.0000           -0.3854077             -10.4875
        77        2.0000           -0.3815865             -10.3835
        78        2.0000           -0.3801813             -10.3453
        79        2.0000           -0.3377888              -9.1917 (HOMO)
        80                         -0.2845634              -7.7434 (LUMO)
        81                         -0.2485315              -6.7629
        82                         -0.2422621              -6.5923
        83                         -0.2230672              -6.0700
        84                         -0.2082214              -5.6660
       ...                                ...                  ...
       147                          0.6970540              18.9678
      -------------------------------------------------------------
                  HL-Gap            0.0532253 Eh            1.4483 eV
             Fermi-level           -0.3111761 Eh           -8.4675 eV

 SCC (total)                   0 d,  0 h,  0 min,  0.142 sec
 SCC setup                      ...        0 min,  0.001 sec (  0.412%)
 Dispersion                     ...        0 min,  0.001 sec (  0.608%)
 classical contributions        ...        0 min,  0.000 sec (  0.182%)
 integral evaluation            ...        0 min,  0.012 sec (  8.139%)
 iterations                     ...        0 min,  0.089 sec ( 62.598%)
 molecular gradient             ...        0 min,  0.040 sec ( 27.839%)
 printout                       ...        0 min,  0.000 sec (  0.216%)

         :::::::::::::::::::::::::::::::::::::::::::::::::::::
         ::                     SUMMARY                     ::
         :::::::::::::::::::::::::::::::::::::::::::::::::::::
         :: total energy             -87.627812331571 Eh    ::
         :: gradient norm              0.109220664486 Eh/a0 ::
         :: HOMO-LUMO gap              1.448335240428 eV    ::
         ::.................................................::
         :: SCC energy               -88.735539739650 Eh    ::
         :: -> isotropic ES            0.080467947190 Eh    ::
         :: -> anisotropic ES          0.008652516916 Eh    ::
         :: -> anisotropic XC          0.041239501302 Eh    ::
         :: -> dispersion             -0.062018192613 Eh    ::
         :: repulsion energy           1.107727408079 Eh    ::
         :: add. restraining           0.000000000000 Eh    ::
         :: total charge               0.000000000000 e     ::
         :::::::::::::::::::::::::::::::::::::::::::::::::::::

      ----------------------------------------------------------- 
     |                   =====================                   |
     |                        A N C O P T                        |
     |                   =====================                   |
     |               Approximate Normal Coordinate               |
     |                Rational Function Optimizer                |
      ----------------------------------------------------------- 
      ----------------------------------------------------------- 
     |                   =====================                   |
     |                        A N C O P T                        |
     |                   =====================                   |
     |               Approximate Normal Coordinate               |
     |                Rational Function Optimizer                |
      ----------------------------------------------------------- 

          ...................................................
          :                      SETUP                      :
          :.................................................:
          :   optimization level            normal          :
          :   max. optcycles                   200          :
          :   ANC micro-cycles                  20          :
          :   degrees of freedom               165          :
          :.................................................:
          :   RF solver                   davidson          :
          :   write xtbopt.log                true          :
          :   linear?                        false          :
          :   energy convergence         0.5000000E-05 Eh   :
          :   grad. convergence          0.1000000E-02 Eh/α :
          :   maxmium RF displ.          1.0000000          :
          :   Hlow (freq-cutoff)         0.1000000E-01      :
          :   Hmax (freq-cutoff)         5.0000000          :
          :   S6 in model hess.         20.0000000          :
          ...................................................

generating ANC from exact Hessian ...
Using Lindh-Hessian (1995)
 Shifting diagonal of input Hessian by    9.8659086863278466E-003
 Lowest  eigenvalues of input Hessian
    0.000000    0.000000    0.000000    0.000000    0.000000    0.000000
    0.010000    0.010108    0.010287    0.010573    0.010726    0.011433
    0.011967    0.012561    0.012956    0.013369    0.015542    0.016811
 Highest eigenvalues
    1.921337    1.940894    2.069406    2.168796    2.186236    2.330942


........................................................................
.............................. CYCLE    1 ..............................
........................................................................

 iter      E             dE          RMSdq      gap      omega  full diag
   1    -88.7355600 -0.887356E+02  0.128E-04    1.45       0.0  T
   2    -88.7355600 -0.150038E-09  0.889E-05    1.45     148.9  T
   3    -88.7355600 -0.193666E-09  0.505E-05    1.45     262.5  T
     SCC iter.                  ...        0 min,  0.063 sec
     gradient                   ...        0 min,  0.040 sec
 * total energy  :   -87.6278123 Eh     change       -0.2412833E-08 Eh
   gradient norm :     0.1092211 Eh/α   predicted     0.0000000E+00 (-100.00%)
   displ. norm   :     0.3129700 α      lambda       -0.1575810E-01
   maximum displ.:     0.1347151 α      in ANC's #54, #10, #30, ...

........................................................................
.............................. CYCLE    2 ..............................
........................................................................

 iter      E             dE          RMSdq      gap      omega  full diag
   1    -88.7726649 -0.887727E+02  0.204E-01    1.55       0.0  T
   2    -88.7727619 -0.969510E-04  0.119E-01    1.59       1.0  T
   3    -88.7727187  0.431670E-04  0.434E-02    1.59       1.0  T
   4    -88.7727736 -0.549060E-04  0.116E-02    1.59       1.1  T
   5    -88.7727795 -0.588727E-05  0.383E-03    1.59       3.5  T
   6    -88.7727798 -0.294232E-06  0.171E-03    1.59       7.7  T
   7    -88.7727798 -0.258121E-07  0.663E-04    1.59      20.0  T
   8    -88.7727798 -0.740312E-08  0.234E-04    1.59      56.6  T
     SCC iter.                  ...        0 min,  0.069 sec
     gradient                   ...        0 min,  0.039 sec
 * total energy  :   -87.6386805 Eh     change       -0.1086815E-01 Eh
   gradient norm :     0.0483344 Eh/α   predicted    -0.8657128E-02 ( -20.34%)
   displ. norm   :     0.3169229 α      lambda       -0.5188758E-02
   maximum displ.:     0.1606769 α      in ANC's #10, #12, #21, ...

........................................................................
.............................. CYCLE    3 ..............................
........................................................................

 iter      E             dE          RMSdq      gap      omega  full diag
   1    -88.7935032 -0.887935E+02  0.122E-01    1.64       0.0  T
   2    -88.7935611 -0.578997E-04  0.719E-02    1.66       1.0  T
   3    -88.7935316  0.295563E-04  0.412E-02    1.66       1.0  T
   4    -88.7935763 -0.446847E-04  0.897E-03    1.66       1.5  T
   5    -88.7935803 -0.400574E-05  0.229E-03    1.66       5.8  T
   6    -88.7935804 -0.887958E-07  0.993E-04    1.66      13.3  T
   7    -88.7935804 -0.857393E-08  0.388E-04    1.66      34.1  T
     SCC iter.                  ...        0 min,  0.025 sec
     gradient                   ...        0 min,  0.090 sec
 * total energy  :   -87.6418739 Eh     change       -0.3193380E-02 Eh
   gradient norm :     0.0161329 Eh/α   predicted    -0.2857529E-02 ( -10.52%)
   displ. norm   :     0.2802604 α      lambda       -0.1299742E-02
   maximum displ.:     0.1839817 α      in ANC's #10, #12, #22, ...

........................................................................
.............................. CYCLE    4 ..............................
........................................................................

 iter      E             dE          RMSdq      gap      omega  full diag
   1    -88.7968058 -0.887968E+02  0.539E-02    1.65       0.0  T
   2    -88.7968124 -0.666592E-05  0.312E-02    1.66       1.0  T
   3    -88.7968039  0.847379E-05  0.204E-02    1.66       1.0  T
   4    -88.7968172 -0.132337E-04  0.267E-03    1.66       5.0  T
   5    -88.7968175 -0.274408E-06  0.920E-04    1.66      14.4  T
   6    -88.7968175 -0.912280E-08  0.460E-04    1.66      28.8  T
     SCC iter.                  ...        0 min,  0.022 sec
     gradient                   ...        0 min,  0.073 sec
 * total energy  :   -87.6428706 Eh     change       -0.9966881E-03 Eh
   gradient norm :     0.0116767 Eh/α   predicted    -0.7009311E-03 ( -29.67%)
   displ. norm   :     0.4050881 α      lambda       -0.1213050E-02
   maximum displ.:     0.2802599 α      in ANC's #10, #12, #22, ...

........................................................................
.............................. CYCLE    5 ..............................
........................................................................

 iter      E             dE          RMSdq      gap      omega  full diag
   1    -88.7965402 -0.887965E+02  0.631E-02    1.63       0.0  T
   2    -88.7965441 -0.387912E-05  0.366E-02    1.63       1.0  T
   3    -88.7965320  0.121060E-04  0.189E-02    1.63       1.0  T
   4    -88.7965469 -0.148999E-04  0.229E-03    1.63       5.8  T
   5    -88.7965470 -0.143929E-06  0.103E-03    1.63      12.9  T
   6    -88.7965470 -0.402567E-08  0.409E-04    1.63      32.4  T
   7    -88.7965470 -0.422899E-08  0.137E-04    1.63      97.0  T
     SCC iter.                  ...        0 min,  0.064 sec
     gradient                   ...        0 min,  0.039 sec
 * total energy  :   -87.6437006 Eh     change       -0.8300685E-03 Eh
   gradient norm :     0.0103795 Eh/α   predicted    -0.7060538E-03 ( -14.94%)
   displ. norm   :     0.2802933 α      lambda       -0.4769885E-03
   maximum displ.:     0.2017131 α      in ANC's #10, #12, #4, ...

........................................................................
.............................. CYCLE    6 ..............................
........................................................................

 iter      E             dE          RMSdq      gap      omega  full diag
   1    -88.7964815 -0.887965E+02  0.422E-02    1.61       0.0  T
   2    -88.7964833 -0.176967E-05  0.250E-02    1.61       1.0  T
   3    -88.7964824  0.900170E-06  0.520E-03    1.61       2.5  T
   4    -88.7964837 -0.127170E-05  0.153E-03    1.61       8.7  T
   5    -88.7964837 -0.654974E-07  0.699E-04    1.61      19.0  T
   6    -88.7964837 -0.481417E-08  0.246E-04    1.61      53.8  T
     SCC iter.                  ...        0 min,  0.021 sec
     gradient                   ...        0 min,  0.073 sec
 * total energy  :   -87.6440400 Eh     change       -0.3393797E-03 Eh
   gradient norm :     0.0093836 Eh/α   predicted    -0.2573060E-03 ( -24.18%)
   displ. norm   :     0.2111708 α      lambda       -0.2771963E-03
   maximum displ.:     0.1450833 α      in ANC's #10, #4, #15, ...

........................................................................
.............................. CYCLE    7 ..............................
........................................................................

 iter      E             dE          RMSdq      gap      omega  full diag
   1    -88.7976116 -0.887976E+02  0.333E-02    1.60       0.0  T
   2    -88.7976134 -0.181257E-05  0.198E-02    1.60       1.0  T
   3    -88.7976101  0.328873E-05  0.995E-03    1.60       1.3  T
   4    -88.7976143 -0.419820E-05  0.166E-03    1.60       8.0  T
   5    -88.7976144 -0.900405E-07  0.658E-04    1.60      20.1  T
   6    -88.7976144 -0.381289E-08  0.294E-04    1.60      45.0  T
     SCC iter.                  ...        0 min,  0.021 sec
     gradient                   ...        0 min,  0.085 sec
 * total energy  :   -87.6442413 Eh     change       -0.2012662E-03 Eh
   gradient norm :     0.0066998 Eh/α   predicted    -0.1447797E-03 ( -28.07%)
   displ. norm   :     0.1992221 α      lambda       -0.1833971E-03
   maximum displ.:     0.1219817 α      in ANC's #10, #4, #15, ...

........................................................................
.............................. CYCLE    8 ..............................
........................................................................

 iter      E             dE          RMSdq      gap      omega  full diag
   1    -88.7988026 -0.887988E+02  0.317E-02    1.60       0.0  T
   2    -88.7988040 -0.137191E-05  0.185E-02    1.60       1.0  T
   3    -88.7988011  0.288184E-05  0.963E-03    1.60       1.4  T
   4    -88.7988048 -0.365493E-05  0.144E-03    1.60       9.2  T
   5    -88.7988048 -0.695271E-07  0.560E-04    1.60      23.7  T
   6    -88.7988048 -0.203507E-08  0.269E-04    1.60      49.2  T
     SCC iter.                  ...        0 min,  0.021 sec
     gradient                   ...        0 min,  0.085 sec
 * total energy  :   -87.6443682 Eh     change       -0.1268873E-03 Eh
   gradient norm :     0.0044935 Eh/α   predicted    -0.9533938E-04 ( -24.86%)
   displ. norm   :     0.1521704 α      lambda       -0.9786958E-04
   maximum displ.:     0.0701734 α      in ANC's #10, #4, #15, ...

........................................................................
.............................. CYCLE    9 ..............................
........................................................................

 iter      E             dE          RMSdq      gap      omega  full diag
   1    -88.7996328 -0.887996E+02  0.244E-02    1.60       0.0  T
   2    -88.7996336 -0.816621E-06  0.142E-02    1.60       1.0  T
   3    -88.7996325  0.110972E-05  0.598E-03    1.60       2.2  T
   4    -88.7996338 -0.133943E-05  0.127E-03    1.60      10.5  T
   5    -88.7996339 -0.711975E-07  0.384E-04    1.60      34.5  T
   6    -88.7996339 -0.383878E-09  0.156E-04    1.60      84.7  T
     SCC iter.                  ...        0 min,  0.055 sec
     gradient                   ...        0 min,  0.040 sec
 * total energy  :   -87.6444389 Eh     change       -0.7073962E-04 Eh
   gradient norm :     0.0035733 Eh/α   predicted    -0.5006885E-04 ( -29.22%)
   displ. norm   :     0.1473790 α      lambda       -0.7866455E-04
   maximum displ.:     0.0690574 α      in ANC's #4, #15, #14, ...

........................................................................
.............................. CYCLE   10 ..............................
........................................................................

 iter      E             dE          RMSdq      gap      omega  full diag
   1    -88.7999662 -0.888000E+02  0.241E-02    1.60       0.0  T
   2    -88.7999672 -0.101874E-05  0.141E-02    1.60       1.0  T
   3    -88.7999669  0.377632E-06  0.403E-03    1.60       3.3  T
   4    -88.7999674 -0.490622E-06  0.114E-03    1.60      11.6  T
   5    -88.7999674 -0.606025E-07  0.386E-04    1.60      34.3  T
   6    -88.7999674 -0.124804E-08  0.185E-04    1.60      71.5  T
     SCC iter.                  ...        0 min,  0.055 sec
     gradient                   ...        0 min,  0.040 sec
 * total energy  :   -87.6444968 Eh     change       -0.5790009E-04 Eh
   gradient norm :     0.0036710 Eh/α   predicted    -0.4018832E-04 ( -30.59%)
   displ. norm   :     0.1609755 α      lambda       -0.7426659E-04
   maximum displ.:     0.0762803 α      in ANC's #4, #15, #14, ...

........................................................................
.............................. CYCLE   11 ..............................
........................................................................

 iter      E             dE          RMSdq      gap      omega  full diag
   1    -88.7998068 -0.887998E+02  0.253E-02    1.61       0.0  T
   2    -88.7998076 -0.801775E-06  0.151E-02    1.61       1.0  T
   3    -88.7998071  0.483909E-06  0.386E-03    1.61       3.4  T
   4    -88.7998077 -0.617511E-06  0.978E-04    1.61      13.5  T
   5    -88.7998077 -0.366531E-07  0.380E-04    1.61      34.8  T
     SCC iter.                  ...        0 min,  0.018 sec
     gradient                   ...        0 min,  0.085 sec
 * total energy  :   -87.6445525 Eh     change       -0.5572594E-04 Eh
   gradient norm :     0.0043983 Eh/α   predicted    -0.3810072E-04 ( -31.63%)
   displ. norm   :     0.1955123 α      lambda       -0.8412908E-04
   maximum displ.:     0.0921945 α      in ANC's #4, #15, #14, ...

........................................................................
.............................. CYCLE   12 ..............................
........................................................................

 iter      E             dE          RMSdq      gap      omega  full diag
   1    -88.7991853 -0.887992E+02  0.291E-02    1.61       0.0  T
   2    -88.7991860 -0.660876E-06  0.173E-02    1.61       1.0  T
   3    -88.7991852  0.754791E-06  0.437E-03    1.61       3.0  T
   4    -88.7991861 -0.905418E-06  0.104E-03    1.61      12.7  T
   5    -88.7991862 -0.353477E-07  0.437E-04    1.61      30.3  T
   6    -88.7991862 -0.175473E-08  0.213E-04    1.61      62.2  T
     SCC iter.                  ...        0 min,  0.021 sec
     gradient                   ...        0 min,  0.067 sec
 * total energy  :   -87.6446162 Eh     change       -0.6371585E-04 Eh
   gradient norm :     0.0051808 Eh/α   predicted    -0.4367399E-04 ( -31.46%)
   displ. norm   :     0.2350094 α      lambda       -0.1042259E-03
   maximum displ.:     0.1114754 α      in ANC's #4, #15, #12, ...

........................................................................
.............................. CYCLE   13 ..............................
........................................................................

 iter      E             dE          RMSdq      gap      omega  full diag
   1    -88.7984255 -0.887984E+02  0.332E-02    1.61       0.0  T
   2    -88.7984260 -0.476186E-06  0.197E-02    1.61       1.0  T
   3    -88.7984252  0.755670E-06  0.436E-03    1.61       3.0  T
   4    -88.7984261 -0.894527E-06  0.978E-04    1.61      13.5  T
   5    -88.7984261 -0.282555E-07  0.422E-04    1.61      31.4  T
     SCC iter.                  ...        0 min,  0.018 sec
     gradient                   ...        0 min,  0.079 sec
 * total energy  :   -87.6446959 Eh     change       -0.7969801E-04 Eh
   gradient norm :     0.0055655 Eh/α   predicted    -0.5499281E-04 ( -31.00%)
   displ. norm   :     0.2579287 α      lambda       -0.1342973E-03
   maximum displ.:     0.1217836 α      in ANC's #4, #12, #7, ...

........................................................................
.............................. CYCLE   14 ..............................
........................................................................

 iter      E             dE          RMSdq      gap      omega  full diag
   1    -88.7982060 -0.887982E+02  0.358E-02    1.61       0.0  T
   2    -88.7982068 -0.754182E-06  0.212E-02    1.61       1.0  T
   3    -88.7982060  0.808380E-06  0.470E-03    1.61       2.8  T
   4    -88.7982069 -0.937514E-06  0.125E-03    1.61      10.6  T
   5    -88.7982070 -0.667425E-07  0.443E-04    1.61      29.9  T
   6    -88.7982070 -0.597382E-09  0.185E-04    1.61      71.7  T
     SCC iter.                  ...        0 min,  0.066 sec
     gradient                   ...        0 min,  0.040 sec
 * total energy  :   -87.6447976 Eh     change       -0.1016643E-03 Eh
   gradient norm :     0.0052956 Eh/α   predicted    -0.7161706E-04 ( -29.56%)
   displ. norm   :     0.3045421 α      lambda       -0.1389072E-03
   maximum displ.:     0.1549839 α      in ANC's #12, #4, #15, ...

........................................................................
.............................. CYCLE   15 ..............................
........................................................................

 iter      E             dE          RMSdq      gap      omega  full diag
   1    -88.7973467 -0.887973E+02  0.418E-02    1.61       0.0  T
   2    -88.7973480 -0.128116E-05  0.249E-02    1.61       1.0  T
   3    -88.7973471  0.925816E-06  0.518E-03    1.61       2.6  T
   4    -88.7973483 -0.117233E-05  0.127E-03    1.61      10.4  T
   5    -88.7973483 -0.537088E-07  0.556E-04    1.61      23.8  T
   6    -88.7973483 -0.255835E-08  0.240E-04    1.61      55.2  T
     SCC iter.                  ...        0 min,  0.054 sec
     gradient                   ...        0 min,  0.040 sec
 * total energy  :   -87.6448924 Eh     change       -0.9481403E-04 Eh
   gradient norm :     0.0067013 Eh/α   predicted    -0.7589586E-04 ( -19.95%)
   displ. norm   :     0.3010209 α      lambda       -0.2630245E-03
   maximum displ.:     0.1654943 α      in ANC's #10, #12, #4, ...

........................................................................
.............................. CYCLE   16 ..............................
........................................................................

 iter      E             dE          RMSdq      gap      omega  full diag
   1    -88.8021632 -0.888022E+02  0.549E-02    1.61       0.0  T
   2    -88.8021728 -0.952835E-05  0.319E-02    1.60       1.0  T
   3    -88.8021708  0.196567E-05  0.110E-02    1.60       1.2  T
   4    -88.8021735 -0.275317E-05  0.320E-03    1.60       4.1  T
   5    -88.8021740 -0.416495E-06  0.974E-04    1.60      13.6  T
   6    -88.8021740 -0.407833E-08  0.527E-04    1.60      25.1  T
     SCC iter.                  ...        0 min,  0.021 sec
     gradient                   ...        0 min,  0.085 sec
 * total energy  :   -87.6448736 Eh     change        0.1876821E-04 Eh
   gradient norm :     0.0109934 Eh/α   predicted    -0.1434317E-03 (-864.23%)
   displ. norm   :     0.2105041 α      lambda       -0.2869390E-03
   maximum displ.:     0.1007670 α      in ANC's #4, #15, #12, ...

........................................................................
.............................. CYCLE   17 ..............................
........................................................................

 iter      E             dE          RMSdq      gap      omega  full diag
   1    -88.7983435 -0.887983E+02  0.380E-02    1.61       0.0  T
   2    -88.7983484 -0.487061E-05  0.216E-02    1.61       1.0  T
   3    -88.7983484  0.327059E-07  0.614E-03    1.61       2.2  T
   4    -88.7983486 -0.287860E-06  0.192E-03    1.61       6.9  T
   5    -88.7983488 -0.119011E-06  0.773E-04    1.61      17.1  T
   6    -88.7983488  0.153150E-08  0.366E-04    1.61      36.2  T
     SCC iter.                  ...        0 min,  0.021 sec
     gradient                   ...        0 min,  0.085 sec
 * total energy  :   -87.6450149 Eh     change       -0.1413063E-03 Eh
   gradient norm :     0.0070517 Eh/α   predicted    -0.1498282E-03 (   6.03%)
   displ. norm   :     0.1425198 α      lambda       -0.7979298E-04
   maximum displ.:     0.0687688 α      in ANC's #12, #10, #7, ...

........................................................................
.............................. CYCLE   18 ..............................
........................................................................

 iter      E             dE          RMSdq      gap      omega  full diag
   1    -88.7999342 -0.887999E+02  0.240E-02    1.61       0.0  T
   2    -88.7999357 -0.149923E-05  0.142E-02    1.61       1.0  T
   3    -88.7999352  0.535619E-06  0.518E-03    1.61       2.6  T
   4    -88.7999359 -0.747094E-06  0.129E-03    1.61      10.3  T
   5    -88.7999360 -0.756188E-07  0.444E-04    1.61      29.9  T
   6    -88.7999360 -0.278327E-08  0.202E-04    1.61      65.7  T
     SCC iter.                  ...        0 min,  0.064 sec
     gradient                   ...        0 min,  0.040 sec
 * total energy  :   -87.6450545 Eh     change       -0.3953215E-04 Eh
   gradient norm :     0.0025277 Eh/α   predicted    -0.4070810E-04 (   2.97%)
   displ. norm   :     0.1349887 α      lambda       -0.5034385E-04
   maximum displ.:     0.0711033 α      in ANC's #4, #12, #10, ...

........................................................................
.............................. CYCLE   19 ..............................
........................................................................

 iter      E             dE          RMSdq      gap      omega  full diag
   1    -88.7998926 -0.887999E+02  0.177E-02    1.61       0.0  T
   2    -88.7998928 -0.219812E-06  0.105E-02    1.61       1.3  T
   3    -88.7998927  0.774069E-07  0.170E-03    1.61       7.8  T
   4    -88.7998928 -0.991780E-07  0.535E-04    1.61      24.8  T
   5    -88.7998928 -0.118768E-07  0.207E-04    1.61      63.9  T
     SCC iter.                  ...        0 min,  0.018 sec
     gradient                   ...        0 min,  0.080 sec
 * total energy  :   -87.6450969 Eh     change       -0.4246730E-04 Eh
   gradient norm :     0.0019128 Eh/α   predicted    -0.2563491E-04 ( -39.64%)
   displ. norm   :     0.4956006 α      lambda       -0.9511753E-04
   maximum displ.:     0.2504972 α      in ANC's #4, #12, #10, ...

........................................................................
.............................. CYCLE   20 ..............................
........................................................................

 iter      E             dE          RMSdq      gap      omega  full diag
   1    -88.7975215 -0.887975E+02  0.656E-02    1.62       0.0  T
   2    -88.7975243 -0.278560E-05  0.389E-02    1.62       1.0  T
   3    -88.7975241  0.187907E-06  0.409E-03    1.62       3.2  T
   4    -88.7975246 -0.475539E-06  0.146E-03    1.62       9.1  T
   5    -88.7975246 -0.624751E-07  0.724E-04    1.62      18.3  T
   6    -88.7975246 -0.327069E-08  0.231E-04    1.62      57.2  T
     SCC iter.                  ...        0 min,  0.021 sec
     gradient                   ...        0 min,  0.073 sec
 * total energy  :   -87.6451269 Eh     change       -0.2996832E-04 Eh
   gradient norm :     0.0071896 Eh/α   predicted    -0.5275571E-04 (  76.04%)
   displ. norm   :     0.1014224 α      lambda       -0.1070002E-03
   maximum displ.:     0.0483490 α      in ANC's #4, #12, #15, ...
 * RMSD in coord.:     0.3999162 α      energy gain  -0.1731458E-01 Eh

generating ANC from exact Hessian ...
Using Lindh-Hessian (1995)
 Shifting diagonal of input Hessian by    9.8592512194346175E-003
 Lowest  eigenvalues of input Hessian
    0.000000    0.000000    0.000000    0.000000    0.000000    0.000000
    0.010000    0.010099    0.010282    0.010564    0.010771    0.011491
    0.012083    0.012704    0.013111    0.013425    0.015717    0.017099
 Highest eigenvalues
    1.978634    1.982420    2.087103    2.212590    2.227097    2.385041


........................................................................
.............................. CYCLE   21 ..............................
........................................................................

 iter      E             dE          RMSdq      gap      omega  full diag
   1    -88.8002143 -0.888002E+02  0.200E-02    1.61       0.0  T
   2    -88.8002156 -0.124884E-05  0.113E-02    1.61       1.2  T
   3    -88.8002156 -0.159493E-07  0.293E-03    1.61       4.5  T
   4    -88.8002156 -0.616510E-07  0.906E-04    1.61      14.6  T
   5    -88.8002157 -0.240720E-07  0.427E-04    1.61      31.0  T
     SCC iter.                  ...        0 min,  0.045 sec
     gradient                   ...        0 min,  0.040 sec
 * total energy  :   -87.6451818 Eh     change       -0.5486203E-04 Eh
   gradient norm :     0.0032387 Eh/α   predicted     0.0000000E+00 (-100.00%)
   displ. norm   :     0.0285706 α      lambda       -0.1764882E-04
   maximum displ.:     0.0095099 α      in ANC's #20, #21, #5, ...

........................................................................
.............................. CYCLE   22 ..............................
........................................................................

 iter      E             dE          RMSdq      gap      omega  full diag
   1    -88.8004042 -0.888004E+02  0.661E-03    1.61       0.0  T
   2    -88.8004043 -0.164464E-06  0.387E-03    1.61       3.4  T
   3    -88.8004043  0.285468E-07  0.133E-03    1.61      10.0  T
   4    -88.8004044 -0.405938E-07  0.431E-04    1.61      30.8  T
   5    -88.8004044 -0.936237E-08  0.127E-04    1.61     104.2  T
     SCC iter.                  ...        0 min,  0.045 sec
     gradient                   ...        0 min,  0.040 sec
 * total energy  :   -87.6452032 Eh     change       -0.2139195E-04 Eh
   gradient norm :     0.0017567 Eh/α   predicted    -0.1316038E-04 ( -38.48%)
   displ. norm   :     0.1236915 α      lambda       -0.4513124E-04
   maximum displ.:     0.0406605 α      in ANC's #5, #21, #13, ...

........................................................................
.............................. CYCLE   23 ..............................
........................................................................

 iter      E             dE          RMSdq      gap      omega  full diag
   1    -88.8004734 -0.888005E+02  0.232E-02    1.61       0.0  T
   2    -88.8004747 -0.126207E-05  0.136E-02    1.61       1.0  T
   3    -88.8004745  0.177978E-06  0.352E-03    1.61       3.8  T
   4    -88.8004748 -0.302213E-06  0.968E-04    1.61      13.7  T
   5    -88.8004748 -0.389033E-07  0.407E-04    1.61      32.5  T
     SCC iter.                  ...        0 min,  0.047 sec
     gradient                   ...        0 min,  0.040 sec
 * total energy  :   -87.6452333 Eh     change       -0.3015446E-04 Eh
   gradient norm :     0.0029639 Eh/α   predicted    -0.2271945E-04 ( -24.66%)
   displ. norm   :     0.0250571 α      lambda       -0.1227964E-04
   maximum displ.:     0.0114018 α      in ANC's #5, #13, #12, ...

........................................................................
.............................. CYCLE   24 ..............................
........................................................................

 iter      E             dE          RMSdq      gap      omega  full diag
   1    -88.8004388 -0.888004E+02  0.494E-03    1.61       0.0  T
   2    -88.8004388 -0.367427E-07  0.293E-03    1.61       4.5  T
   3    -88.8004387  0.569424E-07  0.118E-03    1.61      11.2  T
   4    -88.8004388 -0.680127E-07  0.240E-04    1.61      55.2  T
   5    -88.8004388 -0.198509E-08  0.847E-05    1.61     156.3  T
     SCC iter.                  ...        0 min,  0.018 sec
     gradient                   ...        0 min,  0.067 sec
 * total energy  :   -87.6452444 Eh     change       -0.1103611E-04 Eh
   gradient norm :     0.0021787 Eh/α   predicted    -0.6144183E-05 ( -44.33%)
   displ. norm   :     0.1478381 α      lambda       -0.5146012E-04
   maximum displ.:     0.0669502 α      in ANC's #5, #12, #13, ...

........................................................................
.............................. CYCLE   25 ..............................
........................................................................

 iter      E             dE          RMSdq      gap      omega  full diag
   1    -88.8000930 -0.888001E+02  0.271E-02    1.61       0.0  T
   2    -88.8000937 -0.695809E-06  0.160E-02    1.61       1.0  T
   3    -88.8000926  0.107834E-05  0.501E-03    1.61       2.6  T
   4    -88.8000939 -0.126730E-05  0.110E-03    1.61      12.1  T
   5    -88.8000939 -0.408673E-07  0.429E-04    1.61      30.9  T
   6    -88.8000939 -0.444530E-09  0.191E-04    1.61      69.3  T
     SCC iter.                  ...        0 min,  0.048 sec
     gradient                   ...        0 min,  0.040 sec
 * total energy  :   -87.6452759 Eh     change       -0.3153706E-04 Eh
   gradient norm :     0.0018071 Eh/α   predicted    -0.2630872E-04 ( -16.58%)
   displ. norm   :     0.1208456 α      lambda       -0.1398960E-04
   maximum displ.:     0.0572808 α      in ANC's #5, #12, #13, ...

........................................................................
.............................. CYCLE   26 ..............................
........................................................................

 iter      E             dE          RMSdq      gap      omega  full diag
   1    -88.7999502 -0.888000E+02  0.215E-02    1.61       0.0  T
   2    -88.7999504 -0.175518E-06  0.127E-02    1.61       1.0  T
   3    -88.7999503  0.790174E-07  0.167E-03    1.62       7.9  T
   4    -88.7999505 -0.122785E-06  0.625E-04    1.61      21.2  T
   5    -88.7999505 -0.100212E-07  0.295E-04    1.61      45.0  T
     SCC iter.                  ...        0 min,  0.051 sec
     gradient                   ...        0 min,  0.040 sec
 * total energy  :   -87.6452911 Eh     change       -0.1521214E-04 Eh
   gradient norm :     0.0023967 Eh/α   predicted    -0.7060825E-05 ( -53.58%)
   displ. norm   :     0.0866881 α      lambda       -0.2017917E-04
   maximum displ.:     0.0436605 α      in ANC's #5, #12, #13, ...

........................................................................
.............................. CYCLE   27 ..............................
........................................................................

 iter      E             dE          RMSdq      gap      omega  full diag
   1    -88.8002598 -0.888003E+02  0.161E-02    1.62       0.0  T
   2    -88.8002599 -0.879185E-07  0.951E-03    1.62       1.4  T
   3    -88.8002598  0.916323E-07  0.157E-03    1.62       8.4  T
   4    -88.8002599 -0.122397E-06  0.441E-04    1.62      30.0  T
   5    -88.8002599 -0.349868E-08  0.206E-04    1.62      64.4  T
     SCC iter.                  ...        0 min,  0.045 sec
     gradient                   ...        0 min,  0.040 sec
 * total energy  :   -87.6453065 Eh     change       -0.1540243E-04 Eh
   gradient norm :     0.0014140 Eh/α   predicted    -0.1016740E-04 ( -33.99%)
   displ. norm   :     0.1762907 α      lambda       -0.1591250E-04
   maximum displ.:     0.0907200 α      in ANC's #12, #5, #13, ...

........................................................................
.............................. CYCLE   28 ..............................
........................................................................

 iter      E             dE          RMSdq      gap      omega  full diag
   1    -88.8000477 -0.888000E+02  0.327E-02    1.61       0.0  T
   2    -88.8000481 -0.362721E-06  0.194E-02    1.61       1.0  T
   3    -88.8000477  0.358327E-06  0.305E-03    1.61       4.3  T
   4    -88.8000482 -0.487864E-06  0.896E-04    1.61      14.8  T
   5    -88.8000482 -0.138071E-07  0.425E-04    1.61      31.2  T
     SCC iter.                  ...        0 min,  0.051 sec
     gradient                   ...        0 min,  0.040 sec
 * total energy  :   -87.6453169 Eh     change       -0.1040067E-04 Eh
   gradient norm :     0.0013341 Eh/α   predicted    -0.8069046E-05 ( -22.42%)
   displ. norm   :     0.0265878 α      lambda       -0.4992924E-05
   maximum displ.:     0.0126524 α      in ANC's #4, #15, #6, ...

........................................................................
.............................. CYCLE   29 ..............................
........................................................................

 iter      E             dE          RMSdq      gap      omega  full diag
   1    -88.8008024 -0.888008E+02  0.545E-03    1.61       0.0  T
   2    -88.8008025 -0.104249E-06  0.307E-03    1.61       4.3  T
   3    -88.8008025  0.347849E-08  0.924E-04    1.61      14.3  T
   4    -88.8008025 -0.861465E-08  0.320E-04    1.61      41.3  T
     SCC iter.                  ...        0 min,  0.014 sec
     gradient                   ...        0 min,  0.065 sec
 * total energy  :   -87.6453202 Eh     change       -0.3255544E-05 Eh
   gradient norm :     0.0009741 Eh/α   predicted    -0.2498047E-05 ( -23.27%)
   displ. norm   :     0.0356157 α      lambda       -0.3405718E-05
   maximum displ.:     0.0197332 α      in ANC's #12, #5, #10, ...

   *** GEOMETRY OPTIMIZATION CONVERGED AFTER 29 ITERATIONS ***

------------------------------------------------------------------------
 total energy gain   :        -0.0175078 Eh      -10.9863 kcal/mol
 total RMSD          :         0.4241977 a0        0.2245 Å
 total power (kW/mol):        -1.5850628 (step)  -13.1711 (real)
------------------------------------------------------------------------

 ANCopt (total)                0 d,  0 h,  0 min,  3.490 sec
 optimizer setup                ...        0 min,  0.000 sec (  0.003%)
 model hessian                  ...        0 min,  0.106 sec (  3.039%)
 ANC generation                 ...        0 min,  0.006 sec (  0.159%)
 coordinate transformation      ...        0 min,  0.000 sec (  0.012%)
 single point calculation       ...        0 min,  3.368 sec ( 96.490%)
 optimization log               ...        0 min,  0.006 sec (  0.177%)
 hessian update                 ...        0 min,  0.001 sec (  0.017%)
 rational function              ...        0 min,  0.003 sec (  0.072%)

================
 final structure:
================
57
 xtb: 6.7.1 (edcfbbe)
O           -2.48747378993396       -2.05454981124563        0.30689680517663
C           -3.08522625658003       -1.00612503358320        0.12839639170669
C           -2.48323548743275        0.29126983021597       -0.07971900275192
C           -0.99010409026328        0.33719329338436       -0.04244915088094
C           -0.50232126362726        0.46034409869777        1.42093843536935
N            0.92350320848078        0.56354029676173        1.60641769073408
C            1.67060059009614       -0.59205766557600        1.15106063485835
C            3.06677294936755       -0.55038058204041        1.76311689556101
C            3.80612414475606        0.72985946457774        1.33952381055158
C            2.92354239053976        1.94143728148733        1.65500563351174
C            1.51560694701575        1.78181425488389        1.08699489377887
C            4.20770069849563        0.64103009009827       -0.09403938647946
N            3.44441979850231        0.94815943109009       -1.09819105927456
O            4.11902565447993        0.72594667137594       -2.27199530583454
C            5.34182658749855        0.25916065793550       -1.97476958341849
C            5.47842801694850        0.17232363154126       -0.57621529957100
C            6.66631478970620       -0.28905352682972       -0.01320182628366
C            7.68607278288733       -0.64867355118428       -0.86299942438040
C            7.51639900403334       -0.54721854036216       -2.24670297947430
F            8.54757435193036       -0.90997951678203       -3.03252915113589
C            6.36017430879229       -0.09868548723555       -2.84699902507406
C           -3.27961897178539        1.38748646669977       -0.25792046041394
N           -4.63753822352762        1.30343296746008       -0.26877360460712
C           -5.18571247114335        0.14872477080092       -0.09210433240645
N           -4.48545731954469       -0.99042074602374        0.11071764970978
C           -5.22223397160808       -2.22790818033224        0.23988158833092
C           -6.19128305237320       -2.35608662200185       -0.93352859231948
C           -7.11271445435425       -1.12758201998138       -1.03485170181092
C           -6.67126040583283       -0.00105079896949       -0.08868243800462
C           -2.73993653627506        2.76760914793558       -0.46943141848525
H           -0.60716271736686       -0.59750364944884       -0.45472384069131
H           -0.61225735189946        1.17307746339125       -0.62984992702864
H           -0.84594629998554       -0.42161287967443        1.96880494746606
H           -0.96013601203748        1.34274286623945        1.87920896190309
H            1.75741522592127       -0.61717526943596        0.05241239955655
H            1.15043246341179       -1.49469767958916        1.47875305789375
H            3.63490246817591       -1.43311549331166        1.46232116092560
H            2.97381123990951       -0.54922106113344        2.84992330608863
H            4.73235118598013        0.80674045369465        1.92132211553144
H            2.85572282307685        2.03623093096812        2.74044298116026
H            3.37783228158741        2.84908807287409        1.25421708555424
H            1.57897638013774        1.77878061275664       -0.01111678548476
H            0.90168398541596        2.62833407747288        1.40575977205293
H            6.78124880533447       -0.36280440117110        1.05660879093822
H            8.62824123474286       -1.01244460980964       -0.48534251651879
H            6.25992111893919       -0.03251181126385       -3.91659403216318
H           -5.76344313591347       -2.23574753532659        1.19168856317691
H           -4.48759216599687       -3.03687655656339        0.24519039035021
H           -5.60344591603606       -2.45509452700266       -1.84734641686530
H           -6.77337279980402       -3.26936461117783       -0.81371077530676
H           -7.10436712833461       -0.74901131475682       -2.05708846092066
H           -8.14085064209526       -1.39945602426149       -0.79502839009658
H           -7.12166275536501        0.94816119142250       -0.37386378162500
H           -6.98872332023913       -0.23649639497727        0.93110638614324
H           -2.07924698942032        3.05398141346762        0.34484464614645
H           -3.56941014719241        3.46551757104934       -0.52318354825679
H           -2.17479176019812        2.81681889277025       -1.39830277661513

 Bond Distances (Angstroems)
 ---------------------------
O1-C2=1.2200         C2-O1=1.2200         C2-C3=1.4453         C2-N25=1.4004        C3-C2=1.4453         C3-C4=1.4943         
C3-C22=1.3666        C4-C3=1.4943         C4-C5=1.5475         C4-H31=1.0910        C4-H32=1.0893        C5-C4=1.5475         
C5-N6=1.4415         C5-H33=1.0937        C5-H34=1.0946        N6-C5=1.4415         N6-C7=1.4495         N6-C11=1.4507        
C7-N6=1.4495         C7-C8=1.5250         C7-H35=1.1024        C7-H36=1.0921        C8-C7=1.5250         C8-C9=1.5379         
C8-H37=1.0920        C8-H38=1.0908        C9-C8=1.5379         C9-C10=1.5318        C9-C12=1.4914        C9-H39=1.0965        
C10-C9=1.5318        C10-C11=1.5266       C10-H40=1.0917       C10-H41=1.0913       C11-N6=1.4507        C11-C10=1.5266       
C11-H42=1.0999       C11-H43=1.0932       C12-C9=1.4914        C12-N13=1.2982       C12-C16=1.4377       N13-C12=1.2982       
N13-O14=1.3720       O14-N13=1.3720       O14-C15=1.3422       C15-O14=1.3422       C15-C16=1.4079       C15-C21=1.3878       
C16-C12=1.4377       C16-C15=1.4079       C16-C17=1.3932       C17-C16=1.3932       C17-C18=1.3753       C17-H44=1.0785       
C18-C17=1.3753       C18-C19=1.3978       C18-H45=1.0783       C19-C18=1.3978       C19-F20=1.3463       C19-C21=1.3778       
F20-C19=1.3463       C21-C15=1.3878       C21-C19=1.3778       C21-H46=1.0763       C22-C3=1.3666        C22-N23=1.3606       
C22-C30=1.4969       N23-C22=1.3606       N23-C24=1.2904       C24-N23=1.2904       C24-N25=1.3525       C24-C29=1.4931       
N25-C2=1.4004        N25-C24=1.3525       N25-C26=1.4460       C26-N25=1.4460       C26-C27=1.5272       C26-H47=1.0949       
C26-H48=1.0928       C27-C26=1.5272       C27-C28=1.5390       C27-H49=1.0911       C27-H50=1.0896       C28-C27=1.5390       
C28-C29=1.5360       C28-H51=1.0901       C28-H52=1.0902       C29-C24=1.4931       C29-C28=1.5360       C29-H53=1.0887       
C29-H54=1.0937       C30-C22=1.4969       C30-H55=1.0870       C30-H56=1.0854       C30-H57=1.0884       H31-C4=1.0910        
H32-C4=1.0893        H33-C5=1.0937        H34-C5=1.0946        H35-C7=1.1024        H36-C7=1.0921        H37-C8=1.0920        
H38-C8=1.0908        H39-C9=1.0965        H40-C10=1.0917       H41-C10=1.0913       H42-C11=1.0999       H43-C11=1.0932       
H44-C17=1.0785       H45-C18=1.0783       H46-C21=1.0763       H47-C26=1.0949       H48-C26=1.0928       H49-C27=1.0911       
H50-C27=1.0896       H51-C28=1.0901       H52-C28=1.0902       H53-C29=1.0887       H54-C29=1.0937       H55-C30=1.0870       
H56-C30=1.0854       H57-C30=1.0884       
 C  H  Rav=1.0905 sigma=0.0057  Rmin=1.0763  Rmax=1.1024    27
 C  C  Rav=1.4684 sigma=0.0643  Rmin=1.3666  Rmax=1.5475    21
 N  C  Rav=1.3877 sigma=0.0612  Rmin=1.2904  Rmax=1.4507     9
 O  C  Rav=1.2811 sigma=0.0611  Rmin=1.2200  Rmax=1.3422     2
 O  N  Rav=1.3720 sigma=0.0000  Rmin=1.3720  Rmax=1.3720     1
 F  C  Rav=1.3463 sigma=0.0000  Rmin=1.3463  Rmax=1.3463     1

 selected bond angles (degree)
 --------------------
C3-C2-O1=126.04                N25-C2-O1=120.09               N25-C2-C3=113.86               C4-C3-C2=116.12                
C22-C3-C2=119.74               C22-C3-C4=124.12               C5-C4-C3=109.94                H31-C4-C3=108.36               
H31-C4-C5=108.35               H32-C4-C3=110.90               H32-C4-C5=109.85               H32-C4-H31=109.38              
N6-C5-C4=116.05                H33-C5-C4=108.09               H33-C5-N6=107.70               H34-C5-C4=109.16               
H34-C5-N6=107.58               H34-C5-H33=108.00              C7-N6-C5=114.35                C11-N6-C5=114.69               
C11-N6-C7=110.28               C8-C7-N6=108.91                H35-C7-N6=111.83               H35-C7-C8=109.18               
H36-C7-N6=108.61               H36-C7-C8=109.77               H36-C7-H35=108.53              C9-C8-C7=110.63                
H37-C8-C7=110.10               H37-C8-C9=110.30               H38-C8-C7=108.78               H38-C8-C9=108.33               
H38-C8-H37=108.64              C10-C9-C8=108.95               C12-C9-C8=110.16               C12-C9-C10=113.59              
H39-C9-C8=108.56               H39-C9-C10=108.78              H39-C9-C12=106.66              C11-C10-C9=111.84              
H40-C10-C9=108.01              H40-C10-C11=108.77             H41-C10-C9=110.02              H41-C10-C11=109.53             
H41-C10-H40=108.59             

 selected dihedral angles (degree)
 ---------------------------------
C4-C3-C2-O1=358.71            C4-C3-C2-N25=178.79           C22-C3-C2-O1=180.48           C22-C3-C2-N25=  0.56          
C5-C4-C3-C2=275.68            C5-C4-C3-C22= 93.82           H31-C4-C3-C2= 33.93           H31-C4-C3-C22=212.07          
H32-C4-C3-C2=154.00           H32-C4-C3-C22=332.14          N6-C5-C4-C3=182.12            N6-C5-C4-H31= 63.87           
N6-C5-C4-H32=304.43           H33-C5-C4-C3= 61.08           H33-C5-C4-H31=302.83          H33-C5-C4-H32=183.38          
H34-C5-C4-C3=303.85           H34-C5-C4-H31=185.60          H34-C5-C4-H32= 66.15          C7-N6-C5-C4=297.60            
C7-N6-C5-H33= 58.85           C7-N6-C5-H34=175.04           C11-N6-C5-C4= 66.42           C11-N6-C5-H33=187.67          
C11-N6-C5-H34=303.86          C8-C7-N6-C5=196.70            C8-C7-N6-C11= 65.70           H35-C7-N6-C5= 75.95           
H35-C7-N6-C11=304.95          H36-C7-N6-C5=316.21           H36-C7-N6-C11=185.21          C9-C8-C7-N6=300.06            
C9-C8-C7-H35= 62.43           C9-C8-C7-H36=181.27           H37-C8-C7-N6=177.89           H37-C8-C7-H35=300.25          
H37-C8-C7-H36= 59.10          H38-C8-C7-N6= 58.94           H38-C8-C7-H35=181.31          H38-C8-C7-H36=300.15          
C10-C9-C8-C7= 52.60           C10-C9-C8-H37=174.66          C10-C9-C8-H38=293.45          C12-C9-C8-C7=287.37           
C12-C9-C8-H37= 49.43          C12-C9-C8-H38=168.22          H39-C9-C8-C7=170.92           H39-C9-C8-H37=292.98          
H39-C9-C8-H38= 51.77          C11-C10-C9-C8=308.69          C11-C10-C9-C12= 71.89         C11-C10-C9-H39=190.51         
H40-C10-C9-C8= 68.35          H40-C10-C9-C12=191.55         H40-C10-C9-H39=310.17         H41-C10-C9-C8=186.73          
H41-C10-C9-C12=309.93         H41-C10-C9-H39= 68.55         
           -------------------------------------------------
          |                Final Singlepoint                |
           -------------------------------------------------

          ...................................................
          :                      SETUP                      :
          :.................................................:
          :  # basis functions                 147          :
          :  # atomic orbitals                 147          :
          :  # shells                           87          :
          :  # electrons                       158          :
          :  max. iterations                   250          :
          :  Hamiltonian                  GFN2-xTB          :
          :  restarted?                      false          :
          :  GBSA solvation                  false          :
          :  PC potential                    false          :
          :  electronic temp.          300.0000000     K    :
          :  accuracy                    1.0000000          :
          :  -> integral cutoff          0.2500000E+02      :
          :  -> integral neglect         0.1000000E-07      :
          :  -> SCF convergence          0.1000000E-05 Eh   :
          :  -> wf. convergence          0.1000000E-03 e    :
          :  Broyden damping             0.4000000          :
          :  net charge                          0          :
          :  unpaired electrons                  0          :
          ...................................................

 iter      E             dE          RMSdq      gap      omega  full diag
   1    -88.8008025 -0.888008E+02  0.116E-04    1.61       0.0  T
   2    -88.8008025 -0.354134E-10  0.731E-05    1.61     181.2  T
   3    -88.8008025  0.276685E-10  0.465E-05    1.61     284.7  T

   *** convergence criteria satisfied after 3 iterations ***

         #    Occupation            Energy/Eh            Energy/eV
      -------------------------------------------------------------
         1        2.0000           -0.8265666             -22.4920
       ...           ...                  ...                  ...
        73        2.0000           -0.4197879             -11.4230
        74        2.0000           -0.4126860             -11.2298
        75        2.0000           -0.4078236             -11.0974
        76        2.0000           -0.3863961             -10.5144
        77        2.0000           -0.3799241             -10.3383
        78        2.0000           -0.3784505             -10.2982
        79        2.0000           -0.3362985              -9.1511 (HOMO)
        80                         -0.2770001              -7.5376 (LUMO)
        81                         -0.2492605              -6.7827
        82                         -0.2401566              -6.5350
        83                         -0.2184000              -5.9430
        84                         -0.2029112              -5.5215
       ...                                ...                  ...
       147                          0.6917766              18.8242
      -------------------------------------------------------------
                  HL-Gap            0.0592984 Eh            1.6136 eV
             Fermi-level           -0.3066493 Eh           -8.3444 eV

 SCC (total)                   0 d,  0 h,  0 min,  0.089 sec
 SCC setup                      ...        0 min,  0.001 sec (  0.576%)
 Dispersion                     ...        0 min,  0.001 sec (  0.640%)
 classical contributions        ...        0 min,  0.000 sec (  0.285%)
 integral evaluation            ...        0 min,  0.011 sec ( 12.436%)
 iterations                     ...        0 min,  0.011 sec ( 12.502%)
 molecular gradient             ...        0 min,  0.065 sec ( 73.150%)
 printout                       ...        0 min,  0.000 sec (  0.399%)

         :::::::::::::::::::::::::::::::::::::::::::::::::::::
         ::                     SUMMARY                     ::
         :::::::::::::::::::::::::::::::::::::::::::::::::::::
         :: total energy             -87.645320172495 Eh    ::
         :: gradient norm              0.000973535496 Eh/a0 ::
         :: HOMO-LUMO gap              1.613592218594 eV    ::
         ::.................................................::
         :: SCC energy               -88.800751102420 Eh    ::
         :: -> isotropic ES            0.080428001279 Eh    ::
         :: -> anisotropic ES          0.006053596007 Eh    ::
         :: -> anisotropic XC          0.040851438571 Eh    ::
         :: -> dispersion             -0.063141615944 Eh    ::
         :: repulsion energy           1.155430929926 Eh    ::
         :: add. restraining           0.000000000000 Eh    ::
         :: total charge               0.000000000000 e     ::
         :::::::::::::::::::::::::::::::::::::::::::::::::::::

           -------------------------------------------------
          |                Property Printout                |
           -------------------------------------------------

    * Orbital Energies and Occupations

         #    Occupation            Energy/Eh            Energy/eV
      -------------------------------------------------------------
         1        2.0000           -0.8265666             -22.4920
       ...           ...                  ...                  ...
        67        2.0000           -0.4391992             -11.9512
        68        2.0000           -0.4361793             -11.8690
        69        2.0000           -0.4283634             -11.6564
        70        2.0000           -0.4274268             -11.6309
        71        2.0000           -0.4251706             -11.5695
        72        2.0000           -0.4209301             -11.4541
        73        2.0000           -0.4197879             -11.4230
        74        2.0000           -0.4126860             -11.2298
        75        2.0000           -0.4078236             -11.0974
        76        2.0000           -0.3863961             -10.5144
        77        2.0000           -0.3799241             -10.3383
        78        2.0000           -0.3784505             -10.2982
        79        2.0000           -0.3362985              -9.1511 (HOMO)
        80                         -0.2770001              -7.5376 (LUMO)
        81                         -0.2492605              -6.7827
        82                         -0.2401566              -6.5350
        83                         -0.2184000              -5.9430
        84                         -0.2029112              -5.5215
        85                         -0.1164256              -3.1681
        86                         -0.1080069              -2.9390
        87                         -0.0460256              -1.2524
        88                          0.0025674               0.0699
        89                          0.0351064               0.9553
        90                          0.0448030               1.2192
       ...                                ...                  ...
       147                          0.6917766              18.8242
      -------------------------------------------------------------
                  HL-Gap            0.0592984 Eh            1.6136 eV
             Fermi-level           -0.3066493 Eh           -8.3444 eV

     #   Z          covCN         q      C6AA      α(0)
     1   8 O        0.858    -0.464    22.996     6.429
     2   6 C        2.781     0.258    22.662     7.797
     3   6 C        2.960    -0.058    29.430     8.898
     4   6 C        3.806    -0.064    21.730     6.636
     5   6 C        3.755     0.007    20.515     6.458
     6   7 N        2.732    -0.169    24.653     7.374
     7   6 C        3.765     0.007    20.495     6.453
     8   6 C        3.811    -0.059    21.626     6.619
     9   6 C        3.857    -0.016    20.828     6.491
    10   6 C        3.808    -0.062    21.680     6.628
    11   6 C        3.764     0.001    20.603     6.470
    12   6 C        3.006     0.083    26.125     8.384
    13   7 N        1.955    -0.126    24.483     7.337
    14   8 O        1.800    -0.142    16.434     5.474
    15   6 C        3.048     0.136    24.981     8.197
    16   6 C        3.032    -0.035    28.840     8.809
    17   6 C        2.914    -0.030    28.743     8.791
    18   6 C        2.920    -0.055    29.356     8.885
    19   6 C        2.797     0.173    24.282     8.072
    20   9 F        0.788    -0.215    11.390     3.987
    21   6 C        2.906    -0.072    29.795     8.950
    22   6 C        2.949     0.091    25.981     8.360
    23   7 N        1.845    -0.281    28.151     7.863
    24   6 C        2.902     0.159    24.570     8.127
    25   7 N        2.753    -0.074    22.670     7.071
    26   6 C        3.757     0.002    20.603     6.472
    27   6 C        3.804    -0.064    21.722     6.635
    28   6 C        3.803    -0.058    21.621     6.620
    29   6 C        3.812    -0.073    21.886     6.659
    30   6 C        3.760    -0.116    22.770     6.802
    31   1 H        0.924     0.056     2.246     2.343
    32   1 H        0.925     0.039     2.461     2.453
    33   1 H        0.924     0.044     2.399     2.422
    34   1 H        0.924     0.028     2.616     2.530
    35   1 H        0.923     0.024     2.680     2.560
    36   1 H        0.924     0.043     2.409     2.427
    37   1 H        0.924     0.032     2.554     2.499
    38   1 H        0.924     0.052     2.300     2.372
    39   1 H        0.924     0.037     2.489     2.467
    40   1 H        0.924     0.048     2.351     2.398
    41   1 H        0.924     0.037     2.491     2.468
    42   1 H        0.923     0.038     2.480     2.463
    43   1 H        0.924     0.033     2.548     2.496
    44   1 H        0.926     0.052     2.297     2.370
    45   1 H        0.926     0.066     2.133     2.284
    46   1 H        0.926     0.077     2.014     2.219
    47   1 H        0.924     0.048     2.339     2.392
    48   1 H        0.924     0.084     1.934     2.175
    49   1 H        0.924     0.046     2.371     2.408
    50   1 H        0.925     0.047     2.361     2.403
    51   1 H        0.925     0.045     2.389     2.417
    52   1 H        0.925     0.043     2.404     2.425
    53   1 H        0.925     0.068     2.105     2.269
    54   1 H        0.924     0.057     2.236     2.338
    55   1 H        0.925     0.053     2.283     2.363
    56   1 H        0.925     0.065     2.141     2.288
    57   1 H        0.925     0.056     2.252     2.347

 Mol. C6AA /au·bohr⁶  :      34371.634596
 Mol. C8AA /au·bohr⁸  :     797904.557091
 Mol. α(0) /au        :        282.348414


Wiberg/Mayer (AO) data.
largest (>0.10) Wiberg bond orders for each atom

 ---------------------------------------------------------------------------
     #   Z sym  total        # sym  WBO       # sym  WBO       # sym  WBO
 ---------------------------------------------------------------------------
     1   8 O    1.984 --     2 C    1.631    25 N    0.138
     2   6 C    3.950 --     1 O    1.631     3 C    1.125    25 N    1.074
     3   6 C    3.983 --    22 C    1.547     2 C    1.125     4 C    1.021
     4   6 C    3.994 --     3 C    1.021    32 H    0.970    31 H    0.967
                             5 C    0.960
     5   6 C    3.985 --     6 N    1.015    34 H    0.971    33 H    0.971
                             4 C    0.960
     6   7 N    3.148 --     5 C    1.015     7 C    1.004    11 C    1.003
     7   6 C    3.987 --     8 C    1.005     6 N    1.004    36 H    0.971
                            35 H    0.960
     8   6 C    3.994 --     7 C    1.005    37 H    0.977    38 H    0.973
                             9 C    0.970
     9   6 C    3.994 --    12 C    1.008    10 C    0.989     8 C    0.970
                            39 H    0.962
    10   6 C    3.995 --    11 C    1.004     9 C    0.989    41 H    0.977
                            40 H    0.976
    11   6 C    3.986 --    10 C    1.004     6 N    1.003    43 H    0.972
                            42 H    0.957
    12   6 C    3.975 --    13 N    1.640    16 C    1.165     9 C    1.008
    13   7 N    2.960 --    12 C    1.640    14 O    1.051
    14   8 O    2.408 --    15 C    1.127    13 N    1.051
    15   6 C    3.938 --    21 C    1.330    16 C    1.279    14 O    1.127
    16   6 C    3.983 --    17 C    1.329    15 C    1.279    12 C    1.165
    17   6 C    3.991 --    18 C    1.510    16 C    1.329    44 H    0.967
                            21 C    0.115
    18   6 C    3.986 --    17 C    1.510    19 C    1.332    45 H    0.966
    19   6 C    3.889 --    21 C    1.448    18 C    1.332    20 F    0.968
    20   9 F    1.098 --    19 C    0.968
    21   6 C    3.983 --    19 C    1.448    15 C    1.330    46 H    0.962
                            17 C    0.115
    22   6 C    3.977 --     3 C    1.547    23 N    1.228    30 C    1.024
    23   7 N    3.047 --    24 C    1.543    22 C    1.228
    24   6 C    3.959 --    23 N    1.543    25 N    1.229    29 C    1.011
    25   7 N    3.611 --    24 C    1.229     2 C    1.074    26 C    0.981
                             1 O    0.138
    26   6 C    3.963 --    27 C    0.998    25 N    0.981    48 H    0.963
                            47 H    0.962
    27   6 C    3.995 --    28 C    1.003    26 C    0.998    49 H    0.980
                            50 H    0.977
    28   6 C    3.995 --    27 C    1.003    29 C    0.990    51 H    0.981
                            52 H    0.980
    29   6 C    3.994 --    24 C    1.011    28 C    0.990    53 H    0.973
                            54 H    0.953
    30   6 C    3.994 --    22 C    1.024    56 H    0.983    55 H    0.970
                            57 H    0.965
    31   1 H    0.997 --     4 C    0.967
    32   1 H    0.998 --     4 C    0.970
    33   1 H    0.998 --     5 C    0.971
    34   1 H    0.999 --     5 C    0.971
    35   1 H    0.999 --     7 C    0.960
    36   1 H    0.998 --     7 C    0.971
    37   1 H    0.999 --     8 C    0.977
    38   1 H    0.996 --     8 C    0.973
    39   1 H    0.999 --     9 C    0.962
    40   1 H    0.997 --    10 C    0.976
    41   1 H    0.998 --    10 C    0.977
    42   1 H    0.998 --    11 C    0.957
    43   1 H    0.999 --    11 C    0.972
    44   1 H    0.997 --    17 C    0.967
    45   1 H    0.995 --    18 C    0.966
    46   1 H    0.994 --    21 C    0.962
    47   1 H    0.997 --    26 C    0.962
    48   1 H    0.993 --    26 C    0.963
    49   1 H    0.998 --    27 C    0.980
    50   1 H    0.997 --    27 C    0.977
    51   1 H    0.998 --    28 C    0.981
    52   1 H    0.997 --    28 C    0.980
    53   1 H    0.995 --    29 C    0.973
    54   1 H    0.996 --    29 C    0.953
    55   1 H    0.997 --    30 C    0.970
    56   1 H    0.995 --    30 C    0.983
    57   1 H    0.996 --    30 C    0.965
 ---------------------------------------------------------------------------

Topologies differ in total number of bonds
Writing topology from bond orders to xtbtopo.mol

molecular dipole:
                 x           y           z       tot (Debye)
 q only:       -1.352       0.502       0.901
   full:       -0.928       0.191       0.743       3.060
molecular quadrupole (traceless):
                xx          xy          yy          xz          yz          zz
 q only:       18.045       8.083      -7.344      21.056       0.761     -10.700
  q+dip:       21.800      10.762     -11.949      18.523      -0.088      -9.852
   full:       21.212      12.433     -10.682      18.510       0.974     -10.530

           -------------------------------------------------
          |                Geometry Summary                 |
           -------------------------------------------------

      molecular mass/u    :      410.4853518
   center of mass at/Å    :        0.6260760       0.0188321      -0.2694074
  moments of inertia/u·Å² :        0.1278922E+04   0.1000233E+05   0.1029540E+05
rotational constants/cm⁻¹ :        0.1318113E-01   0.1685371E-02   0.1637395E-02

 * 55 selected distances

     #   Z          #   Z                                           value/Å
     1   8 O        2   6 C                                       1.2199857
     5   6 C        6   7 N                                       1.4415366
     6   7 N        7   6 C                                       1.4494522
     7   6 C        8   6 C                                       1.5250074
     8   6 C        9   6 C                                       1.5378837
     9   6 C       10   6 C                                       1.5317965
     6   7 N       11   6 C                                       1.4507166
    10   6 C       11   6 C                                       1.5265642
     9   6 C       12   6 C                                       1.4913947
    12   6 C       13   7 N                                       1.2981707
    13   7 N       14   8 O                                       1.3719651
    14   8 O       15   6 C                                       1.3421903
    12   6 C       16   6 C                                       1.4376813
    15   6 C       16   6 C                                       1.4078903
    16   6 C       17   6 C                                       1.3931721
    17   6 C       18   6 C                                       1.3752779
    18   6 C       19   6 C                                       1.3977547
    15   6 C       21   6 C                                       1.3877574
    19   6 C       21   6 C                                       1.3778219
     3   6 C       22   6 C                                       1.3666286
    22   6 C       23   7 N                                       1.3605616
    23   7 N       24   6 C                                       1.2903714
     2   6 C       25   7 N                                       1.4004308
    24   6 C       25   7 N                                       1.3524596
    25   7 N       26   6 C                                       1.4459940
    26   6 C       27   6 C                                       1.5272124
    27   6 C       28   6 C                                       1.5390017 (max)
    28   6 C       29   6 C                                       1.5359658
     4   6 C       31   1 H                                       1.0909964
     4   6 C       32   1 H                                       1.0892706
     5   6 C       33   1 H                                       1.0936564
     5   6 C       34   1 H                                       1.0946388
     7   6 C       35   1 H                                       1.1023592
     7   6 C       36   1 H                                       1.0921156
     8   6 C       37   1 H                                       1.0920029
     8   6 C       38   1 H                                       1.0907757
     9   6 C       39   1 H                                       1.0964929
    10   6 C       40   1 H                                       1.0916775
    10   6 C       41   1 H                                       1.0912566
    11   6 C       42   1 H                                       1.0999429
    11   6 C       43   1 H                                       1.0932102
    17   6 C       44   1 H                                       1.0784915
    18   6 C       45   1 H                                       1.0782559
    21   6 C       46   1 H                                       1.0763194 (min)
    26   6 C       47   1 H                                       1.0949455
    26   6 C       48   1 H                                       1.0927748
    27   6 C       49   1 H                                       1.0910629
    27   6 C       50   1 H                                       1.0896154
    28   6 C       51   1 H                                       1.0901164
    28   6 C       52   1 H                                       1.0901811
    29   6 C       53   1 H                                       1.0886663
    29   6 C       54   1 H                                       1.0937032
    30   6 C       55   1 H                                       1.0869984
    30   6 C       56   1 H                                       1.0853535
    30   6 C       57   1 H                                       1.0883990

 * 5 distinct bonds (by element types)

   Z      Z             #   av. dist./Å        max./Å        min./Å
   1 H    6 C          27     1.0904918     1.1023592     1.0763194
   6 C    6 C          16     1.4599257     1.5390017     1.3666286
   6 C    7 N           9     1.3877437     1.4507166     1.2903714
   6 C    8 O           2     1.2810880     1.3421903     1.2199857
   7 N    8 O           1     1.3719651     1.3719651     1.3719651


optimized geometry written to: xtbopt.xyz


           -------------------------------------------------
          | TOTAL ENERGY              -87.645320172495 Eh   |
          | GRADIENT NORM               0.000973535496 Eh/α |
          | HOMO-LUMO GAP               1.613592218594 eV   |
           -------------------------------------------------

------------------------------------------------------------------------
 * finished run on 2025/05/15 at 16:26:31.121     
------------------------------------------------------------------------
 total:
 * wall-time:     0 d,  0 h,  0 min,  3.742 sec
 *  cpu-time:     0 d,  0 h,  0 min,  2.340 sec
 * ratio c/w:     0.625 speedup
 SCF:
 * wall-time:     0 d,  0 h,  0 min,  0.142 sec
 *  cpu-time:     0 d,  0 h,  0 min,  0.098 sec
 * ratio c/w:     0.688 speedup
 ANC optimizer:
 * wall-time:     0 d,  0 h,  0 min,  3.582 sec
 *  cpu-time:     0 d,  0 h,  0 min,  2.226 sec
 * ratio c/w:     0.622 speedup



----- Single-point -----
      -----------------------------------------------------------      
     |                   =====================                   |     
     |                           x T B                           |     
     |                   =====================                   |     
     |                         S. Grimme                         |     
     |          Mulliken Center for Theoretical Chemistry        |     
     |                    University of Bonn                     |     
[...]
   A. Katbashev, J. Kohn, J. Koopman, C. Lavigne, S. Lehtola, F. März, M. Müller,
   F. Musil, H. Neugebauer, J. Pisarek, C. Plett, P. Pracht, F. Pultar,
   J. Seibert, P. Shushkov, S. Spicher, M. Stahn, M. Steiner, T. Strunk,
   J. Stückrath, T. Rose, and J. Unsleber
   
 * started run on 2025/05/15 at 16:26:33.654     
   ID    Z sym.   atoms
    1    8 O      1, 14
    2    6 C      2-5, 7-12, 15-19, 21, 22, 24, 26-30
    3    7 N      6, 13, 23, 25
    4    9 F      20
    5    1 H      31-57

           -------------------------------------------------
          |                Calculation Setup                |
           -------------------------------------------------

          program call               : xtb /rds/general/user/hgt20/home/callum/QDESCP/Risperidone_rdkit_conf_18/Risperidone_rdkit_conf_18.xyz --acc 1 --gfn 2 --chrg 0 --uhf 2 --etemp 300 --input /rds/general/user/hgt20/home/callum/QDESCP/Risperidone_rdkit_conf_18/Risperidone_rdkit_conf_18_xtb.inp -P 1
          hostname                   : login-c
          coordinate file            : /rds/general/user/hgt20/home/callum/QDESCP/Risperidone_rdkit_conf_18/Risperidone_rdkit_conf_18.xyz
          omp threads                :                     1


           -------------------------------------------------
          |                 G F N 2 - x T B                 |
           -------------------------------------------------

        Reference                      10.1021/acs.jctc.8b01176
      * Hamiltonian:
        H0-scaling (s, p, d)           1.850000    2.230000    2.230000
        zeta-weighting                 0.500000
      * Dispersion:
        s8                             2.700000
        a1                             0.520000
        a2                             5.000000
        s9                             5.000000
      * Repulsion:
        kExp                           1.500000    1.000000
        rExp                           1.000000
      * Coulomb:
        alpha                          2.000000
        third order                    shell-resolved
        anisotropic                    true
        a3                             3.000000
        a5                             4.000000
        cn-shift                       1.200000
        cn-exp                         4.000000
        max-rad                        5.000000


          ...................................................
          :                      SETUP                      :
          :.................................................:
          :  # basis functions                 147          :
          :  # atomic orbitals                 147          :
          :  # shells                           87          :
          :  # electrons                       158          :
          :  max. iterations                   250          :
          :  Hamiltonian                  GFN2-xTB          :
          :  restarted?                      false          :
          :  GBSA solvation                  false          :
          :  PC potential                    false          :
          :  electronic temp.          300.0000000     K    :
          :  accuracy                    1.0000000          :
          :  -> integral cutoff          0.2500000E+02      :
          :  -> integral neglect         0.1000000E-07      :
          :  -> SCF convergence          0.1000000E-05 Eh   :
          :  -> wf. convergence          0.1000000E-03 e    :
          :  Broyden damping             0.4000000          :
          :  net charge                          0          :
          :  unpaired electrons                  2          :
          ...................................................

 iter      E             dE          RMSdq      gap      omega  full diag
   1    -88.4014468 -0.884014E+02  0.355E+00    0.18       0.0  T
   2    -88.2558617  0.145585E+00  0.309E+00    0.98       1.0  T
   3    -88.4201159 -0.164254E+00  0.215E+00    1.03       1.0  T
   4    -88.4622280 -0.421121E-01  0.167E+00    0.93       1.0  T
   5    -88.5814904 -0.119262E+00  0.966E-01    0.10       1.0  T
   6    -88.4828968  0.985937E-01  0.112E+00    0.66       1.0  T
   7    -88.6463359 -0.163439E+00  0.680E-01    0.07       1.0  T
   8    -88.6435776  0.275838E-02  0.601E-01    0.08       1.0  T
   9    -88.6298507  0.137269E-01  0.700E-01    0.24       1.0  T
  10    -88.6693269 -0.394762E-01  0.437E-01    0.10       1.0  T
  11    -88.6809025 -0.115756E-01  0.292E-01    0.06       1.0  T
  12    -88.6811263 -0.223785E-03  0.259E-01    0.01       1.0  T
  13    -88.6886538 -0.752757E-02  0.105E-01    0.04       1.0  T
  14    -88.6891106 -0.456796E-03  0.926E-02    0.01       1.0  T
  15    -88.6900258 -0.915168E-03  0.303E-02    0.02       1.0  T
  16    -88.6900939 -0.680694E-04  0.188E-02    0.03       1.0  T
  17    -88.6901394 -0.454786E-04  0.390E-03    0.03       3.4  T
  18    -88.6901366  0.278235E-05  0.605E-03    0.03       2.2  T
  19    -88.6901400 -0.338775E-05  0.340E-03    0.03       3.9  T
  20    -88.6901411 -0.109672E-05  0.196E-03    0.03       6.7  T
  21    -88.6901416 -0.522203E-06  0.351E-04    0.03      37.8  T
  22    -88.6901416 -0.173215E-07  0.762E-05    0.03     173.8  T

   *** convergence criteria satisfied after 22 iterations ***

         #    Occupation            Energy/Eh            Energy/eV
      -------------------------------------------------------------
         1        2.0000           -0.7996372             -21.7592
       ...           ...                  ...                  ...
        74        2.0000           -0.4005516             -10.8996
        75        2.0000           -0.3946614             -10.7393
        76        2.0000           -0.3926808             -10.6854
        77        1.9905           -0.3872211             -10.5368
        78        1.9666           -0.3860093             -10.5038
        79        1.0429           -0.3798624             -10.3366
        80        0.6232           -0.2509356              -6.8283 (HOMO)
        81        0.3768           -0.2499795              -6.8023 (LUMO)
        82                         -0.2251332              -6.1262
        83                         -0.2115067              -5.7554
        84                         -0.1779471              -4.8422
        85                         -0.1234568              -3.3594
       ...                                ...                  ...
       147                          0.7044715              19.1696
      -------------------------------------------------------------
                  HL-Gap            0.0009561 Eh            0.0260 eV
             Fermi-level           -0.3166344 Eh           -8.6161 eV

 transition dipole moment (au) for excitation:          79          80
     X       Y       Z   
  -1.2421   0.4039  -0.2097  total (au/Debye):    1.323   3.362
 dE (eV)             :    3.508
 oscillator strength :  0.21270E+00

 SCC (total)                   0 d,  0 h,  0 min,  0.157 sec
 SCC setup                      ...        0 min,  0.001 sec (  0.364%)
 Dispersion                     ...        0 min,  0.001 sec (  0.547%)
 classical contributions        ...        0 min,  0.000 sec (  0.165%)
 integral evaluation            ...        0 min,  0.012 sec (  7.430%)
 iterations                     ...        0 min,  0.085 sec ( 54.284%)
 molecular gradient             ...        0 min,  0.049 sec ( 31.040%)
 printout                       ...        0 min,  0.010 sec (  6.166%)

         :::::::::::::::::::::::::::::::::::::::::::::::::::::
         ::                     SUMMARY                     ::
         :::::::::::::::::::::::::::::::::::::::::::::::::::::
         :: total energy             -87.534659305838 Eh    ::
         :: gradient norm              0.120820675040 Eh/a0 ::
         :: HOMO-LUMO gap              0.026015559259 eV    ::
         ::.................................................::
         :: SCC energy               -88.690090235763 Eh    ::
         :: -> isotropic ES            0.078843056543 Eh    ::
         :: -> anisotropic ES          0.002066639640 Eh    ::
         :: -> anisotropic XC          0.035837154829 Eh    ::
         :: -> dispersion             -0.062696190877 Eh    ::
         :: repulsion energy           1.155430929926 Eh    ::
         :: add. restraining           0.000000000000 Eh    ::
         :: total charge               0.000000000582 e     ::
         :::::::::::::::::::::::::::::::::::::::::::::::::::::

           -------------------------------------------------
          |                Property Printout                |
           -------------------------------------------------

    * Orbital Energies and Occupations

         #    Occupation            Energy/Eh            Energy/eV
      -------------------------------------------------------------
         1        2.0000           -0.7996372             -21.7592
       ...           ...                  ...                  ...
        68        2.0000           -0.4422112             -12.0332
        69        2.0000           -0.4374972             -11.9049
        70        2.0000           -0.4304871             -11.7142
        71        2.0000           -0.4266881             -11.6108
        72        2.0000           -0.4243185             -11.5463
        73        2.0000           -0.4033357             -10.9753
        74        2.0000           -0.4005516             -10.8996
        75        2.0000           -0.3946614             -10.7393
        76        2.0000           -0.3926808             -10.6854
        77        1.9905           -0.3872211             -10.5368
        78        1.9666           -0.3860093             -10.5038
        79        1.0429           -0.3798624             -10.3366
        80        0.6232           -0.2509356              -6.8283 (HOMO)
        81        0.3768           -0.2499795              -6.8023 (LUMO)
        82                         -0.2251332              -6.1262
        83                         -0.2115067              -5.7554
        84                         -0.1779471              -4.8422
        85                         -0.1234568              -3.3594
        86                         -0.0792022              -2.1552
        87                         -0.0274548              -0.7471
        88                         -0.0076093              -0.2071
        89                          0.0046552               0.1267
        90                          0.0473049               1.2872
        91                          0.0523071               1.4233
       ...                                ...                  ...
       147                          0.7044715              19.1696
      -------------------------------------------------------------
                  HL-Gap            0.0009561 Eh            0.0260 eV
             Fermi-level           -0.3166344 Eh           -8.6161 eV

     #   Z          covCN         q      C6AA      α(0)
     1   8 O        0.858    -0.443    22.551     6.367
     2   6 C        2.781     0.253    22.748     7.812
     3   6 C        2.960    -0.058    29.434     8.899
     4   6 C        3.806    -0.057    21.601     6.616
     5   6 C        3.755    -0.001    20.659     6.481
     6   7 N        2.732    -0.073    22.666     7.071
     7   6 C        3.765    -0.006    20.723     6.488
     8   6 C        3.811    -0.061    21.668     6.626
     9   6 C        3.857    -0.020    20.897     6.501
    10   6 C        3.808    -0.063    21.700     6.631
    11   6 C        3.764    -0.011    20.812     6.503
    12   6 C        3.006     0.059    26.659     8.470
    13   7 N        1.955    -0.169    25.444     7.480
    14   8 O        1.800    -0.161    16.707     5.520
    15   6 C        3.048     0.132    25.065     8.211
    16   6 C        3.032    -0.046    29.109     8.850
    17   6 C        2.914    -0.052    29.287     8.874
    18   6 C        2.920    -0.060    29.485     8.905
    19   6 C        2.797     0.157    24.582     8.122
    20   9 F        0.788    -0.231    11.560     4.016
    21   6 C        2.906    -0.088    30.195     9.010
    22   6 C        2.949     0.067    26.498     8.443
    23   7 N        1.845    -0.259    27.591     7.785
    24   6 C        2.902     0.138    24.982     8.195
    25   7 N        2.753    -0.091    23.025     7.127
    26   6 C        3.757     0.003    20.576     6.468
    27   6 C        3.804    -0.063    21.713     6.634
    28   6 C        3.803    -0.058    21.616     6.619
    29   6 C        3.812    -0.071    21.858     6.655
    30   6 C        3.760    -0.115    22.753     6.800
    31   1 H        0.924     0.068     2.107     2.270
    32   1 H        0.925     0.054     2.268     2.355
    33   1 H        0.924     0.066     2.130     2.283
    34   1 H        0.924     0.051     2.310     2.377
    35   1 H        0.923     0.066     2.134     2.285
    36   1 H        0.924     0.057     2.238     2.340
    37   1 H        0.924     0.048     2.346     2.395
    38   1 H        0.924     0.049     2.329     2.387
    39   1 H        0.924     0.044     2.394     2.420
    40   1 H        0.924     0.048     2.342     2.393
    41   1 H        0.924     0.051     2.310     2.377
    42   1 H        0.923     0.082     1.961     2.190
    43   1 H        0.924     0.049     2.338     2.391
    44   1 H        0.926     0.029     2.601     2.522
    45   1 H        0.926     0.050     2.325     2.385
    46   1 H        0.926     0.059     2.214     2.327
    47   1 H        0.924     0.045     2.383     2.414
    48   1 H        0.924     0.079     1.991     2.206
    49   1 H        0.924     0.045     2.387     2.416
    50   1 H        0.925     0.045     2.386     2.415
    51   1 H        0.925     0.044     2.400     2.422
    52   1 H        0.925     0.042     2.427     2.436
    53   1 H        0.925     0.065     2.147     2.291
    54   1 H        0.924     0.053     2.283     2.363
    55   1 H        0.925     0.045     2.386     2.416
    56   1 H        0.925     0.065     2.138     2.287
    57   1 H        0.925     0.052     2.296     2.369

 Mol. C6AA /au·bohr⁶  :      34263.045223
 Mol. C8AA /au·bohr⁸  :     797078.498938
 Mol. α(0) /au        :        281.909049


Wiberg/Mayer (AO) data.
largest (>0.10) Wiberg bond orders for each atom

 ---------------------------------------------------------------------------
     #   Z sym  total        # sym  WBO       # sym  WBO       # sym  WBO
 ---------------------------------------------------------------------------
     1   8 O    1.944 --     2 C    1.608
     2   6 C    3.922 --     1 O    1.608     3 C    1.165    25 N    1.041
     3   6 C    3.792 --    22 C    1.250     2 C    1.165     4 C    1.057
     4   6 C    3.980 --     3 C    1.057    32 H    0.963    31 H    0.962
                             5 C    0.910
     5   6 C    3.964 --     6 N    1.040    34 H    0.968    33 H    0.965
                             4 C    0.910
     6   7 N    3.320 --     5 C    1.040    11 C    1.010     7 C    1.006
     7   6 C    3.970 --     6 N    1.006     8 C    0.999    36 H    0.970
                            35 H    0.938
     8   6 C    3.983 --     7 C    0.999     9 C    0.976    37 H    0.975
                            38 H    0.974
     9   6 C    3.995 --    12 C    1.003    10 C    0.991     8 C    0.976
                            39 H    0.961
    10   6 C    3.987 --    11 C    0.999     9 C    0.991    41 H    0.975
                            40 H    0.974
    11   6 C    3.966 --     6 N    1.010    10 C    0.999    43 H    0.970
                            42 H    0.926
    12   6 C    3.888 --    13 N    1.531    16 C    1.201     9 C    1.003
    13   7 N    2.827 --    12 C    1.531    14 O    1.033
    14   8 O    2.357 --    15 C    1.112    13 N    1.033
    15   6 C    3.928 --    21 C    1.346    16 C    1.273    14 O    1.112
    16   6 C    3.954 --    17 C    1.283    15 C    1.273    12 C    1.201
    17   6 C    3.875 --    18 C    1.478    16 C    1.283    44 H    0.969
    18   6 C    3.978 --    17 C    1.478    19 C    1.356    45 H    0.968
    19   6 C    3.810 --    21 C    1.381    18 C    1.356    20 F    0.954
    20   9 F    1.071 --    19 C    0.954
    21   6 C    3.904 --    19 C    1.381    15 C    1.346    46 H    0.965
    22   6 C    3.774 --    23 N    1.312     3 C    1.250    30 C    1.027
    23   7 N    3.002 --    24 C    1.449    22 C    1.312
    24   6 C    3.803 --    23 N    1.449    25 N    1.177    29 C    1.013
    25   7 N    3.466 --    24 C    1.177     2 C    1.041    26 C    0.985
    26   6 C    3.964 --    27 C    0.996    25 N    0.985    48 H    0.964
                            47 H    0.962
    27   6 C    3.990 --    28 C    1.003    26 C    0.996    49 H    0.980
                            50 H    0.977
    28   6 C    3.989 --    27 C    1.003    29 C    0.988    51 H    0.981
                            52 H    0.980
    29   6 C    3.991 --    24 C    1.013    28 C    0.988    53 H    0.973
                            54 H    0.952
    30   6 C    3.992 --    22 C    1.027    56 H    0.983    55 H    0.967
                            57 H    0.963
    31   1 H    0.993 --     4 C    0.962
    32   1 H    0.995 --     4 C    0.963
    33   1 H    0.994 --     5 C    0.965
    34   1 H    0.996 --     5 C    0.968
    35   1 H    0.986 --     7 C    0.938
    36   1 H    0.996 --     7 C    0.970
    37   1 H    0.997 --     8 C    0.975
    38   1 H    0.995 --     8 C    0.974
    39   1 H    0.996 --     9 C    0.961
    40   1 H    0.995 --    10 C    0.974
    41   1 H    0.997 --    10 C    0.975
    42   1 H    0.978 --    11 C    0.926
    43   1 H    0.997 --    11 C    0.970
    44   1 H    0.999 --    17 C    0.969
    45   1 H    0.997 --    18 C    0.968
    46   1 H    0.996 --    21 C    0.965
    47   1 H    0.992 --    26 C    0.962
    48   1 H    0.993 --    26 C    0.964
    49   1 H    0.998 --    27 C    0.980
    50   1 H    0.997 --    27 C    0.977
    51   1 H    0.997 --    28 C    0.981
    52   1 H    0.997 --    28 C    0.980
    53   1 H    0.995 --    29 C    0.973
    54   1 H    0.989 --    29 C    0.952
    55   1 H    0.991 --    30 C    0.967
    56   1 H    0.995 --    30 C    0.983
    57   1 H    0.990 --    30 C    0.963
 ---------------------------------------------------------------------------

Topologies differ in total number of bonds
Writing topology from bond orders to xtbtopo.mol

molecular dipole:
                 x           y           z       tot (Debye)
 q only:       -2.913       0.733       1.968
   full:       -2.546       0.436       1.938       8.209
molecular quadrupole (traceless):
                xx          xy          yy          xz          yz          zz
 q only:      -14.736       9.508      10.735      31.676       1.612       4.001
  q+dip:      -12.871      12.274       6.512      29.452       1.092       6.359
   full:      -13.454      13.655       7.607      29.606       2.064       5.846


           -------------------------------------------------
          | TOTAL ENERGY              -87.534659305838 Eh   |
          | GRADIENT NORM               0.120820675040 Eh/α |
          | HOMO-LUMO GAP               0.026015559259 eV   |
           -------------------------------------------------

------------------------------------------------------------------------
 * finished run on 2025/05/15 at 16:26:33.828     
------------------------------------------------------------------------
 total:
 * wall-time:     0 d,  0 h,  0 min,  0.174 sec
 *  cpu-time:     0 d,  0 h,  0 min,  0.158 sec
 * ratio c/w:     0.908 speedup
 SCF:
 * wall-time:     0 d,  0 h,  0 min,  0.157 sec
 *  cpu-time:     0 d,  0 h,  0 min,  0.142 sec
 * ratio c/w:     0.906 speedup


