57
 energy: -87.645320172495 gnorm: 0.000973535496 xtb: 6.7.1 (edcfbbe)
O           -2.48747378993396       -2.05454981124563        0.30689680517663
C           -3.08522625658003       -1.00612503358320        0.12839639170669
C           -2.48323548743275        0.29126983021597       -0.07971900275192
C           -0.99010409026328        0.33719329338436       -0.04244915088094
C           -0.50232126362726        0.46034409869777        1.42093843536935
N            0.92350320848078        0.56354029676173        1.60641769073408
C            1.67060059009614       -0.59205766557600        1.15106063485835
C            3.06677294936755       -0.55038058204041        1.76311689556101
C            3.80612414475606        0.72985946457774        1.33952381055158
C            2.92354239053976        1.94143728148733        1.65500563351174
C            1.51560694701575        1.78181425488389        1.08699489377887
C            4.20770069849563        0.64103009009827       -0.09403938647946
N            3.44441979850231        0.94815943109009       -1.09819105927456
O            4.11902565447993        0.72594667137594       -2.27199530583454
C            5.34182658749855        0.25916065793550       -1.97476958341849
C            5.47842801694850        0.17232363154126       -0.57621529957100
C            6.66631478970620       -0.28905352682972       -0.01320182628366
C            7.68607278288733       -0.64867355118428       -0.86299942438040
C            7.51639900403334       -0.54721854036216       -2.24670297947430
F            8.54757435193036       -0.90997951678203       -3.03252915113589
C            6.36017430879229       -0.09868548723555       -2.84699902507406
C           -3.27961897178539        1.38748646669977       -0.25792046041394
N           -4.63753822352762        1.30343296746008       -0.26877360460712
C           -5.18571247114335        0.14872477080092       -0.09210433240645
N           -4.48545731954469       -0.99042074602374        0.11071764970978
C           -5.22223397160808       -2.22790818033224        0.23988158833092
C           -6.19128305237320       -2.35608662200185       -0.93352859231948
C           -7.11271445435425       -1.12758201998138       -1.03485170181092
C           -6.67126040583283       -0.00105079896949       -0.08868243800462
C           -2.73993653627506        2.76760914793558       -0.46943141848525
H           -0.60716271736686       -0.59750364944884       -0.45472384069131
H           -0.61225735189946        1.17307746339125       -0.62984992702864
H           -0.84594629998554       -0.42161287967443        1.96880494746606
H           -0.96013601203748        1.34274286623945        1.87920896190309
H            1.75741522592127       -0.61717526943596        0.05241239955655
H            1.15043246341179       -1.49469767958916        1.47875305789375
H            3.63490246817591       -1.43311549331166        1.46232116092560
H            2.97381123990951       -0.54922106113344        2.84992330608863
H            4.73235118598013        0.80674045369465        1.92132211553144
H            2.85572282307685        2.03623093096812        2.74044298116026
H            3.37783228158741        2.84908807287409        1.25421708555424
H            1.57897638013774        1.77878061275664       -0.01111678548476
H            0.90168398541596        2.62833407747288        1.40575977205293
H            6.78124880533447       -0.36280440117110        1.05660879093822
H            8.62824123474286       -1.01244460980964       -0.48534251651879
H            6.25992111893919       -0.03251181126385       -3.91659403216318
H           -5.76344313591347       -2.23574753532659        1.19168856317691
H           -4.48759216599687       -3.03687655656339        0.24519039035021
H           -5.60344591603606       -2.45509452700266       -1.84734641686530
H           -6.77337279980402       -3.26936461117783       -0.81371077530676
H           -7.10436712833461       -0.74901131475682       -2.05708846092066
H           -8.14085064209526       -1.39945602426149       -0.79502839009658
H           -7.12166275536501        0.94816119142250       -0.37386378162500
H           -6.98872332023913       -0.23649639497727        0.93110638614324
H           -2.07924698942032        3.05398141346762        0.34484464614645
H           -3.56941014719241        3.46551757104934       -0.52318354825679
H           -2.17479176019812        2.81681889277025       -1.39830277661513
