42
 energy: -71.308790640550 gnorm: 0.000538672972 xtb: 6.7.1 (edcfbbe)
O           -5.97425690941605        0.77065130215964        0.04844582529066
C           -5.13404895240723        1.53864457308956       -0.37142593793604
O           -5.45337347348857        2.69276979768062       -0.94832391214504
C           -3.68534344649672        1.28238273258098       -0.27638371643788
C           -3.31592678493587        0.19632985688247        0.45826732978284
N           -2.04810126557132       -0.19976921398409        0.66204982285931
C           -1.00607666474961        0.56466404713635        0.15732294254814
C            0.32027381320050        0.22867480138671        0.41990132433891
C            1.39582550731367        0.97076041109303       -0.07534523939153
N            2.69983620851947        0.68377908296943        0.24530736512519
C            3.75213182623395        0.71014552984486       -0.75456637278400
C            3.96980413356504       -0.70841107474763       -1.31462538071104
N            4.26788742941402       -1.68315723770626       -0.28144029550468
C            3.24700698935655       -1.66613402947650        0.74971386798697
C            3.02590699533732       -0.24783582266838        1.30488290510778
C            1.05579030134742        2.09653190001814       -0.85938299897120
F            2.03271817404515        2.91070330806401       -1.33384313487602
C           -0.23888982460687        2.43512120790581       -1.13591035042457
C           -1.30451410855062        1.68320674529381       -0.63453839107744
C           -2.68073593954820        2.11143010875766       -0.94206194603286
O           -2.91393422373749        3.05185604609926       -1.67968125276861
C           -1.78839556367344       -1.38530037846792        1.42512987951581
C           -2.62376119736588       -2.60711797467793        1.18956571904557
C           -1.19782676242008       -2.58377937106903        0.73627856557812
H           -6.41727597458201        2.79025967127016       -0.99084108986645
H           -4.09006607003871       -0.39895731793246        0.92397796095916
H            0.51959981913646       -0.64299781227401        1.01699944573473
H            3.50841144653222        1.38831211547086       -1.56641632527280
H            4.67163265385320        1.06355019739677       -0.27265951452865
H            3.05681445458390       -1.03622448108472       -1.82266036837832
H            4.78684900664664       -0.70298053057028       -2.03769799931411
H            5.17357562939548       -1.47518326117966        0.13095641967883
H            2.32167246810552       -2.03562734155633        0.29679960440640
H            3.54157283563801       -2.34751226332118        1.55016950572723
H            3.96178585623550        0.10165131354899        1.75994497520914
H            2.25451236705452       -0.22833920071357        2.07393757576258
H           -0.46111984781364        3.30756719700409       -1.73065232669267
H           -1.47087294820699       -1.17792923928153        2.44333927667528
H           -3.39070613742213       -2.56317033001641        0.43244979273888
H           -2.88898350942259       -3.20883417956519        2.04475942505057
H           -1.01150329833728       -2.50470682825022       -0.32386175714141
H           -0.46779501272501       -3.17522405711363        1.26761878112823
