----- Optimization -----
      -----------------------------------------------------------      
     |                   =====================                   |     
     |                           x T B                           |     
     |                   =====================                   |     
     |                         S. Grimme                         |     
     |          Mulliken Center for Theoretical Chemistry        |     
     |                    University of Bonn                     |     
      -----------------------------------------------------------      

   * xtb version 6.7.1 (edcfbbe) compiled by 'conda@3ef47c1a292c' on 2024-11-25

   xtb is free software: you can redistribute it and/or modify it under
   the terms of the GNU Lesser General Public License as published by
   the Free Software Foundation, either version 3 of the License, or
   (at your option) any later version.
   
   xtb is distributed in the hope that it will be useful,
   but WITHOUT ANY WARRANTY; without even the implied warranty of
   MERCHANTABILITY or FITNESS FOR A PARTICULAR PURPOSE.  See the
   GNU Lesser General Public License for more details.
   
   Cite this work as:
   * C. Bannwarth, E. Caldeweyher, S. Ehlert, A. Hansen, P. Pracht,
     J. Seibert, S. Spicher, S. Grimme, WIREs Comput. Mol. Sci., 2020, 11,
     e01493. DOI: 10.1002/wcms.1493
   
   for GFN2-xTB:
   * C. Bannwarth, S. Ehlert and S. Grimme., J. Chem. Theory Comput., 2019,
     15, 1652-1671. DOI: 10.1021/acs.jctc.8b01176
   for GFN1-xTB:
   * S. Grimme, C. Bannwarth, P. Shushkov, J. Chem. Theory Comput., 2017,
     13, 1989-2009. DOI: 10.1021/acs.jctc.7b00118
   for GFN0-xTB:
   * P. Pracht, E. Caldeweyher, S. Ehlert, S. Grimme, ChemRxiv, 2019, preprint.
     DOI: 10.26434/chemrxiv.8326202.v1
   for GFN-FF:
   * S. Spicher and S. Grimme, Angew. Chem. Int. Ed., 2020, 59, 15665-15673.
     DOI: 10.1002/anie.202004239
   
   for ALPB and GBSA implicit solvation:
   * S. Ehlert, M. Stahn, S. Spicher, S. Grimme, J. Chem. Theory Comput.,
     2021, 17, 4250-4261. DOI: 10.1021/acs.jctc.1c00471
   
   for ddCOSMO and CPCM-X implicit solvation:
   * M. Stahn, S. Ehlert, S. Grimme, J. Phys. Chem. A,
     2023, XX, XXXX-XXXX. DOI: 10.1021/acs.jpca.3c04382
   
   for DFT-D4:
   * E. Caldeweyher, C. Bannwarth and S. Grimme, J. Chem. Phys., 2017,
     147, 034112. DOI: 10.1063/1.4993215
   * E. Caldeweyher, S. Ehlert, A. Hansen, H. Neugebauer, S. Spicher,
     C. Bannwarth and S. Grimme, J. Chem. Phys., 2019, 150, 154122.
     DOI: 10.1063/1.5090222
   * E. Caldeweyher, J.-M. Mewes, S. Ehlert and S. Grimme, Phys. Chem. Chem. Phys.
     2020, 22, 8499-8512. DOI: 10.1039/D0CP00502A
   
   for sTDA-xTB:
   * S. Grimme and C. Bannwarth, J. Chem. Phys., 2016, 145, 054103.
     DOI: 10.1063/1.4959605
   
   in the mass-spec context:
   * V. Asgeirsson, C. Bauer and S. Grimme, Chem. Sci., 2017, 8, 4879.
     DOI: 10.1039/c7sc00601b
   * J. Koopman and S. Grimme, ACS Omega 2019, 4, 12, 15120-15133.
     DOI: 10.1021/acsomega.9b02011
   
   for metadynamics refer to:
   * S. Grimme, J. Chem. Theory Comput., 2019, 155, 2847-2862
     DOI: 10.1021/acs.jctc.9b00143
   
   for SPH calculations refer to:
   * S. Spicher and S. Grimme, J. Chem. Theory Comput., 2021, 17, 1701-1714
     DOI: 10.1021/acs.jctc.0c01306
   
   for ONIOM refer to:
   * C. Plett, A. Katbashev, S. Ehlert, S. Grimme, M. Bursch,
     Phys. Chem. Chem. Phys., 2023, 25, 17860-17868. DOI: 10.1039/D3CP02178E
   
   for DIPRO refer to:
   * J. Kohn, N. Gildemeister, S. Grimme, D. Fazzi, A. Hansen,
     J. Chem. Phys., 2023, just accepted.
   
   for PTB refer to:
   * S. Grimme, M. Mueller, A. Hansen, J. Chem. Phys., 2023, 158, 124111.
     DOI: 10.1063/5.0137838
   
   with help from (in alphabetical order)
   P. Atkinson, C. Bannwarth, F. Bohle, G. Brandenburg, E. Caldeweyher
   M. Checinski, S. Dohm, S. Ehlert, S. Ehrlich, I. Gerasimov, C. Hölzer
   A. Katbashev, J. Kohn, J. Koopman, C. Lavigne, S. Lehtola, F. März, M. Müller,
   F. Musil, H. Neugebauer, J. Pisarek, C. Plett, P. Pracht, F. Pultar,
   J. Seibert, P. Shushkov, S. Spicher, M. Stahn, M. Steiner, T. Strunk,
   J. Stückrath, T. Rose, and J. Unsleber
   
 * started run on 2025/05/15 at 16:26:20.271     
   ID    Z sym.   atoms
    1   17 Cl     1
    2    6 C      2-16, 18, 19, 21-25
    3    7 N      17, 20
    4    1 H      26-42

           -------------------------------------------------
          |                Calculation Setup                |
           -------------------------------------------------

          program call               : xtb /rds/general/user/hgt20/home/callum/QDESCP/Clotrimazole_rdkit_conf_1/Clotrimazole_rdkit_conf_1.xyz --opt normal --acc 1 --gfn 2 --chrg 0 --uhf 0 -P 1
          hostname                   : login-c
          coordinate file            : /rds/general/user/hgt20/home/callum/QDESCP/Clotrimazole_rdkit_conf_1/Clotrimazole_rdkit_conf_1.xyz
          omp threads                :                     1


           -------------------------------------------------
          |                 G F N 2 - x T B                 |
           -------------------------------------------------

        Reference                      10.1021/acs.jctc.8b01176
      * Hamiltonian:
        H0-scaling (s, p, d)           1.850000    2.230000    2.230000
        zeta-weighting                 0.500000
      * Dispersion:
        s8                             2.700000
        a1                             0.520000
        a2                             5.000000
        s9                             5.000000
      * Repulsion:
        kExp                           1.500000    1.000000
        rExp                           1.000000
      * Coulomb:
        alpha                          2.000000
        third order                    shell-resolved
        anisotropic                    true
        a3                             3.000000
        a5                             4.000000
        cn-shift                       1.200000
        cn-exp                         4.000000
        max-rad                        5.000000


          ...................................................
          :                      SETUP                      :
          :.................................................:
          :  # basis functions                 123          :
          :  # atomic orbitals                 122          :
          :  # shells                           68          :
          :  # electrons                       122          :
          :  max. iterations                   250          :
          :  Hamiltonian                  GFN2-xTB          :
          :  restarted?                      false          :
          :  GBSA solvation                  false          :
          :  PC potential                    false          :
          :  electronic temp.          300.0000000     K    :
          :  accuracy                    1.0000000          :
          :  -> integral cutoff          0.2500000E+02      :
          :  -> integral neglect         0.1000000E-07      :
          :  -> SCF convergence          0.1000000E-05 Eh   :
          :  -> wf. convergence          0.1000000E-03 e    :
          :  Broyden damping             0.4000000          :
          :  net charge                          0          :
          :  unpaired electrons                  0          :
          ...................................................

 iter      E             dE          RMSdq      gap      omega  full diag
   1    -67.0863722 -0.670864E+02  0.445E+00    3.96       0.0  T
   2    -67.1609877 -0.746155E-01  0.275E+00    3.12       1.0  T
   3    -67.1515916  0.939606E-02  0.118E+00    3.40       1.0  T
   4    -67.1672425 -0.156509E-01  0.398E-01    3.20       1.0  T
   5    -67.1719132 -0.467072E-02  0.926E-02    3.21       1.0  T
   6    -67.1720353 -0.122016E-03  0.452E-02    3.19       1.0  T
   7    -67.1720720 -0.367846E-04  0.286E-02    3.19       1.0  T
   8    -67.1720826 -0.105361E-04  0.176E-02    3.19       1.0  T
   9    -67.1720862 -0.360715E-05  0.136E-02    3.19       1.1  T
  10    -67.1720892 -0.299853E-05  0.872E-03    3.19       1.8  T
  11    -67.1720905 -0.127883E-05  0.400E-03    3.19       3.9  T
  12    -67.1720910 -0.507702E-06  0.121E-03    3.19      12.7  T
  13    -67.1720910 -0.182604E-07  0.550E-04    3.19      28.1  T
  14    -67.1720910 -0.328838E-08  0.332E-04    3.19      46.5  T

   *** convergence criteria satisfied after 14 iterations ***

         #    Occupation            Energy/Eh            Energy/eV
      -------------------------------------------------------------
         1        2.0000           -1.0615425             -28.8860
       ...           ...                  ...                  ...
        55        2.0000           -0.4118066             -11.2058
        56        2.0000           -0.4085708             -11.1178
        57        2.0000           -0.4069205             -11.0729
        58        2.0000           -0.4029586             -10.9651
        59        2.0000           -0.4015764             -10.9274
        60        2.0000           -0.3771200             -10.2620
        61        2.0000           -0.3712933             -10.1034 (HOMO)
        62                         -0.2539397              -6.9101 (LUMO)
        63                         -0.2489308              -6.7738
        64                         -0.2394297              -6.5152
        65                         -0.2367838              -6.4432
        66                         -0.2349563              -6.3935
       ...                                ...                  ...
       122                          0.6122864              16.6612
      -------------------------------------------------------------
                  HL-Gap            0.1173536 Eh            3.1934 eV
             Fermi-level           -0.3126165 Eh           -8.5067 eV

 SCC (total)                   0 d,  0 h,  0 min,  0.076 sec
 SCC setup                      ...        0 min,  0.000 sec (  0.516%)
 Dispersion                     ...        0 min,  0.001 sec (  0.671%)
 classical contributions        ...        0 min,  0.000 sec (  0.194%)
 integral evaluation            ...        0 min,  0.010 sec ( 13.008%)
 iterations                     ...        0 min,  0.036 sec ( 47.199%)
 molecular gradient             ...        0 min,  0.029 sec ( 37.853%)
 printout                       ...        0 min,  0.000 sec (  0.543%)

         :::::::::::::::::::::::::::::::::::::::::::::::::::::
         ::                     SUMMARY                     ::
         :::::::::::::::::::::::::::::::::::::::::::::::::::::
         :: total energy             -66.144616901624 Eh    ::
         :: gradient norm              0.053302914631 Eh/a0 ::
         :: HOMO-LUMO gap              3.193353908355 eV    ::
         ::.................................................::
         :: SCC energy               -67.170448544025 Eh    ::
         :: -> isotropic ES            0.017236972613 Eh    ::
         :: -> anisotropic ES          0.004358959121 Eh    ::
         :: -> anisotropic XC          0.045430971625 Eh    ::
         :: -> dispersion             -0.058576941996 Eh    ::
         :: repulsion energy           1.025831642401 Eh    ::
         :: add. restraining           0.000000000000 Eh    ::
         :: total charge              -0.000000000000 e     ::
         :::::::::::::::::::::::::::::::::::::::::::::::::::::

      ----------------------------------------------------------- 
     |                   =====================                   |
     |                        A N C O P T                        |
     |                   =====================                   |
     |               Approximate Normal Coordinate               |
     |                Rational Function Optimizer                |
      ----------------------------------------------------------- 
      ----------------------------------------------------------- 
     |                   =====================                   |
     |                        A N C O P T                        |
     |                   =====================                   |
     |               Approximate Normal Coordinate               |
     |                Rational Function Optimizer                |
      ----------------------------------------------------------- 

          ...................................................
          :                      SETUP                      :
          :.................................................:
          :   optimization level            normal          :
          :   max. optcycles                   200          :
          :   ANC micro-cycles                  20          :
          :   degrees of freedom               120          :
          :.................................................:
          :   RF solver                   davidson          :
          :   write xtbopt.log                true          :
          :   linear?                        false          :
          :   energy convergence         0.5000000E-05 Eh   :
          :   grad. convergence          0.1000000E-02 Eh/α :
          :   maxmium RF displ.          1.0000000          :
          :   Hlow (freq-cutoff)         0.1000000E-01      :
          :   Hmax (freq-cutoff)         5.0000000          :
          :   S6 in model hess.         20.0000000          :
          ...................................................

generating ANC from exact Hessian ...
Using Lindh-Hessian (1995)
 Shifting diagonal of input Hessian by    9.4141792559400885E-003
 Lowest  eigenvalues of input Hessian
    0.000000    0.000000    0.000000    0.000000    0.000000    0.000000
    0.010000    0.010070    0.010319    0.010394    0.010669    0.010789
    0.010966    0.011085    0.011691    0.015269    0.016563    0.017119
 Highest eigenvalues
    1.919794    1.921600    1.923054    1.928812    1.930419    2.045521


........................................................................
.............................. CYCLE    1 ..............................
........................................................................

 iter      E             dE          RMSdq      gap      omega  full diag
   1    -67.1720910 -0.671721E+02  0.222E-04    3.19       0.0  T
   2    -67.1720910 -0.266681E-09  0.181E-04    3.19      85.4  T
   3    -67.1720910 -0.150877E-09  0.146E-04    3.19     105.6  T
     SCC iter.                  ...        0 min,  0.009 sec
     gradient                   ...        0 min,  0.028 sec
 * total energy  :   -66.1446169 Eh     change       -0.1791150E-08 Eh
   gradient norm :     0.0533029 Eh/α   predicted     0.0000000E+00 (-100.00%)
   displ. norm   :     0.5117111 α      lambda       -0.1821507E-01
   maximum displ.:     0.3242609 α      in ANC's #20, #18, #23, ...

........................................................................
.............................. CYCLE    2 ..............................
........................................................................

 iter      E             dE          RMSdq      gap      omega  full diag
   1    -67.2464491 -0.672464E+02  0.186E-01    3.25       0.0  T
   2    -67.2465311 -0.820622E-04  0.127E-01    3.21       1.0  T
   3    -67.2464226  0.108499E-03  0.663E-02    3.24       1.0  T
   4    -67.2466293 -0.206643E-03  0.165E-02    3.23       1.0  T
   5    -67.2466389 -0.959591E-05  0.493E-03    3.23       3.1  T
   6    -67.2466390 -0.127188E-06  0.346E-03    3.23       4.5  T
   7    -67.2466391 -0.151458E-06  0.231E-03    3.22       6.7  T
   8    -67.2466392 -0.608380E-07  0.164E-03    3.22       9.4  T
   9    -67.2466392 -0.504303E-07  0.881E-04    3.23      17.5  T
  10    -67.2466393 -0.151107E-07  0.257E-04    3.22      60.2  T
     SCC iter.                  ...        0 min,  0.052 sec
     gradient                   ...        0 min,  0.028 sec
 * total energy  :   -66.1579238 Eh     change       -0.1330692E-01 Eh
   gradient norm :     0.0214102 Eh/α   predicted    -0.1149242E-01 ( -13.64%)
   displ. norm   :     0.5126232 α      lambda       -0.8091899E-02
   maximum displ.:     0.3331929 α      in ANC's #20, #18, #23, ...

........................................................................
.............................. CYCLE    3 ..............................
........................................................................

 iter      E             dE          RMSdq      gap      omega  full diag
   1    -67.2918206 -0.672918E+02  0.155E-01    3.25       0.0  T
   2    -67.2919065 -0.859391E-04  0.112E-01    3.21       1.0  T
   3    -67.2919004  0.610201E-05  0.551E-02    3.24       1.0  T
   4    -67.2919997 -0.992995E-04  0.174E-02    3.23       1.0  T
   5    -67.2920103 -0.106187E-04  0.410E-03    3.23       3.8  T
   6    -67.2920105 -0.151059E-06  0.277E-03    3.23       5.6  T
   7    -67.2920106 -0.720772E-07  0.173E-03    3.23       8.9  T
   8    -67.2920106 -0.275318E-07  0.119E-03    3.23      13.0  T
   9    -67.2920106 -0.220198E-07  0.603E-04    3.23      25.6  T
  10    -67.2920106 -0.467165E-08  0.219E-04    3.23      70.5  T
     SCC iter.                  ...        0 min,  0.024 sec
     gradient                   ...        0 min,  0.034 sec
 * total energy  :   -66.1629017 Eh     change       -0.4977865E-02 Eh
   gradient norm :     0.0100992 Eh/α   predicted    -0.5109156E-02 (   2.64%)
   displ. norm   :     0.2411225 α      lambda       -0.1220966E-02
   maximum displ.:     0.1273956 α      in ANC's #20, #18, #23, ...

........................................................................
.............................. CYCLE    4 ..............................
........................................................................

 iter      E             dE          RMSdq      gap      omega  full diag
   1    -67.2960281 -0.672960E+02  0.880E-02    3.24       0.0  T
   2    -67.2960384 -0.102586E-04  0.561E-02    3.22       1.0  T
   3    -67.2960009  0.374696E-04  0.280E-02    3.24       1.0  T
   4    -67.2960475 -0.465908E-04  0.553E-03    3.23       2.8  T
   5    -67.2960486 -0.109357E-05  0.210E-03    3.23       7.4  T
   6    -67.2960486 -0.166720E-07  0.153E-03    3.23      10.1  T
   7    -67.2960486 -0.335884E-07  0.969E-04    3.23      15.9  T
   8    -67.2960486 -0.106424E-07  0.615E-04    3.23      25.1  T
     SCC iter.                  ...        0 min,  0.020 sec
     gradient                   ...        0 min,  0.064 sec
 * total energy  :   -66.1635855 Eh     change       -0.6838264E-03 Eh
   gradient norm :     0.0060924 Eh/α   predicted    -0.6459767E-03 (  -5.53%)
   displ. norm   :     0.1081021 α      lambda       -0.2054687E-03
   maximum displ.:     0.0434275 α      in ANC's #3, #9, #2, ...

........................................................................
.............................. CYCLE    5 ..............................
........................................................................

 iter      E             dE          RMSdq      gap      omega  full diag
   1    -67.2953191 -0.672953E+02  0.396E-02    3.23       0.0  T
   2    -67.2953194 -0.360388E-06  0.232E-02    3.23       1.0  T
   3    -67.2953188  0.652256E-06  0.410E-03    3.23       3.8  T
   4    -67.2953196 -0.803436E-06  0.985E-04    3.23      15.7  T
   5    -67.2953196 -0.118332E-07  0.682E-04    3.23      22.6  T
     SCC iter.                  ...        0 min,  0.013 sec
     gradient                   ...        0 min,  0.028 sec
 * total energy  :   -66.1637201 Eh     change       -0.1345978E-03 Eh
   gradient norm :     0.0031620 Eh/α   predicted    -0.1039868E-03 ( -22.74%)
   displ. norm   :     0.1189881 α      lambda       -0.1051278E-03
   maximum displ.:     0.0642033 α      in ANC's #3, #2, #7, ...

........................................................................
.............................. CYCLE    6 ..............................
........................................................................

 iter      E             dE          RMSdq      gap      omega  full diag
   1    -67.2940108 -0.672940E+02  0.362E-02    3.23       0.0  T
   2    -67.2940115 -0.734645E-06  0.214E-02    3.23       1.0  T
   3    -67.2940080  0.353510E-05  0.846E-03    3.23       1.8  T
   4    -67.2940121 -0.409287E-05  0.132E-03    3.23      11.7  T
   5    -67.2940122 -0.563288E-07  0.647E-04    3.23      23.8  T
   6    -67.2940122 -0.440475E-08  0.392E-04    3.23      39.4  T
     SCC iter.                  ...        0 min,  0.032 sec
     gradient                   ...        0 min,  0.031 sec
 * total energy  :   -66.1637934 Eh     change       -0.7326212E-04 Eh
   gradient norm :     0.0019523 Eh/α   predicted    -0.5333466E-04 ( -27.20%)
   displ. norm   :     0.1865955 α      lambda       -0.6556327E-04
   maximum displ.:     0.1149542 α      in ANC's #3, #2, #7, ...

........................................................................
.............................. CYCLE    7 ..............................
........................................................................

 iter      E             dE          RMSdq      gap      omega  full diag
   1    -67.2933758 -0.672934E+02  0.566E-02    3.23       0.0  T
   2    -67.2933771 -0.127741E-05  0.333E-02    3.24       1.0  T
   3    -67.2933718  0.528531E-05  0.107E-02    3.23       1.4  T
   4    -67.2933779 -0.606072E-05  0.172E-03    3.23       9.0  T
   5    -67.2933780 -0.874717E-07  0.924E-04    3.23      16.7  T
   6    -67.2933780 -0.801616E-08  0.640E-04    3.23      24.1  T
     SCC iter.                  ...        0 min,  0.015 sec
     gradient                   ...        0 min,  0.029 sec
 * total energy  :   -66.1638611 Eh     change       -0.6770008E-04 Eh
   gradient norm :     0.0032180 Eh/α   predicted    -0.3329154E-04 ( -50.82%)
   displ. norm   :     0.1001002 α      lambda       -0.4940016E-04
   maximum displ.:     0.0703673 α      in ANC's #3, #2, #7, ...

........................................................................
.............................. CYCLE    8 ..............................
........................................................................

 iter      E             dE          RMSdq      gap      omega  full diag
   1    -67.2940026 -0.672940E+02  0.326E-02    3.23       0.0  T
   2    -67.2940028 -0.162209E-06  0.191E-02    3.23       1.0  T
   3    -67.2940025  0.304601E-06  0.278E-03    3.23       5.5  T
   4    -67.2940029 -0.387034E-06  0.700E-04    3.23      22.1  T
   5    -67.2940029 -0.581983E-08  0.483E-04    3.23      31.9  T
     SCC iter.                  ...        0 min,  0.016 sec
     gradient                   ...        0 min,  0.028 sec
 * total energy  :   -66.1639039 Eh     change       -0.4278853E-04 Eh
   gradient norm :     0.0023815 Eh/α   predicted    -0.2494905E-04 ( -41.69%)
   displ. norm   :     0.1347931 α      lambda       -0.5949924E-04
   maximum displ.:     0.0995517 α      in ANC's #3, #2, #7, ...

........................................................................
.............................. CYCLE    9 ..............................
........................................................................

 iter      E             dE          RMSdq      gap      omega  full diag
   1    -67.2945787 -0.672946E+02  0.454E-02    3.23       0.0  T
   2    -67.2945789 -0.235041E-06  0.266E-02    3.23       1.0  T
   3    -67.2945779  0.100269E-05  0.428E-03    3.23       3.6  T
   4    -67.2945791 -0.116998E-05  0.764E-04    3.23      20.2  T
   5    -67.2945791 -0.762940E-08  0.486E-04    3.23      31.8  T
   6    -67.2945791 -0.273587E-08  0.271E-04    3.23      56.9  T
     SCC iter.                  ...        0 min,  0.045 sec
     gradient                   ...        0 min,  0.032 sec
 * total energy  :   -66.1639509 Eh     change       -0.4700976E-04 Eh
   gradient norm :     0.0011421 Eh/α   predicted    -0.3029080E-04 ( -35.56%)
   displ. norm   :     0.1668399 α      lambda       -0.3443320E-04
   maximum displ.:     0.1308838 α      in ANC's #3, #2, #5, ...

........................................................................
.............................. CYCLE   10 ..............................
........................................................................

 iter      E             dE          RMSdq      gap      omega  full diag
   1    -67.2949826 -0.672950E+02  0.570E-02    3.23       0.0  T
   2    -67.2949829 -0.267714E-06  0.334E-02    3.23       1.0  T
   3    -67.2949811  0.176555E-05  0.568E-03    3.23       2.7  T
   4    -67.2949831 -0.202631E-05  0.853E-04    3.23      18.1  T
   5    -67.2949831 -0.439151E-08  0.570E-04    3.23      27.1  T
   6    -67.2949832 -0.456339E-08  0.315E-04    3.23      48.9  T
     SCC iter.                  ...        0 min,  0.015 sec
     gradient                   ...        0 min,  0.028 sec
 * total energy  :   -66.1639897 Eh     change       -0.3882890E-04 Eh
   gradient norm :     0.0017239 Eh/α   predicted    -0.1743021E-04 ( -55.11%)
   displ. norm   :     0.0857780 α      lambda       -0.1766382E-04
   maximum displ.:     0.0717912 α      in ANC's #3, #5, #2, ...

........................................................................
.............................. CYCLE   11 ..............................
........................................................................

 iter      E             dE          RMSdq      gap      omega  full diag
   1    -67.2951111 -0.672951E+02  0.308E-02    3.23       0.0  T
   2    -67.2951112 -0.635070E-07  0.180E-02    3.23       1.0  T
   3    -67.2951111  0.963201E-07  0.188E-03    3.23       8.2  T
   4    -67.2951112 -0.136434E-06  0.580E-04    3.23      26.6  T
   5    -67.2951112 -0.228505E-08  0.442E-04    3.23      34.9  T
     SCC iter.                  ...        0 min,  0.017 sec
     gradient                   ...        0 min,  0.028 sec
 * total energy  :   -66.1640136 Eh     change       -0.2386528E-04 Eh
   gradient norm :     0.0014956 Eh/α   predicted    -0.8864378E-05 ( -62.86%)
   displ. norm   :     0.0875553 α      lambda       -0.2080900E-04
   maximum displ.:     0.0698457 α      in ANC's #3, #5, #4, ...

........................................................................
.............................. CYCLE   12 ..............................
........................................................................

 iter      E             dE          RMSdq      gap      omega  full diag
   1    -67.2950098 -0.672950E+02  0.327E-02    3.24       0.0  T
   2    -67.2950099 -0.115798E-06  0.192E-02    3.24       1.0  T
   3    -67.2950096  0.249402E-06  0.252E-03    3.24       6.1  T
   4    -67.2950099 -0.310414E-06  0.724E-04    3.24      21.3  T
   5    -67.2950099 -0.695704E-08  0.547E-04    3.24      28.2  T
     SCC iter.                  ...        0 min,  0.013 sec
     gradient                   ...        0 min,  0.028 sec
 * total energy  :   -66.1640395 Eh     change       -0.2597816E-04 Eh
   gradient norm :     0.0007838 Eh/α   predicted    -0.1044076E-04 ( -59.81%)
   displ. norm   :     0.1015145 α      lambda       -0.1923592E-04
   maximum displ.:     0.0799524 α      in ANC's #3, #5, #4, ...

........................................................................
.............................. CYCLE   13 ..............................
........................................................................

 iter      E             dE          RMSdq      gap      omega  full diag
   1    -67.2946368 -0.672946E+02  0.373E-02    3.24       0.0  T
   2    -67.2946369 -0.103016E-06  0.219E-02    3.24       1.0  T
   3    -67.2946369  0.703957E-07  0.166E-03    3.24       9.3  T
   4    -67.2946370 -0.125178E-06  0.696E-04    3.24      22.2  T
   5    -67.2946370 -0.414201E-08  0.505E-04    3.24      30.6  T
     SCC iter.                  ...        0 min,  0.013 sec
     gradient                   ...        0 min,  0.028 sec
 * total energy  :   -66.1640627 Eh     change       -0.2313291E-04 Eh
   gradient norm :     0.0006972 Eh/α   predicted    -0.9666580E-05 ( -58.21%)
   displ. norm   :     0.0852348 α      lambda       -0.1270406E-04
   maximum displ.:     0.0692565 α      in ANC's #3, #5, #4, ...

........................................................................
.............................. CYCLE   14 ..............................
........................................................................

 iter      E             dE          RMSdq      gap      omega  full diag
   1    -67.2946193 -0.672946E+02  0.300E-02    3.24       0.0  T
   2    -67.2946194 -0.685453E-07  0.176E-02    3.24       1.0  T
   3    -67.2946194  0.143229E-07  0.117E-03    3.24      13.2  T
   4    -67.2946194 -0.493232E-07  0.598E-04    3.24      25.8  T
   5    -67.2946194 -0.322889E-08  0.428E-04    3.24      36.1  T
     SCC iter.                  ...        0 min,  0.048 sec
     gradient                   ...        0 min,  0.028 sec
 * total energy  :   -66.1640796 Eh     change       -0.1690845E-04 Eh
   gradient norm :     0.0007705 Eh/α   predicted    -0.6374178E-05 ( -62.30%)
   displ. norm   :     0.0835787 α      lambda       -0.1268018E-04
   maximum displ.:     0.0668722 α      in ANC's #3, #5, #1, ...

........................................................................
.............................. CYCLE   15 ..............................
........................................................................

 iter      E             dE          RMSdq      gap      omega  full diag
   1    -67.2946713 -0.672947E+02  0.286E-02    3.24       0.0  T
   2    -67.2946714 -0.648786E-07  0.167E-02    3.24       1.0  T
   3    -67.2946714 -0.484945E-09  0.986E-04    3.24      15.7  T
   4    -67.2946714 -0.309636E-07  0.477E-04    3.24      32.3  T
     SCC iter.                  ...        0 min,  0.010 sec
     gradient                   ...        0 min,  0.028 sec
 * total energy  :   -66.1640975 Eh     change       -0.1786811E-04 Eh
   gradient norm :     0.0007044 Eh/α   predicted    -0.6360758E-05 ( -64.40%)
   displ. norm   :     0.1173409 α      lambda       -0.1869329E-04
   maximum displ.:     0.0900661 α      in ANC's #3, #9, #5, ...

........................................................................
.............................. CYCLE   16 ..............................
........................................................................

 iter      E             dE          RMSdq      gap      omega  full diag
   1    -67.2946080 -0.672946E+02  0.387E-02    3.25       0.0  T
   2    -67.2946081 -0.151752E-06  0.226E-02    3.25       1.0  T
   3    -67.2946081 -0.880055E-08  0.144E-03    3.25      10.7  T
   4    -67.2946082 -0.615979E-07  0.702E-04    3.25      22.0  T
   5    -67.2946082 -0.321874E-08  0.367E-04    3.25      42.1  T
     SCC iter.                  ...        0 min,  0.012 sec
     gradient                   ...        0 min,  0.028 sec
 * total energy  :   -66.1641239 Eh     change       -0.2646110E-04 Eh
   gradient norm :     0.0006214 Eh/α   predicted    -0.9406309E-05 ( -64.45%)
   displ. norm   :     0.1818745 α      lambda       -0.2838275E-04
   maximum displ.:     0.1363986 α      in ANC's #3, #9, #1, ...

........................................................................
.............................. CYCLE   17 ..............................
........................................................................

 iter      E             dE          RMSdq      gap      omega  full diag
   1    -67.2945494 -0.672945E+02  0.593E-02    3.25       0.0  T
   2    -67.2945498 -0.381180E-06  0.347E-02    3.25       1.0  T
   3    -67.2945498 -0.220998E-07  0.216E-03    3.25       7.1  T
   4    -67.2945500 -0.150285E-06  0.104E-03    3.25      14.9  T
   5    -67.2945500 -0.696382E-08  0.494E-04    3.25      31.2  T
   6    -67.2945500 -0.254825E-08  0.354E-04    3.25      43.6  T
     SCC iter.                  ...        0 min,  0.015 sec
     gradient                   ...        0 min,  0.054 sec
 * total energy  :   -66.1641632 Eh     change       -0.3924573E-04 Eh
   gradient norm :     0.0007799 Eh/α   predicted    -0.1440414E-04 ( -63.30%)
   displ. norm   :     0.2496577 α      lambda       -0.3618755E-04
   maximum displ.:     0.1873122 α      in ANC's #3, #9, #2, ...

........................................................................
.............................. CYCLE   18 ..............................
........................................................................

 iter      E             dE          RMSdq      gap      omega  full diag
   1    -67.2942822 -0.672943E+02  0.808E-02    3.25       0.0  T
   2    -67.2942829 -0.748846E-06  0.472E-02    3.25       1.0  T
   3    -67.2942828  0.963627E-07  0.353E-03    3.25       4.4  T
   4    -67.2942833 -0.443015E-06  0.154E-03    3.25      10.0  T
   5    -67.2942833 -0.124646E-07  0.833E-04    3.25      18.5  T
   6    -67.2942833 -0.957620E-08  0.584E-04    3.25      26.4  T
     SCC iter.                  ...        0 min,  0.016 sec
     gradient                   ...        0 min,  0.028 sec
 * total energy  :   -66.1642118 Eh     change       -0.4860367E-04 Eh
   gradient norm :     0.0011147 Eh/α   predicted    -0.1859803E-04 ( -61.74%)
   displ. norm   :     0.2677743 α      lambda       -0.3594553E-04
   maximum displ.:     0.2033736 α      in ANC's #3, #2, #9, ...

........................................................................
.............................. CYCLE   19 ..............................
........................................................................

 iter      E             dE          RMSdq      gap      omega  full diag
   1    -67.2940413 -0.672940E+02  0.870E-02    3.26       0.0  T
   2    -67.2940420 -0.746351E-06  0.509E-02    3.26       1.0  T
   3    -67.2940420 -0.291609E-07  0.313E-03    3.25       4.9  T
   4    -67.2940424 -0.324627E-06  0.164E-03    3.25       9.4  T
   5    -67.2940424 -0.185016E-07  0.882E-04    3.26      17.5  T
   6    -67.2940424 -0.119682E-07  0.652E-04    3.26      23.7  T
     SCC iter.                  ...        0 min,  0.015 sec
     gradient                   ...        0 min,  0.028 sec
 * total energy  :   -66.1642601 Eh     change       -0.4837092E-04 Eh
   gradient norm :     0.0011774 Eh/α   predicted    -0.1854789E-04 ( -61.65%)
   displ. norm   :     0.2697161 α      lambda       -0.3437068E-04
   maximum displ.:     0.2079930 α      in ANC's #3, #2, #1, ...

........................................................................
.............................. CYCLE   20 ..............................
........................................................................

 iter      E             dE          RMSdq      gap      omega  full diag
   1    -67.2942304 -0.672942E+02  0.879E-02    3.26       0.0  T
   2    -67.2942311 -0.710900E-06  0.515E-02    3.26       1.0  T
   3    -67.2942310  0.835669E-07  0.342E-03    3.26       4.5  T
   4    -67.2942315 -0.438734E-06  0.166E-03    3.26       9.3  T
   5    -67.2942315 -0.140518E-07  0.943E-04    3.26      16.4  T
   6    -67.2942315 -0.154394E-07  0.690E-04    3.26      22.4  T
     SCC iter.                  ...        0 min,  0.015 sec
     gradient                   ...        0 min,  0.049 sec
 * total energy  :   -66.1643069 Eh     change       -0.4673920E-04 Eh
   gradient norm :     0.0010341 Eh/α   predicted    -0.1774197E-04 ( -62.04%)
   displ. norm   :     0.2837517 α      lambda       -0.3443172E-04
   maximum displ.:     0.2215858 α      in ANC's #3, #2, #1, ...
 * RMSD in coord.:     0.4031236 α      energy gain  -0.1968998E-01 Eh

generating ANC from exact Hessian ...
Using Lindh-Hessian (1995)
 Shifting diagonal of input Hessian by    9.2375099892916500E-003
 Lowest  eigenvalues of input Hessian
    0.000000    0.000000    0.000000    0.000000    0.000000    0.000000
    0.010000    0.010032    0.010337    0.010416    0.010702    0.010761
    0.011108    0.011162    0.011904    0.016033    0.017564    0.018058
 Highest eigenvalues
    2.004461    2.014295    2.023391    2.027087    2.045950    2.177754


........................................................................
.............................. CYCLE   21 ..............................
........................................................................

 iter      E             dE          RMSdq      gap      omega  full diag
   1    -67.2941075 -0.672941E+02  0.932E-02    3.26       0.0  T
   2    -67.2941082 -0.729885E-06  0.546E-02    3.26       1.0  T
   3    -67.2941083 -0.535912E-07  0.322E-03    3.26       4.8  T
   4    -67.2941086 -0.307520E-06  0.165E-03    3.26       9.3  T
   5    -67.2941086 -0.165115E-07  0.899E-04    3.26      17.2  T
   6    -67.2941086 -0.105863E-07  0.680E-04    3.26      22.7  T
     SCC iter.                  ...        0 min,  0.060 sec
     gradient                   ...        0 min,  0.028 sec
 * total energy  :   -66.1643530 Eh     change       -0.4616430E-04 Eh
   gradient norm :     0.0010964 Eh/α   predicted     0.0000000E+00 (-100.00%)
   displ. norm   :     0.0362972 α      lambda       -0.8585243E-05
   maximum displ.:     0.0208290 α      in ANC's #3, #4, #2, ...

........................................................................
.............................. CYCLE   22 ..............................
........................................................................

 iter      E             dE          RMSdq      gap      omega  full diag
   1    -67.2949650 -0.672950E+02  0.132E-02    3.27       0.0  T
   2    -67.2949650 -0.333239E-07  0.772E-03    3.27       2.0  T
   3    -67.2949649  0.104383E-06  0.167E-03    3.27       9.2  T
   4    -67.2949651 -0.124712E-06  0.374E-04    3.27      41.2  T
   5    -67.2949651 -0.173526E-08  0.275E-04    3.27      56.0  T
     SCC iter.                  ...        0 min,  0.012 sec
     gradient                   ...        0 min,  0.028 sec
 * total energy  :   -66.1643629 Eh     change       -0.9823989E-05 Eh
   gradient norm :     0.0004024 Eh/α   predicted    -0.4331983E-05 ( -55.90%)
   displ. norm   :     0.0779408 α      lambda       -0.1179773E-04
   maximum displ.:     0.0432071 α      in ANC's #4, #3, #2, ...

........................................................................
.............................. CYCLE   23 ..............................
........................................................................

 iter      E             dE          RMSdq      gap      omega  full diag
   1    -67.2954495 -0.672954E+02  0.278E-02    3.27       0.0  T
   2    -67.2954496 -0.747859E-07  0.163E-02    3.27       1.0  T
   3    -67.2954494  0.108626E-06  0.185E-03    3.27       8.4  T
   4    -67.2954496 -0.143834E-06  0.389E-04    3.27      39.7  T
   5    -67.2954496 -0.137473E-08  0.243E-04    3.27      63.4  T
     SCC iter.                  ...        0 min,  0.012 sec
     gradient                   ...        0 min,  0.028 sec
 * total energy  :   -66.1643771 Eh     change       -0.1422592E-04 Eh
   gradient norm :     0.0009865 Eh/α   predicted    -0.5918593E-05 ( -58.40%)
   displ. norm   :     0.1186018 α      lambda       -0.1380599E-04
   maximum displ.:     0.0655973 α      in ANC's #4, #3, #2, ...

........................................................................
.............................. CYCLE   24 ..............................
........................................................................

 iter      E             dE          RMSdq      gap      omega  full diag
   1    -67.2950075 -0.672950E+02  0.431E-02    3.27       0.0  T
   2    -67.2950076 -0.123354E-06  0.252E-02    3.27       1.0  T
   3    -67.2950076  0.150459E-07  0.147E-03    3.27      10.5  T
   4    -67.2950076 -0.716270E-07  0.589E-04    3.27      26.2  T
   5    -67.2950076 -0.238525E-08  0.374E-04    3.27      41.3  T
     SCC iter.                  ...        0 min,  0.012 sec
     gradient                   ...        0 min,  0.028 sec
 * total energy  :   -66.1643932 Eh     change       -0.1614135E-04 Eh
   gradient norm :     0.0009459 Eh/α   predicted    -0.7011260E-05 ( -56.56%)
   displ. norm   :     0.1435506 α      lambda       -0.1282058E-04
   maximum displ.:     0.0786624 α      in ANC's #3, #4, #2, ...

........................................................................
.............................. CYCLE   25 ..............................
........................................................................

 iter      E             dE          RMSdq      gap      omega  full diag
   1    -67.2946685 -0.672947E+02  0.530E-02    3.27       0.0  T
   2    -67.2946686 -0.135512E-06  0.310E-02    3.27       1.0  T
   3    -67.2946686  0.102862E-07  0.167E-03    3.27       9.2  T
   4    -67.2946687 -0.849403E-07  0.704E-04    3.27      21.9  T
   5    -67.2946687 -0.239282E-08  0.454E-04    3.27      34.0  T
     SCC iter.                  ...        0 min,  0.012 sec
     gradient                   ...        0 min,  0.043 sec
 * total energy  :   -66.1644077 Eh     change       -0.1450296E-04 Eh
   gradient norm :     0.0006864 Eh/α   predicted    -0.6470013E-05 ( -55.39%)
   displ. norm   :     0.1748764 α      lambda       -0.1284811E-04
   maximum displ.:     0.0956838 α      in ANC's #3, #4, #2, ...

........................................................................
.............................. CYCLE   26 ..............................
........................................................................

 iter      E             dE          RMSdq      gap      omega  full diag
   1    -67.2942179 -0.672942E+02  0.648E-02    3.27       0.0  T
   2    -67.2942181 -0.218033E-06  0.380E-02    3.27       1.0  T
   3    -67.2942181  0.718916E-08  0.214E-03    3.27       7.2  T
   4    -67.2942182 -0.131002E-06  0.101E-03    3.27      15.3  T
   5    -67.2942182 -0.643347E-08  0.657E-04    3.27      23.5  T
   6    -67.2942182 -0.461053E-08  0.450E-04    3.27      34.3  T
     SCC iter.                  ...        0 min,  0.015 sec
     gradient                   ...        0 min,  0.067 sec
 * total energy  :   -66.1644225 Eh     change       -0.1475956E-04 Eh
   gradient norm :     0.0007101 Eh/α   predicted    -0.6518644E-05 ( -55.83%)
   displ. norm   :     0.2256032 α      lambda       -0.1584800E-04
   maximum displ.:     0.1222954 α      in ANC's #3, #4, #5, ...

........................................................................
.............................. CYCLE   27 ..............................
........................................................................

 iter      E             dE          RMSdq      gap      omega  full diag
   1    -67.2936767 -0.672937E+02  0.830E-02    3.27       0.0  T
   2    -67.2936772 -0.444688E-06  0.486E-02    3.27       1.0  T
   3    -67.2936771  0.307951E-07  0.295E-03    3.27       5.2  T
   4    -67.2936774 -0.255824E-06  0.133E-03    3.27      11.6  T
   5    -67.2936774 -0.114791E-07  0.880E-04    3.27      17.5  T
   6    -67.2936774 -0.779929E-08  0.591E-04    3.27      26.1  T
     SCC iter.                  ...        0 min,  0.015 sec
     gradient                   ...        0 min,  0.028 sec
 * total energy  :   -66.1644404 Eh     change       -0.1792265E-04 Eh
   gradient norm :     0.0012017 Eh/α   predicted    -0.8104250E-05 ( -54.78%)
   displ. norm   :     0.2062530 α      lambda       -0.1597307E-04
   maximum displ.:     0.1123243 α      in ANC's #3, #5, #4, ...

........................................................................
.............................. CYCLE   28 ..............................
........................................................................

 iter      E             dE          RMSdq      gap      omega  full diag
   1    -67.2938587 -0.672939E+02  0.739E-02    3.27       0.0  T
   2    -67.2938591 -0.447263E-06  0.433E-02    3.27       1.0  T
   3    -67.2938591  0.126274E-07  0.276E-03    3.27       5.6  T
   4    -67.2938593 -0.227171E-06  0.134E-03    3.27      11.6  T
   5    -67.2938593 -0.128922E-07  0.858E-04    3.27      18.0  T
   6    -67.2938594 -0.789733E-08  0.575E-04    3.27      26.9  T
     SCC iter.                  ...        0 min,  0.036 sec
     gradient                   ...        0 min,  0.028 sec
 * total energy  :   -66.1644593 Eh     change       -0.1891930E-04 Eh
   gradient norm :     0.0013397 Eh/α   predicted    -0.8140164E-05 ( -56.97%)
   displ. norm   :     0.1696472 α      lambda       -0.1568201E-04
   maximum displ.:     0.0940103 α      in ANC's #3, #5, #9, ...

........................................................................
.............................. CYCLE   29 ..............................
........................................................................

 iter      E             dE          RMSdq      gap      omega  full diag
   1    -67.2943552 -0.672944E+02  0.576E-02    3.28       0.0  T
   2    -67.2943556 -0.350021E-06  0.337E-02    3.28       1.0  T
   3    -67.2943556  0.815731E-08  0.228E-03    3.28       6.8  T
   4    -67.2943557 -0.171229E-06  0.114E-03    3.28      13.5  T
   5    -67.2943557 -0.914261E-08  0.690E-04    3.28      22.4  T
   6    -67.2943557 -0.615309E-08  0.490E-04    3.28      31.5  T
     SCC iter.                  ...        0 min,  0.015 sec
     gradient                   ...        0 min,  0.061 sec
 * total energy  :   -66.1644792 Eh     change       -0.1989470E-04 Eh
   gradient norm :     0.0010768 Eh/α   predicted    -0.7944088E-05 ( -60.07%)
   displ. norm   :     0.2466496 α      lambda       -0.2245232E-04
   maximum displ.:     0.1410595 α      in ANC's #3, #5, #9, ...

........................................................................
.............................. CYCLE   30 ..............................
........................................................................

 iter      E             dE          RMSdq      gap      omega  full diag
   1    -67.2944452 -0.672944E+02  0.801E-02    3.28       0.0  T
   2    -67.2944459 -0.692077E-06  0.469E-02    3.28       1.0  T
   3    -67.2944458  0.139055E-06  0.342E-03    3.28       4.5  T
   4    -67.2944462 -0.463453E-06  0.151E-03    3.28      10.2  T
   5    -67.2944462 -0.102931E-07  0.875E-04    3.28      17.6  T
   6    -67.2944463 -0.156487E-07  0.567E-04    3.28      27.2  T
     SCC iter.                  ...        0 min,  0.015 sec
     gradient                   ...        0 min,  0.028 sec
 * total energy  :   -66.1645078 Eh     change       -0.2855112E-04 Eh
   gradient norm :     0.0009622 Eh/α   predicted    -0.1153472E-04 ( -59.60%)
   displ. norm   :     0.3810161 α      lambda       -0.3232487E-04
   maximum displ.:     0.2229370 α      in ANC's #3, #9, #5, ...

........................................................................
.............................. CYCLE   31 ..............................
........................................................................

 iter      E             dE          RMSdq      gap      omega  full diag
   1    -67.2936305 -0.672936E+02  0.119E-01    3.28       0.0  T
   2    -67.2936322 -0.169979E-05  0.697E-02    3.28       1.0  T
   3    -67.2936318  0.418551E-06  0.547E-03    3.28       2.8  T
   4    -67.2936330 -0.122779E-05  0.236E-03    3.28       6.5  T
   5    -67.2936331 -0.236127E-07  0.134E-03    3.28      11.5  T
   6    -67.2936331 -0.346077E-07  0.903E-04    3.28      17.1  T
   7    -67.2936331 -0.100419E-07  0.671E-04    3.28      23.0  T
     SCC iter.                  ...        0 min,  0.017 sec
     gradient                   ...        0 min,  0.028 sec
 * total energy  :   -66.1645460 Eh     change       -0.3824647E-04 Eh
   gradient norm :     0.0015762 Eh/α   predicted    -0.1720556E-04 ( -55.01%)
   displ. norm   :     0.3025237 α      lambda       -0.2836136E-04
   maximum displ.:     0.1795170 α      in ANC's #3, #9, #5, ...

........................................................................
.............................. CYCLE   32 ..............................
........................................................................

 iter      E             dE          RMSdq      gap      omega  full diag
   1    -67.2936522 -0.672937E+02  0.902E-02    3.28       0.0  T
   2    -67.2936531 -0.989352E-06  0.527E-02    3.28       1.0  T
   3    -67.2936528  0.377297E-06  0.457E-03    3.28       3.4  T
   4    -67.2936536 -0.860847E-06  0.166E-03    3.28       9.3  T
   5    -67.2936536 -0.624279E-08  0.849E-04    3.28      18.2  T
   6    -67.2936536 -0.142692E-07  0.577E-04    3.28      26.7  T
     SCC iter.                  ...        0 min,  0.043 sec
     gradient                   ...        0 min,  0.028 sec
 * total energy  :   -66.1645800 Eh     change       -0.3400741E-04 Eh
   gradient norm :     0.0013458 Eh/α   predicted    -0.1476079E-04 ( -56.60%)
   displ. norm   :     0.2883290 α      lambda       -0.2676815E-04
   maximum displ.:     0.1791622 α      in ANC's #3, #1, #5, ...

........................................................................
.............................. CYCLE   33 ..............................
........................................................................

 iter      E             dE          RMSdq      gap      omega  full diag
   1    -67.2935672 -0.672936E+02  0.856E-02    3.29       0.0  T
   2    -67.2935681 -0.893108E-06  0.501E-02    3.29       1.0  T
   3    -67.2935676  0.450357E-06  0.459E-03    3.29       3.4  T
   4    -67.2935685 -0.888034E-06  0.171E-03    3.29       9.0  T
   5    -67.2935685 -0.186182E-07  0.101E-03    3.29      15.3  T
   6    -67.2935685 -0.958491E-08  0.666E-04    3.29      23.2  T
   7    -67.2935685 -0.423219E-08  0.521E-04    3.29      29.6  T
     SCC iter.                  ...        0 min,  0.062 sec
     gradient                   ...        0 min,  0.028 sec
 * total energy  :   -66.1646120 Eh     change       -0.3191887E-04 Eh
   gradient norm :     0.0010091 Eh/α   predicted    -0.1388127E-04 ( -56.51%)
   displ. norm   :     0.3316735 α      lambda       -0.2469172E-04
   maximum displ.:     0.2086651 α      in ANC's #3, #1, #5, ...

........................................................................
.............................. CYCLE   34 ..............................
........................................................................

 iter      E             dE          RMSdq      gap      omega  full diag
   1    -67.2929461 -0.672929E+02  0.990E-02    3.29       0.0  T
   2    -67.2929471 -0.101457E-05  0.579E-02    3.29       1.0  T
   3    -67.2929464  0.631707E-06  0.518E-03    3.29       3.0  T
   4    -67.2929476 -0.115535E-05  0.165E-03    3.29       9.3  T
   5    -67.2929476 -0.795121E-08  0.815E-04    3.29      18.9  T
   6    -67.2929476 -0.959780E-08  0.558E-04    3.29      27.7  T
     SCC iter.                  ...        0 min,  0.015 sec
     gradient                   ...        0 min,  0.028 sec
 * total energy  :   -66.1646386 Eh     change       -0.2665060E-04 Eh
   gradient norm :     0.0015073 Eh/α   predicted    -0.1295467E-04 ( -51.39%)
   displ. norm   :     0.2800444 α      lambda       -0.1990704E-04
   maximum displ.:     0.1800520 α      in ANC's #3, #1, #5, ...

........................................................................
.............................. CYCLE   35 ..............................
........................................................................

 iter      E             dE          RMSdq      gap      omega  full diag
   1    -67.2940705 -0.672941E+02  0.836E-02    3.29       0.0  T
   2    -67.2940712 -0.701475E-06  0.489E-02    3.29       1.0  T
   3    -67.2940707  0.476521E-06  0.449E-03    3.29       3.4  T
   4    -67.2940716 -0.843000E-06  0.150E-03    3.29      10.3  T
   5    -67.2940716 -0.115279E-07  0.884E-04    3.29      17.5  T
   6    -67.2940716 -0.774322E-08  0.579E-04    3.29      26.6  T
     SCC iter.                  ...        0 min,  0.015 sec
     gradient                   ...        0 min,  0.029 sec
 * total energy  :   -66.1646565 Eh     change       -0.1789410E-04 Eh
   gradient norm :     0.0012755 Eh/α   predicted    -0.1030443E-04 ( -42.41%)
   displ. norm   :     0.3038106 α      lambda       -0.1254394E-04
   maximum displ.:     0.1928482 α      in ANC's #3, #1, #5, ...

........................................................................
.............................. CYCLE   36 ..............................
........................................................................

 iter      E             dE          RMSdq      gap      omega  full diag
   1    -67.2913657 -0.672914E+02  0.963E-02    3.29       0.0  T
   2    -67.2913666 -0.969366E-06  0.564E-02    3.29       1.0  T
   3    -67.2913658  0.865732E-06  0.533E-03    3.29       2.9  T
   4    -67.2913671 -0.132669E-05  0.182E-03    3.29       8.5  T
   5    -67.2913671 -0.312181E-07  0.122E-03    3.29      12.7  T
   6    -67.2913672 -0.137768E-07  0.806E-04    3.29      19.1  T
   7    -67.2913672 -0.113385E-07  0.594E-04    3.29      26.0  T
     SCC iter.                  ...        0 min,  0.047 sec
     gradient                   ...        0 min,  0.028 sec
 * total energy  :   -66.1646610 Eh     change       -0.4464001E-05 Eh
   gradient norm :     0.0026501 Eh/α   predicted    -0.6530291E-05 (  46.29%)
   displ. norm   :     0.0288115 α      lambda       -0.1541489E-04
   maximum displ.:     0.0157959 α      in ANC's #9, #5, #4, ...

........................................................................
.............................. CYCLE   37 ..............................
........................................................................

 iter      E             dE          RMSdq      gap      omega  full diag
   1    -67.2932663 -0.672933E+02  0.103E-02    3.30       0.0  T
   2    -67.2932664 -0.832146E-07  0.597E-03    3.30       2.6  T
   3    -67.2932662  0.143223E-06  0.222E-03    3.30       6.9  T
   4    -67.2932664 -0.176588E-06  0.465E-04    3.30      33.2  T
   5    -67.2932664 -0.578720E-08  0.288E-04    3.30      53.6  T
     SCC iter.                  ...        0 min,  0.013 sec
     gradient                   ...        0 min,  0.046 sec
 * total energy  :   -66.1646713 Eh     change       -0.1036987E-04 Eh
   gradient norm :     0.0015194 Eh/α   predicted    -0.7714658E-05 ( -25.61%)
   displ. norm   :     0.0750146 α      lambda       -0.1114225E-04
   maximum displ.:     0.0451237 α      in ANC's #4, #3, #1, ...

........................................................................
.............................. CYCLE   38 ..............................
........................................................................

 iter      E             dE          RMSdq      gap      omega  full diag
   1    -67.2952765 -0.672953E+02  0.232E-02    3.30       0.0  T
   2    -67.2952765 -0.800908E-07  0.136E-02    3.30       1.1  T
   3    -67.2952764  0.153576E-06  0.215E-03    3.30       7.2  T
   4    -67.2952766 -0.190103E-06  0.374E-04    3.30      41.2  T
   5    -67.2952766 -0.190710E-08  0.226E-04    3.30      68.3  T
     SCC iter.                  ...        0 min,  0.012 sec
     gradient                   ...        0 min,  0.028 sec
 * total energy  :   -66.1646790 Eh     change       -0.7699364E-05 Eh
   gradient norm :     0.0010496 Eh/α   predicted    -0.5586355E-05 ( -27.44%)
   displ. norm   :     0.0787839 α      lambda       -0.4802618E-05
   maximum displ.:     0.0449944 α      in ANC's #3, #4, #5, ...

........................................................................
.............................. CYCLE   39 ..............................
........................................................................

 iter      E             dE          RMSdq      gap      omega  full diag
   1    -67.2947235 -0.672947E+02  0.276E-02    3.30       0.0  T
   2    -67.2947235 -0.492414E-07  0.162E-02    3.30       1.0  T
   3    -67.2947234  0.883558E-07  0.160E-03    3.30       9.6  T
   4    -67.2947236 -0.117126E-06  0.353E-04    3.30      43.7  T
   5    -67.2947236  0.119428E-09  0.239E-04    3.30      64.5  T
     SCC iter.                  ...        0 min,  0.045 sec
     gradient                   ...        0 min,  0.028 sec
 * total energy  :   -66.1646841 Eh     change       -0.5107221E-05 Eh
   gradient norm :     0.0005188 Eh/α   predicted    -0.2410845E-05 ( -52.80%)
   displ. norm   :     0.0799935 α      lambda       -0.3417355E-05
   maximum displ.:     0.0444814 α      in ANC's #3, #4, #5, ...

........................................................................
.............................. CYCLE   40 ..............................
........................................................................

 iter      E             dE          RMSdq      gap      omega  full diag
   1    -67.2937694 -0.672938E+02  0.270E-02    3.30       0.0  T
   2    -67.2937695 -0.100061E-06  0.158E-02    3.30       1.0  T
   3    -67.2937694  0.426534E-07  0.145E-03    3.30      10.6  T
   4    -67.2937695 -0.789092E-07  0.584E-04    3.30      26.4  T
   5    -67.2937695 -0.431386E-08  0.397E-04    3.30      38.9  T
     SCC iter.                  ...        0 min,  0.012 sec
     gradient                   ...        0 min,  0.061 sec
 * total energy  :   -66.1646871 Eh     change       -0.2922128E-05 Eh
   gradient norm :     0.0006367 Eh/α   predicted    -0.1714584E-05 ( -41.32%)
   displ. norm   :     0.0449388 α      lambda       -0.1410767E-05
   maximum displ.:     0.0243673 α      in ANC's #4, #3, #1, ...

   *** GEOMETRY OPTIMIZATION CONVERGED AFTER 40 ITERATIONS ***

------------------------------------------------------------------------
 total energy gain   :        -0.0200702 Eh      -12.5942 kcal/mol
 total RMSD          :         0.8597131 a0        0.4549 Å
 total power (kW/mol):        -1.3173552 (step)  -18.4937 (real)
------------------------------------------------------------------------

 ANCopt (total)                0 d,  0 h,  0 min,  2.849 sec
 optimizer setup                ...        0 min,  0.000 sec (  0.004%)
 model hessian                  ...        0 min,  0.050 sec (  1.754%)
 ANC generation                 ...        0 min,  0.004 sec (  0.134%)
 coordinate transformation      ...        0 min,  0.001 sec (  0.021%)
 single point calculation       ...        0 min,  2.783 sec ( 97.690%)
 optimization log               ...        0 min,  0.006 sec (  0.216%)
 hessian update                 ...        0 min,  0.001 sec (  0.027%)
 rational function              ...        0 min,  0.003 sec (  0.104%)

================
 final structure:
================
42
 xtb: 6.7.1 (edcfbbe)
Cl          -0.06271743981720        0.63439681285010       -2.77074450295934
C            1.23449522820673       -0.22821566138791       -2.00675902414224
C            1.19537920802617       -0.54454260832247       -0.64688402005175
C            0.02267865637459       -0.09574620549656        0.22490248663512
C           -0.09471774415595        1.42028793402653        0.05931952909444
C           -1.28907902819377        2.07549381502590       -0.20343910838091
C           -1.31851049197675        3.45398634651436       -0.33340476872085
C           -0.15885030873098        4.19650830999726       -0.20506117263654
C            1.03970091986385        3.54988070380446        0.04477758276226
C            1.07160561666457        2.17398520647888        0.17194410946931
C           -1.26304988205576       -0.84958335130233       -0.10598986936304
C           -1.35485274333738       -1.78879086640295       -1.12266811546049
C           -2.54374334839179       -2.46334803956628       -1.34875560341694
C           -3.65052868734888       -2.21964818452296       -0.55671530913064
C           -3.55787101639375       -1.30863162819311        0.48225268438533
C           -2.37276400942073       -0.63580953522509        0.70969723353552
N            0.28234515434602       -0.39273320291358        1.63181648359713
C            0.56909109829456        0.45496398834121        2.66608974328459
C            0.69727953787425       -0.33026191967318        3.77443515672969
N            0.49464650508622       -1.63417646616777        3.44947075416560
C            0.24551299798401       -1.63909987113477        2.17156219040688
C            2.27930722517664       -1.23815238850150       -0.12116834332394
C            3.35350023552266       -1.61077701956766       -0.91024789165915
C            3.37010856632231       -1.29122762010148       -2.25522100578574
C            2.30619334052035       -0.59805886535295       -2.80298209551446
H           -2.20248356826791        1.51616425446484       -0.33388692716300
H           -2.25701617162265        3.94618498134252       -0.54206097644846
H           -0.18618671131371        5.27103040654718       -0.30712686924810
H            1.95483429283718        4.11607616206546        0.13705535156912
H            2.01381857118655        1.67716069844586        0.35833017971358
H           -0.50016637380592       -2.01606865654277       -1.74080091992288
H           -2.59732746410790       -3.18843535003046       -2.14749008659032
H           -4.57593691357609       -2.74570362345216       -0.73728888788163
H           -4.40825060631504       -1.12454501759927        1.12204252913859
H           -2.30281353579075        0.05379154743530        1.53948311253481
H            0.64461607629839        1.51515992701829        2.54732796483754
H            0.92057837140475       -0.03939430839875        4.78121709037159
H            0.02814072911401       -2.51570371359165        1.59355306318269
H            2.29370284352606       -1.49422639850662        0.92708064740975
H            4.17683057448931       -2.14894353074842       -0.46647624185265
H            4.20419637496761       -1.57612168430009       -2.87759014698811
H            2.29820392053469       -0.33712537735792       -3.84949600618735

 Bond Distances (Angstroems)
 ---------------------------
Cl1-C2=1.7351        C2-Cl1=1.7351        C2-C3=1.3967         C2-C25=1.3854        C3-C2=1.3967         C3-C4=1.5286         
C3-C22=1.3901        C4-C3=1.5286         C4-C5=1.5296         C4-C11=1.5267        C4-N17=1.4612        C5-C4=1.5296         
C5-C6=1.3874         C5-C10=1.3932        C6-C5=1.3874         C6-C7=1.3849         C6-H26=1.0790        C7-C6=1.3849         
C7-C8=1.3830         C7-H27=1.0801        C8-C7=1.3830         C8-C9=1.3846         C8-H28=1.0797        C9-C8=1.3846         
C9-C10=1.3821        C9-H29=1.0801        C10-C5=1.3932        C10-C9=1.3821        C10-H30=1.0814       C11-C4=1.5267        
C11-C12=1.3871       C11-C16=1.3937       C12-C11=1.3871       C12-C13=1.3855       C12-H31=1.0790       C13-C12=1.3855       
C13-C14=1.3826       C13-H32=1.0801       C14-C13=1.3826       C14-C15=1.3849       C14-H33=1.0797       C15-C14=1.3849       
C15-C16=1.3816       C15-H34=1.0800       C16-C11=1.3937       C16-C15=1.3816       C16-H35=1.0812       N17-C4=1.4612        
N17-C18=1.3677       N17-C21=1.3587       C18-N17=1.3677       C18-C19=1.3643       C18-H36=1.0695       C19-C18=1.3643       
C19-N20=1.3590       C19-H37=1.0715       N20-C19=1.3590       N20-C21=1.3020       C21-N17=1.3587       C21-N20=1.3020       
C21-H38=1.0723       C22-C3=1.3901        C22-C23=1.3840       C22-H39=1.0792       C23-C22=1.3840       C23-C24=1.3825       
C23-H40=1.0791       C24-C23=1.3825       C24-C25=1.3829       C24-H41=1.0790       C25-C2=1.3854        C25-C24=1.3829       
C25-H42=1.0786       H26-C6=1.0790        H27-C7=1.0801        H28-C8=1.0797        H29-C9=1.0801        H30-C10=1.0814       
H31-C12=1.0790       H32-C13=1.0801       H33-C14=1.0797       H34-C15=1.0800       H35-C16=1.0812       H36-C18=1.0695       
H37-C19=1.0715       H38-C21=1.0723       H39-C22=1.0792       H40-C23=1.0791       H41-C24=1.0790       H42-C25=1.0786       
 C  H  Rav=1.0782 sigma=0.0034  Rmin=1.0695  Rmax=1.0814    17
 C  C  Rav=1.4046 sigma=0.0495  Rmin=1.3643  Rmax=1.5296    22
 N  C  Rav=1.3697 sigma=0.0514  Rmin=1.3020  Rmax=1.4612     5
 Cl C  Rav=1.7351 sigma=0.0000  Rmin=1.7351  Rmax=1.7351     1

 selected bond angles (degree)
 --------------------
C3-C2-Cl1=121.36               C25-C2-Cl1=117.26              C25-C2-C3=121.38               C4-C3-C2=120.68                
C22-C3-C2=117.35               C22-C3-C4=121.94               C5-C4-C3=106.75                C11-C4-C3=112.18               
C11-C4-C5=113.66               N17-C4-C3=110.68               N17-C4-C5=108.62               N17-C4-C11=104.95              
C6-C5-C4=123.69                C10-C5-C4=117.59               C10-C5-C6=118.72               C7-C6-C5=120.41                
H26-C6-C5=120.45               H26-C6-C7=119.12               C8-C7-C6=120.52                H27-C7-C6=119.35               
H27-C7-C8=120.12               C9-C8-C7=119.46                H28-C8-C7=120.29               H28-C8-C9=120.25               
C10-C9-C8=120.10               H29-C9-C8=120.27               H29-C9-C10=119.63              C9-C10-C5=120.78               
H30-C10-C5=119.66              H30-C10-C9=119.56              

 selected dihedral angles (degree)
 ---------------------------------
C4-C3-C2-Cl1=357.89           C4-C3-C2-C25=178.34           C22-C3-C2-Cl1=179.97          C22-C3-C2-C25=  0.41          
C5-C4-C3-C2=305.20            C5-C4-C3-C22=123.03           C11-C4-C3-C2= 70.32           C11-C4-C3-C22=248.14          
N17-C4-C3-C2=187.17           N17-C4-C3-C22=  4.99          C6-C5-C4-C3=131.82            C6-C5-C4-C11=  7.61           
C6-C5-C4-N17=251.19           C10-C5-C4-C3=312.26           C10-C5-C4-C11=188.05          C10-C5-C4-N17= 71.64          
C7-C6-C5-C4=179.64            C7-C6-C5-C10=359.19           H26-C6-C5-C4=358.09           H26-C6-C5-C10=177.64          
C8-C7-C6-C5=  0.09            C8-C7-C6-H26=181.61           H27-C7-C6-C5=179.75           H27-C7-C6-H26=  1.28          
C9-C8-C7-C6=  0.52            C9-C8-C7-H27=180.86           H28-C8-C7-C6=180.00           H28-C8-C7-H27=  0.34          
C10-C9-C8-C7=359.63           C10-C9-C8-H28=180.14          H29-C9-C8-C7=179.36           H29-C9-C8-H28=359.87          
C9-C10-C5-C4=180.53           C9-C10-C5-C6=  0.96           H30-C10-C5-C4=  0.70          H30-C10-C5-C6=181.13          
C5-C10-C9-C8=359.63           C5-C10-C9-H29=179.90          H30-C10-C9-C8=179.46          H30-C10-C9-H29=359.73         
           -------------------------------------------------
          |                Final Singlepoint                |
           -------------------------------------------------

          ...................................................
          :                      SETUP                      :
          :.................................................:
          :  # basis functions                 123          :
          :  # atomic orbitals                 122          :
          :  # shells                           68          :
          :  # electrons                       122          :
          :  max. iterations                   250          :
          :  Hamiltonian                  GFN2-xTB          :
          :  restarted?                      false          :
          :  GBSA solvation                  false          :
          :  PC potential                    false          :
          :  electronic temp.          300.0000000     K    :
          :  accuracy                    1.0000000          :
          :  -> integral cutoff          0.2500000E+02      :
          :  -> integral neglect         0.1000000E-07      :
          :  -> SCF convergence          0.1000000E-05 Eh   :
          :  -> wf. convergence          0.1000000E-03 e    :
          :  Broyden damping             0.4000000          :
          :  net charge                          0          :
          :  unpaired electrons                  0          :
          ...................................................

 iter      E             dE          RMSdq      gap      omega  full diag
   1    -67.2937695 -0.672938E+02  0.262E-04    3.30       0.0  T
   2    -67.2937695 -0.483553E-09  0.223E-04    3.30      69.1  T
   3    -67.2937695 -0.598575E-09  0.188E-04    3.30      82.0  T

   *** convergence criteria satisfied after 3 iterations ***

         #    Occupation            Energy/Eh            Energy/eV
      -------------------------------------------------------------
         1        2.0000           -1.0627596             -28.9192
       ...           ...                  ...                  ...
        55        2.0000           -0.4141140             -11.2686
        56        2.0000           -0.4117066             -11.2031
        57        2.0000           -0.4073593             -11.0848
        58        2.0000           -0.4054521             -11.0329
        59        2.0000           -0.4044067             -11.0045
        60        2.0000           -0.3799568             -10.3391
        61        2.0000           -0.3699993             -10.0682 (HOMO)
        62                         -0.2487696              -6.7694 (LUMO)
        63                         -0.2463618              -6.7038
        64                         -0.2381841              -6.4813
        65                         -0.2337830              -6.3616
        66                         -0.2321817              -6.3180
       ...                                ...                  ...
       122                          0.6555387              17.8381
      -------------------------------------------------------------
                  HL-Gap            0.1212297 Eh            3.2988 eV
             Fermi-level           -0.3093844 Eh           -8.4188 eV

 SCC (total)                   0 d,  0 h,  0 min,  0.046 sec
 SCC setup                      ...        0 min,  0.000 sec (  0.696%)
 Dispersion                     ...        0 min,  0.000 sec (  0.661%)
 classical contributions        ...        0 min,  0.000 sec (  0.304%)
 integral evaluation            ...        0 min,  0.010 sec ( 20.953%)
 iterations                     ...        0 min,  0.008 sec ( 16.549%)
 molecular gradient             ...        0 min,  0.028 sec ( 60.455%)
 printout                       ...        0 min,  0.000 sec (  0.364%)

         :::::::::::::::::::::::::::::::::::::::::::::::::::::
         ::                     SUMMARY                     ::
         :::::::::::::::::::::::::::::::::::::::::::::::::::::
         :: total energy             -66.164687067722 Eh    ::
         :: gradient norm              0.000635796911 Eh/a0 ::
         :: HOMO-LUMO gap              3.298827414726 eV    ::
         ::.................................................::
         :: SCC energy               -67.292085957187 Eh    ::
         :: -> isotropic ES            0.017949106494 Eh    ::
         :: -> anisotropic ES          0.003119796553 Eh    ::
         :: -> anisotropic XC          0.042811043155 Eh    ::
         :: -> dispersion             -0.061585816254 Eh    ::
         :: repulsion energy           1.127398889465 Eh    ::
         :: add. restraining           0.000000000000 Eh    ::
         :: total charge              -0.000000000000 e     ::
         :::::::::::::::::::::::::::::::::::::::::::::::::::::

           -------------------------------------------------
          |                Property Printout                |
           -------------------------------------------------

    * Orbital Energies and Occupations

         #    Occupation            Energy/Eh            Energy/eV
      -------------------------------------------------------------
         1        2.0000           -1.0627596             -28.9192
       ...           ...                  ...                  ...
        49        2.0000           -0.4358637             -11.8605
        50        2.0000           -0.4327565             -11.7759
        51        2.0000           -0.4308009             -11.7227
        52        2.0000           -0.4293678             -11.6837
        53        2.0000           -0.4231676             -11.5150
        54        2.0000           -0.4159472             -11.3185
        55        2.0000           -0.4141140             -11.2686
        56        2.0000           -0.4117066             -11.2031
        57        2.0000           -0.4073593             -11.0848
        58        2.0000           -0.4054521             -11.0329
        59        2.0000           -0.4044067             -11.0045
        60        2.0000           -0.3799568             -10.3391
        61        2.0000           -0.3699993             -10.0682 (HOMO)
        62                         -0.2487696              -6.7694 (LUMO)
        63                         -0.2463618              -6.7038
        64                         -0.2381841              -6.4813
        65                         -0.2337830              -6.3616
        66                         -0.2321817              -6.3180
        67                         -0.2308390              -6.2814
        68                         -0.1974907              -5.3740
        69                         -0.1578985              -4.2966
        70                         -0.1450396              -3.9467
        71                         -0.1207767              -3.2865
        72                         -0.1089034              -2.9634
       ...                                ...                  ...
       122                          0.6555387              17.8381
      -------------------------------------------------------------
                  HL-Gap            0.1212297 Eh            3.2988 eV
             Fermi-level           -0.3093844 Eh           -8.4188 eV

     #   Z          covCN         q      C6AA      α(0)
     1  17 Cl       0.967    -0.177   104.724    15.656
     2   6 C        2.891     0.093    25.936     8.350
     3   6 C        2.997    -0.001    28.049     8.688
     4   6 C        3.851     0.068    19.407     6.266
     5   6 C        2.980     0.012    27.738     8.639
     6   6 C        2.922    -0.030    28.744     8.792
     7   6 C        2.921    -0.027    28.671     8.781
     8   6 C        2.919    -0.028    28.696     8.785
     9   6 C        2.919    -0.028    28.704     8.786
    10   6 C        2.926    -0.031    28.766     8.796
    11   6 C        2.978     0.007    27.866     8.659
    12   6 C        2.922    -0.031    28.779     8.797
    13   6 C        2.920    -0.027    28.684     8.783
    14   6 C        2.920    -0.028    28.702     8.785
    15   6 C        2.919    -0.028    28.703     8.786
    16   6 C        2.926    -0.030    28.748     8.793
    17   7 N        2.869    -0.027    21.756     6.928
    18   6 C        3.045    -0.024    28.563     8.766
    19   6 C        3.167     0.014    27.335     8.543
    20   7 N        1.911    -0.271    27.873     7.828
    21   6 C        3.183     0.084    25.717     8.277
    22   6 C        2.927    -0.035    28.861     8.810
    23   6 C        2.918    -0.032    28.794     8.800
    24   6 C        2.921    -0.028    28.699     8.785
    25   6 C        2.966    -0.039    28.975     8.829
    26   1 H        0.926     0.039     2.455     2.450
    27   1 H        0.926     0.035     2.515     2.480
    28   1 H        0.926     0.035     2.516     2.480
    29   1 H        0.926     0.034     2.530     2.487
    30   1 H        0.925     0.030     2.587     2.515
    31   1 H        0.926     0.034     2.527     2.486
    32   1 H        0.926     0.035     2.510     2.478
    33   1 H        0.926     0.036     2.508     2.476
    34   1 H        0.926     0.036     2.504     2.475
    35   1 H        0.926     0.035     2.517     2.481
    36   1 H        0.927     0.028     2.609     2.526
    37   1 H        0.926     0.029     2.594     2.519
    38   1 H        0.926     0.027     2.632     2.537
    39   1 H        0.926     0.054     2.277     2.359
    40   1 H        0.926     0.048     2.347     2.396
    41   1 H        0.926     0.049     2.331     2.388
    42   1 H        0.926     0.059     2.209     2.324

 Mol. C6AA /au·bohr⁶  :      26537.197187
 Mol. C8AA /au·bohr⁸  :     688151.715858
 Mol. α(0) /au        :        261.562523


Wiberg/Mayer (AO) data.
largest (>0.10) Wiberg bond orders for each atom

 ---------------------------------------------------------------------------
     #   Z sym  total        # sym  WBO       # sym  WBO       # sym  WBO
 ---------------------------------------------------------------------------
     1  17 Cl   1.116 --     2 C    0.970
     2   6 C    3.914 --    25 C    1.413     3 C    1.368     1 Cl   0.970
                            23 C    0.101
     3   6 C    3.985 --    22 C    1.417     2 C    1.368     4 C    0.966
                            24 C    0.106
     4   6 C    3.966 --     3 C    0.966    11 C    0.961     5 C    0.956
                            17 N    0.950
     5   6 C    3.985 --     6 C    1.424    10 C    1.403     4 C    0.956
                             8 C    0.111
     6   6 C    3.990 --     7 C    1.436     5 C    1.424    26 H    0.962
                             9 C    0.109
     7   6 C    3.991 --     8 C    1.444     6 C    1.436    27 H    0.971
                            10 C    0.111
     8   6 C    3.990 --     7 C    1.444     9 C    1.433    28 H    0.971
                             5 C    0.111
     9   6 C    3.991 --    10 C    1.450     8 C    1.433    29 H    0.971
                             6 C    0.109
    10   6 C    3.992 --     9 C    1.450     5 C    1.403    30 H    0.968
                             7 C    0.111
    11   6 C    3.985 --    12 C    1.426    16 C    1.399     4 C    0.961
                            14 C    0.110
    12   6 C    3.991 --    13 C    1.433    11 C    1.426    31 H    0.965
                            15 C    0.109
    13   6 C    3.991 --    14 C    1.447    12 C    1.433    32 H    0.971
                            16 C    0.112
    14   6 C    3.991 --    13 C    1.447    15 C    1.431    33 H    0.971
                            11 C    0.110
    15   6 C    3.991 --    16 C    1.451    14 C    1.431    34 H    0.971
                            12 C    0.109
    16   6 C    3.991 --    15 C    1.451    11 C    1.399    35 H    0.968
                            13 C    0.112
    17   7 N    3.631 --    21 C    1.238    18 C    1.203     4 C    0.950
                            20 N    0.102
    18   6 C    3.943 --    19 C    1.581    17 N    1.203    36 H    0.967
                            21 C    0.113
    19   6 C    3.973 --    18 C    1.581    20 N    1.295    37 H    0.971
    20   7 N    3.025 --    21 C    1.553    19 C    1.295    17 N    0.102
    21   6 C    3.958 --    20 N    1.553    17 N    1.238    38 H    0.964
                            18 C    0.113
    22   6 C    3.988 --    23 C    1.436     3 C    1.417    39 H    0.961
                            25 C    0.107
    23   6 C    3.991 --    24 C    1.438    22 C    1.436    40 H    0.970
                             2 C    0.101
    24   6 C    3.989 --    23 C    1.438    25 C    1.436    41 H    0.969
                             3 C    0.106
    25   6 C    3.987 --    24 C    1.436     2 C    1.413    42 H    0.967
                            22 C    0.107
    26   1 H    0.998 --     6 C    0.962
[...]
     C. Bannwarth and S. Grimme, J. Chem. Phys., 2019, 150, 154122.
     DOI: 10.1063/1.5090222
   * E. Caldeweyher, J.-M. Mewes, S. Ehlert and S. Grimme, Phys. Chem. Chem. Phys.
     2020, 22, 8499-8512. DOI: 10.1039/D0CP00502A
   
   for sTDA-xTB:
   * S. Grimme and C. Bannwarth, J. Chem. Phys., 2016, 145, 054103.
     DOI: 10.1063/1.4959605
   
   in the mass-spec context:
   * V. Asgeirsson, C. Bauer and S. Grimme, Chem. Sci., 2017, 8, 4879.
     DOI: 10.1039/c7sc00601b
   * J. Koopman and S. Grimme, ACS Omega 2019, 4, 12, 15120-15133.
     DOI: 10.1021/acsomega.9b02011
   
   for metadynamics refer to:
   * S. Grimme, J. Chem. Theory Comput., 2019, 155, 2847-2862
     DOI: 10.1021/acs.jctc.9b00143
   
   for SPH calculations refer to:
   * S. Spicher and S. Grimme, J. Chem. Theory Comput., 2021, 17, 1701-1714
     DOI: 10.1021/acs.jctc.0c01306
   
   for ONIOM refer to:
   * C. Plett, A. Katbashev, S. Ehlert, S. Grimme, M. Bursch,
     Phys. Chem. Chem. Phys., 2023, 25, 17860-17868. DOI: 10.1039/D3CP02178E
   
   for DIPRO refer to:
   * J. Kohn, N. Gildemeister, S. Grimme, D. Fazzi, A. Hansen,
     J. Chem. Phys., 2023, just accepted.
   
   for PTB refer to:
   * S. Grimme, M. Mueller, A. Hansen, J. Chem. Phys., 2023, 158, 124111.
     DOI: 10.1063/5.0137838
   
   with help from (in alphabetical order)
   P. Atkinson, C. Bannwarth, F. Bohle, G. Brandenburg, E. Caldeweyher
   M. Checinski, S. Dohm, S. Ehlert, S. Ehrlich, I. Gerasimov, C. Hölzer
   A. Katbashev, J. Kohn, J. Koopman, C. Lavigne, S. Lehtola, F. März, M. Müller,
   F. Musil, H. Neugebauer, J. Pisarek, C. Plett, P. Pracht, F. Pultar,
   J. Seibert, P. Shushkov, S. Spicher, M. Stahn, M. Steiner, T. Strunk,
   J. Stückrath, T. Rose, and J. Unsleber
   
 * started run on 2025/05/15 at 16:26:26.022     
   ID    Z sym.   atoms
    1   17 Cl     1
    2    6 C      2-16, 18, 19, 21-25
    3    7 N      17, 20
    4    1 H      26-42

           -------------------------------------------------
          |                Calculation Setup                |
           -------------------------------------------------

          program call               : xtb /rds/general/user/hgt20/home/callum/QDESCP/Clotrimazole_rdkit_conf_1/Clotrimazole_rdkit_conf_1.xyz --acc 1 --gfn 2 --chrg 0 --uhf 2 --etemp 300 --input /rds/general/user/hgt20/home/callum/QDESCP/Clotrimazole_rdkit_conf_1/Clotrimazole_rdkit_conf_1_xtb.inp -P 1
          hostname                   : login-c
          coordinate file            : /rds/general/user/hgt20/home/callum/QDESCP/Clotrimazole_rdkit_conf_1/Clotrimazole_rdkit_conf_1.xyz
          omp threads                :                     1


           -------------------------------------------------
          |                 G F N 2 - x T B                 |
           -------------------------------------------------

        Reference                      10.1021/acs.jctc.8b01176
      * Hamiltonian:
        H0-scaling (s, p, d)           1.850000    2.230000    2.230000
        zeta-weighting                 0.500000
      * Dispersion:
        s8                             2.700000
        a1                             0.520000
        a2                             5.000000
        s9                             5.000000
      * Repulsion:
        kExp                           1.500000    1.000000
        rExp                           1.000000
      * Coulomb:
        alpha                          2.000000
        third order                    shell-resolved
        anisotropic                    true
        a3                             3.000000
        a5                             4.000000
        cn-shift                       1.200000
        cn-exp                         4.000000
        max-rad                        5.000000


          ...................................................
          :                      SETUP                      :
          :.................................................:
          :  # basis functions                 123          :
          :  # atomic orbitals                 122          :
          :  # shells                           68          :
          :  # electrons                       122          :
          :  max. iterations                   250          :
          :  Hamiltonian                  GFN2-xTB          :
          :  restarted?                      false          :
          :  GBSA solvation                  false          :
          :  PC potential                    false          :
          :  electronic temp.          300.0000000     K    :
          :  accuracy                    1.0000000          :
          :  -> integral cutoff          0.2500000E+02      :
          :  -> integral neglect         0.1000000E-07      :
          :  -> SCF convergence          0.1000000E-05 Eh   :
          :  -> wf. convergence          0.1000000E-03 e    :
          :  Broyden damping             0.4000000          :
          :  net charge                          0          :
          :  unpaired electrons                  2          :
          ...................................................

 iter      E             dE          RMSdq      gap      omega  full diag
   1    -66.9811668 -0.669812E+02  0.405E+00    0.07       0.0  T
   2    -66.7898111  0.191356E+00  0.352E+00    0.73       1.0  T
   3    -66.8698752 -0.800641E-01  0.278E+00    0.23       1.0  T
   4    -66.9490758 -0.792006E-01  0.200E+00    0.09       1.0  T
   5    -66.8968047  0.522711E-01  0.172E+00    0.20       1.0  T
   6    -67.0036033 -0.106799E+00  0.148E+00    0.26       1.0  T
   7    -67.0892082 -0.856049E-01  0.852E-01    0.06       1.0  T
   8    -67.0801491  0.905918E-02  0.853E-01    0.07       1.0  T
   9    -67.0702831  0.986592E-02  0.945E-01    0.13       1.0  T
  10    -67.0844048 -0.141216E-01  0.823E-01    0.09       1.0  T
  11    -67.1094428 -0.250381E-01  0.600E-01    0.07       1.0  T
  12    -67.1233002 -0.138573E-01  0.495E-01    0.09       1.0  T
  13    -67.1355649 -0.122648E-01  0.261E-01    0.06       1.0  T
  14    -67.1370630 -0.149811E-02  0.200E-01    0.08       1.0  T
  15    -67.1389386 -0.187560E-02  0.803E-02    0.08       1.0  T
  16    -67.1391694 -0.230710E-03  0.542E-02    0.08       1.0  T
  17    -67.1389710  0.198331E-03  0.736E-02    0.08       1.0  T
  18    -67.1393362 -0.365164E-03  0.203E-02    0.07       1.0  T
  19    -67.1393658 -0.295706E-04  0.955E-03    0.07       1.6  T
  20    -67.1393587  0.701998E-05  0.123E-02    0.07       1.3  T
  21    -67.1393238  0.349662E-04  0.231E-02    0.07       1.0  T
  22    -67.1393659 -0.421327E-04  0.626E-03    0.07       2.5  T
  23    -67.1393533  0.126254E-04  0.140E-02    0.07       1.1  T
  24    -67.1393653 -0.120208E-04  0.621E-03    0.07       2.5  T
  25    -67.1393679 -0.254675E-05  0.121E-03    0.07      12.8  T
  26    -67.1393678  0.844973E-07  0.134E-03    0.07      11.5  T
  27    -67.1393678 -0.461055E-07  0.109E-03    0.07      14.2  T
  28    -67.1393679 -0.694813E-07  0.556E-04    0.07      27.7  T
  29    -67.1393679 -0.133740E-07  0.387E-04    0.07      39.9  T

   *** convergence criteria satisfied after 29 iterations ***

         #    Occupation            Energy/Eh            Energy/eV
      -------------------------------------------------------------
         1        2.0000           -1.0656416             -28.9976
       ...           ...                  ...                  ...
        56        2.0000           -0.4083925             -11.1129
        57        2.0000           -0.4072547             -11.0820
        58        1.9985           -0.4037191             -10.9858
        59        1.8412           -0.3991029             -10.8601
        60        1.7133           -0.3983850             -10.8406
        61        1.4470           -0.3973171             -10.8115
        62        0.7689           -0.2360118              -6.4222 (HOMO)
        63        0.1588           -0.2332860              -6.3480 (LUMO)
        64        0.0710           -0.2324271              -6.3247
        65        0.0008           -0.2280923              -6.2067
        66        0.0004           -0.2274551              -6.1894
        67        0.0000           -0.2253599              -6.1324
       ...           ...                  ...                  ...
       122                          0.6596215              17.9492
      -------------------------------------------------------------
                  HL-Gap            0.0027258 Eh            0.0742 eV
             Fermi-level           -0.3161944 Eh           -8.6041 eV

 transition dipole moment (au) for excitation:          61          62
     X       Y       Z   
  -0.1070  -0.1355  -0.7851  total (au/Debye):    0.804   2.043
 dE (eV)             :    4.389
 oscillator strength :  0.98283E-01

 SCC (total)                   0 d,  0 h,  0 min,  0.208 sec
 SCC setup                      ...        0 min,  0.000 sec (  0.179%)
 Dispersion                     ...        0 min,  0.001 sec (  0.320%)
 classical contributions        ...        0 min,  0.000 sec (  0.070%)
 integral evaluation            ...        0 min,  0.010 sec (  4.871%)
 iterations                     ...        0 min,  0.158 sec ( 76.196%)
 molecular gradient             ...        0 min,  0.028 sec ( 13.498%)
 printout                       ...        0 min,  0.010 sec (  4.862%)

         :::::::::::::::::::::::::::::::::::::::::::::::::::::
         ::                     SUMMARY                     ::
         :::::::::::::::::::::::::::::::::::::::::::::::::::::
         :: total energy             -66.010285465171 Eh    ::
         :: gradient norm              0.090634097510 Eh/a0 ::
         :: HOMO-LUMO gap              0.074173876304 eV    ::
         ::.................................................::
         :: SCC energy               -67.137684354636 Eh    ::
         :: -> isotropic ES            0.012564866491 Eh    ::
         :: -> anisotropic ES          0.005158156875 Eh    ::
         :: -> anisotropic XC          0.039497716953 Eh    ::
         :: -> dispersion             -0.061659004979 Eh    ::
         :: repulsion energy           1.127398889465 Eh    ::
         :: add. restraining           0.000000000000 Eh    ::
         :: total charge               0.000000000022 e     ::
         :::::::::::::::::::::::::::::::::::::::::::::::::::::

           -------------------------------------------------
          |                Property Printout                |
           -------------------------------------------------

    * Orbital Energies and Occupations

         #    Occupation            Energy/Eh            Energy/eV
      -------------------------------------------------------------
         1        2.0000           -1.0656416             -28.9976
       ...           ...                  ...                  ...
        50        2.0000           -0.4310572             -11.7297
        51        2.0000           -0.4283774             -11.6567
        52        2.0000           -0.4263399             -11.6013
        53        2.0000           -0.4211618             -11.4604
        54        2.0000           -0.4118971             -11.2083
        55        2.0000           -0.4095506             -11.1444
        56        2.0000           -0.4083925             -11.1129
        57        2.0000           -0.4072547             -11.0820
        58        1.9985           -0.4037191             -10.9858
        59        1.8412           -0.3991029             -10.8601
        60        1.7133           -0.3983850             -10.8406
        61        1.4470           -0.3973171             -10.8115
        62        0.7689           -0.2360118              -6.4222 (HOMO)
        63        0.1588           -0.2332860              -6.3480 (LUMO)
        64        0.0710           -0.2324271              -6.3247
        65        0.0008           -0.2280923              -6.2067
        66        0.0004           -0.2274551              -6.1894
        67        0.0000           -0.2253599              -6.1324
        68                         -0.2186614              -5.9501
        69                         -0.1841175              -5.0101
        70                         -0.1440241              -3.9191
        71                         -0.1066387              -2.9018
        72                         -0.1046776              -2.8484
        73                         -0.0988268              -2.6892
       ...                                ...                  ...
       122                          0.6596215              17.9492
      -------------------------------------------------------------
                  HL-Gap            0.0027258 Eh            0.0742 eV
             Fermi-level           -0.3161944 Eh           -8.6041 eV

     #   Z          covCN         q      C6AA      α(0)
     1  17 Cl       0.967    -0.116   102.774    15.510
     2   6 C        2.891     0.079    26.234     8.398
     3   6 C        2.997    -0.017    28.422     8.745
     4   6 C        3.851     0.066    19.444     6.272
     5   6 C        2.980     0.002    27.972     8.676
     6   6 C        2.922    -0.035    28.876     8.812
     7   6 C        2.921    -0.029    28.720     8.788
     8   6 C        2.919    -0.034    28.852     8.808
     9   6 C        2.919    -0.032    28.799     8.800
    10   6 C        2.926    -0.035    28.866     8.811
    11   6 C        2.978    -0.002    28.059     8.689
    12   6 C        2.922    -0.034    28.839     8.806
    13   6 C        2.920    -0.031    28.763     8.795
    14   6 C        2.920    -0.034    28.839     8.806
    15   6 C        2.919    -0.030    28.743     8.792
    16   6 C        2.926    -0.036    28.889     8.814
    17   7 N        2.869    -0.006    21.373     6.866
    18   6 C        3.045    -0.013    28.298     8.725
    19   6 C        3.167     0.021    27.195     8.521
    20   7 N        1.911    -0.219    26.618     7.649
    21   6 C        3.183     0.090    25.580     8.254
    22   6 C        2.927    -0.046    29.144     8.853
    23   6 C        2.918    -0.036    28.890     8.814
    24   6 C        2.921    -0.042    29.034     8.836
    25   6 C        2.966    -0.047    29.158     8.857
    26   1 H        0.926     0.036     2.502     2.473
    27   1 H        0.926     0.031     2.571     2.508
    28   1 H        0.926     0.029     2.595     2.519
    29   1 H        0.926     0.030     2.592     2.518
    30   1 H        0.925     0.027     2.625     2.534
    31   1 H        0.926     0.034     2.529     2.487
    32   1 H        0.926     0.033     2.546     2.495
    33   1 H        0.926     0.031     2.570     2.507
    34   1 H        0.926     0.032     2.564     2.504
    35   1 H        0.926     0.027     2.624     2.533
    36   1 H        0.927     0.051     2.303     2.373
    37   1 H        0.926     0.047     2.357     2.401
    38   1 H        0.926     0.050     2.322     2.383
    39   1 H        0.926     0.034     2.532     2.488
    40   1 H        0.926     0.037     2.495     2.470
    41   1 H        0.926     0.037     2.483     2.464
    42   1 H        0.926     0.047     2.352     2.398

 Mol. C6AA /au·bohr⁶  :      26570.469736
 Mol. C8AA /au·bohr⁸  :     688674.811922
 Mol. α(0) /au        :        261.754749


Wiberg/Mayer (AO) data.
largest (>0.10) Wiberg bond orders for each atom

 ---------------------------------------------------------------------------
     #   Z sym  total        # sym  WBO       # sym  WBO       # sym  WBO
 ---------------------------------------------------------------------------
     1  17 Cl   1.127 --     2 C    0.996
     2   6 C    3.659 --    25 C    1.343     3 C    1.174     1 Cl   0.996
     3   6 C    3.794 --    22 C    1.391     2 C    1.174     4 C    0.965
     4   6 C    3.943 --     3 C    0.965    11 C    0.955     5 C    0.954
                            17 N    0.933
     5   6 C    3.836 --     6 C    1.339    10 C    1.295     4 C    0.954
     6   6 C    3.938 --     7 C    1.478     5 C    1.339    26 H    0.961
     7   6 C    3.930 --     6 C    1.478     8 C    1.350    27 H    0.970
     8   6 C    3.813 --     9 C    1.372     7 C    1.350    28 H    0.971
     9   6 C    3.956 --    10 C    1.483     8 C    1.372    29 H    0.971
    10   6 C    3.924 --     9 C    1.483     5 C    1.295    30 H    0.967
    11   6 C    3.895 --    12 C    1.392    16 C    1.337     4 C    0.955
    12   6 C    3.974 --    13 C    1.454    11 C    1.392    31 H    0.963
                            15 C    0.105
    13   6 C    3.945 --    12 C    1.454    14 C    1.389    32 H    0.970
    14   6 C    3.890 --    15 C    1.412    13 C    1.389    33 H    0.971
    15   6 C    3.982 --    16 C    1.464    14 C    1.412    34 H    0.971
                            12 C    0.105
    16   6 C    3.935 --    15 C    1.464    11 C    1.337    35 H    0.967
    17   7 N    3.622 --    21 C    1.240    18 C    1.225     4 C    0.933
    18   6 C    3.903 --    19 C    1.537    17 N    1.225    36 H    0.962
    19   6 C    3.912 --    18 C    1.537    20 N    1.289    37 H    0.969
    20   7 N    3.002 --    21 C    1.524    19 C    1.289
    21   6 C    3.913 --    20 N    1.524    17 N    1.240    38 H    0.962
    22   6 C    3.915 --    23 C    1.407     3 C    1.391    39 H    0.962
    23   6 C    3.742 --    22 C    1.407    24 C    1.252    40 H    0.970
    24   6 C    3.808 --    25 C    1.450    23 C    1.252    41 H    0.970
    25   6 C    3.902 --    24 C    1.450     2 C    1.343    42 H    0.968
    26   1 H    0.998 --     6 C    0.961
    27   1 H    0.998 --     7 C    0.970
    28   1 H    0.998 --     8 C    0.971
    29   1 H    0.998 --     9 C    0.971
    30   1 H    0.999 --    10 C    0.967
    31   1 H    0.998 --    12 C    0.963
    32   1 H    0.997 --    13 C    0.970
    33   1 H    0.998 --    14 C    0.971
    34   1 H    0.998 --    15 C    0.971
    35   1 H    0.998 --    16 C    0.967
    36   1 H    0.995 --    18 C    0.962
    37   1 H    0.996 --    19 C    0.969
    38   1 H    0.997 --    21 C    0.962
    39   1 H    0.998 --    22 C    0.962
    40   1 H    0.997 --    23 C    0.970
    41   1 H    0.997 --    24 C    0.970
    42   1 H    0.997 --    25 C    0.968
 ---------------------------------------------------------------------------

Topologies differ in total number of bonds
Writing topology from bond orders to xtbtopo.mol

molecular dipole:
                 x           y           z       tot (Debye)
 q only:        0.139       0.061       0.111
   full:       -0.045       0.453      -0.202       1.266
molecular quadrupole (traceless):
                xx          xy          yy          xz          yz          zz
 q only:        3.748       0.407       0.809      -1.713       6.515      -4.556
  q+dip:        7.203       0.831       0.871      -1.605      10.078      -8.074
   full:        6.020       0.963       1.171      -1.177       9.334      -7.191


           -------------------------------------------------
          | TOTAL ENERGY              -66.010285465171 Eh   |
          | GRADIENT NORM               0.090634097510 Eh/α |
          | HOMO-LUMO GAP               0.074173876304 eV   |
           -------------------------------------------------

------------------------------------------------------------------------
 * finished run on 2025/05/15 at 16:26:26.284     
------------------------------------------------------------------------
 total:
 * wall-time:     0 d,  0 h,  0 min,  0.262 sec
 *  cpu-time:     0 d,  0 h,  0 min,  0.136 sec
 * ratio c/w:     0.520 speedup
 SCF:
 * wall-time:     0 d,  0 h,  0 min,  0.208 sec
 *  cpu-time:     0 d,  0 h,  0 min,  0.122 sec
 * ratio c/w:     0.588 speedup


