42
 energy: -66.164687067722 gnorm: 0.000635796911 xtb: 6.7.1 (edcfbbe)
Cl          -0.06271743981720        0.63439681285010       -2.77074450295934
C            1.23449522820673       -0.22821566138791       -2.00675902414224
C            1.19537920802617       -0.54454260832247       -0.64688402005175
C            0.02267865637459       -0.09574620549656        0.22490248663512
C           -0.09471774415595        1.42028793402653        0.05931952909444
C           -1.28907902819377        2.07549381502590       -0.20343910838091
C           -1.31851049197675        3.45398634651436       -0.33340476872085
C           -0.15885030873098        4.19650830999726       -0.20506117263654
C            1.03970091986385        3.54988070380446        0.04477758276226
C            1.07160561666457        2.17398520647888        0.17194410946931
C           -1.26304988205576       -0.84958335130233       -0.10598986936304
C           -1.35485274333738       -1.78879086640295       -1.12266811546049
C           -2.54374334839179       -2.46334803956628       -1.34875560341694
C           -3.65052868734888       -2.21964818452296       -0.55671530913064
C           -3.55787101639375       -1.30863162819311        0.48225268438533
C           -2.37276400942073       -0.63580953522509        0.70969723353552
N            0.28234515434602       -0.39273320291358        1.63181648359713
C            0.56909109829456        0.45496398834121        2.66608974328459
C            0.69727953787425       -0.33026191967318        3.77443515672969
N            0.49464650508622       -1.63417646616777        3.44947075416560
C            0.24551299798401       -1.63909987113477        2.17156219040688
C            2.27930722517664       -1.23815238850150       -0.12116834332394
C            3.35350023552266       -1.61077701956766       -0.91024789165915
C            3.37010856632231       -1.29122762010148       -2.25522100578574
C            2.30619334052035       -0.59805886535295       -2.80298209551446
H           -2.20248356826791        1.51616425446484       -0.33388692716300
H           -2.25701617162265        3.94618498134252       -0.54206097644846
H           -0.18618671131371        5.27103040654718       -0.30712686924810
H            1.95483429283718        4.11607616206546        0.13705535156912
H            2.01381857118655        1.67716069844586        0.35833017971358
H           -0.50016637380592       -2.01606865654277       -1.74080091992288
H           -2.59732746410790       -3.18843535003046       -2.14749008659032
H           -4.57593691357609       -2.74570362345216       -0.73728888788163
H           -4.40825060631504       -1.12454501759927        1.12204252913859
H           -2.30281353579075        0.05379154743530        1.53948311253481
H            0.64461607629839        1.51515992701829        2.54732796483754
H            0.92057837140475       -0.03939430839875        4.78121709037159
H            0.02814072911401       -2.51570371359165        1.59355306318269
H            2.29370284352606       -1.49422639850662        0.92708064740975
H            4.17683057448931       -2.14894353074842       -0.46647624185265
H            4.20419637496761       -1.57612168430009       -2.87759014698811
H            2.29820392053469       -0.33712537735792       -3.84949600618735
